Gravel Rubs Often Many Awfully Cauterized Sores
  417
    1ASP      N    1   1.020   0.069  -1.998
    1ASP     H1    2   1.063   0.066  -1.908
    1ASP     H2    3   1.021  -0.022  -2.039
    1ASP     H3    4   1.070   0.133  -2.056
    1ASP     CA    5   0.880   0.115  -1.984
    1ASP     HA    6   0.889   0.207  -1.946
    1ASP     CB    7   0.814   0.120  -2.121
    1ASP    HB1    8   0.769   0.033  -2.141
    1ASP    HB2    9   0.883   0.138  -2.192
    1ASP     CG   10   0.713   0.233  -2.118
    1ASP    OD1   11   0.761   0.345  -2.093
    1ASP    OD2   12   0.592   0.201  -2.125
    1ASP      C   13   0.796   0.039  -1.880
    1ASP      O   14   0.709   0.097  -1.816
    2SER      N   15   0.821  -0.090  -1.852
    2SER      H   16   0.903  -0.132  -1.891
    2SER     CA   17   0.732  -0.172  -1.766
    2SER     HA   18   0.644  -0.123  -1.775
    2SER     CB   19   0.725  -0.315  -1.821
    2SER    HB1   20   0.655  -0.368  -1.773
    2SER    HB2   21   0.814  -0.361  -1.813
    2SER     OG   22   0.691  -0.309  -1.958
    2SER     HG   23   0.686  -0.402  -1.995
    2SER      C   24   0.761  -0.172  -1.615
    2SER      O   25   0.693  -0.243  -1.541
    3HIS      N   26   0.858  -0.095  -1.565
    3HIS      H   27   0.910  -0.036  -1.627
    3HIS     CA   28   0.891  -0.094  -1.421
    3HIS     HA   29   0.874  -0.187  -1.390
    3HIS     CB   30   1.040  -0.061  -1.402
    3HIS    HB1   31   1.053   0.037  -1.412
    3HIS    HB2   32   1.093  -0.109  -1.471
    3HIS     CG   33   1.091  -0.102  -1.266
    3HIS    ND1   34   1.089  -0.230  -1.213
    3HIS    CE1   35   1.143  -0.226  -1.090
    3HIS    HE1   36   1.154  -0.305  -1.030
    3HIS    NE2   37   1.180  -0.101  -1.061
    3HIS    HE2   38   1.222  -0.070  -0.975
    3HIS    CD2   39   1.149  -0.022  -1.171
    3HIS    HD2   40   1.166   0.076  -1.180
    3HIS      C   41   0.798  -0.003  -1.338
    3HIS      O   42   0.765  -0.036  -1.224
    4ALA      N   43   0.743   0.104  -1.398
    4ALA      H   44   0.766   0.121  -1.494
    4ALA     CA   45   0.653   0.198  -1.330
    4ALA     HA   46   0.696   0.218  -1.242
    4ALA     CB   47   0.643   0.324  -1.417
    4ALA    HB1   48   0.582   0.390  -1.373
    4ALA    HB2   49   0.734   0.364  -1.428
    4ALA    HB3   50   0.606   0.299  -1.507
    4ALA      C   51   0.514   0.139  -1.299
    4ALA      O   52   0.452   0.173  -1.199
    5LYS      N   53   0.467   0.043  -1.380
    5LYS      H   54   0.525   0.013  -1.456
    5LYS     CA   55   0.335  -0.021  -1.362
    5LYS     HA   56   0.272   0.055  -1.347
    5LYS     CB   57   0.297  -0.098  -1.490
    5LYS    HB1   58   0.215  -0.153  -1.472
    5LYS    HB2   59   0.373  -0.159  -1.515
    5LYS     CG   60   0.268  -0.003  -1.607
    5LYS    HG1   61   0.352   0.049  -1.627
    5LYS    HG2   62   0.196   0.060  -1.579
    5LYS     CD   63   0.224  -0.077  -1.734
    5LYS    HD1   64   0.141  -0.129  -1.715
    5LYS    HD2   65   0.297  -0.139  -1.763
    5LYS     CE   66   0.197   0.026  -1.845
    5LYS    HE1   67   0.278   0.083  -1.858
    5LYS    HE2   68   0.120   0.085  -1.818
    5LYS     NZ   69   0.163  -0.036  -1.975
    5LYS    HZ1   70   0.146   0.035  -2.043
    5LYS    HZ2   71   0.239  -0.094  -2.005
    5LYS    HZ3   72   0.081  -0.092  -1.965
    5LYS      C   73   0.327  -0.111  -1.239
    5LYS      O   74   0.221  -0.125  -1.179
    6ARG      N   75   0.441  -0.166  -1.195
    6ARG      H   76   0.526  -0.147  -1.244
    6ARG     CA   77   0.446  -0.252  -1.076
    6ARG     HA   78   0.366  -0.312  -1.079
    6ARG     CB   79   0.573  -0.339  -1.083
    6ARG    HB1   80   0.647  -0.290  -1.036
    6ARG    HB2   81   0.597  -0.353  -1.179
    6ARG     CG   82   0.556  -0.477  -1.016
    6ARG    HG1   83   0.469  -0.517  -1.045
    6ARG    HG2   84   0.556  -0.466  -0.917
    6ARG     CD   85   0.671  -0.570  -1.057
    6ARG    HD1   86   0.759  -0.523  -1.042
    6ARG    HD2   87   0.663  -0.594  -1.153
    6ARG     NE   88   0.673  -0.695  -0.978
    6ARG     HE   89   0.637  -0.689  -0.885
    6ARG     CZ   90   0.715  -0.814  -1.018
    6ARG    NH1   91   0.755  -0.838  -1.140
    6ARG   HH11   92   0.755  -0.764  -1.207
    6ARG   HH12   93   0.786  -0.929  -1.165
    6ARG    NH2   94   0.718  -0.914  -0.934
    6ARG   HH21   95   0.689  -0.900  -0.839
    6ARG   HH22   96   0.750  -1.003  -0.964
    6ARG      C   97   0.430  -0.172  -0.947
    6ARG      O   98   0.382  -0.228  -0.849
    7HIS      N   99   0.459  -0.041  -0.948
    7HIS      H  100   0.485  -0.000  -1.036
    7HIS     CA  101   0.456   0.045  -0.830
    7HIS     HA  102   0.485  -0.015  -0.756
    7HIS     CB  103   0.557   0.161  -0.847
    7HIS    HB1  104   0.507   0.247  -0.845
    7HIS    HB2  105   0.602   0.151  -0.936
    7HIS     CG  106   0.663   0.166  -0.740
    7HIS    ND1  107   0.679   0.266  -0.647
    7HIS    CE1  108   0.793   0.242  -0.579
    7HIS    HE1  109   0.832   0.302  -0.509
    7HIS    NE2  110   0.845   0.125  -0.618
    7HIS    HE2  111   0.924   0.078  -0.577
    7HIS    CD2  112   0.769   0.080  -0.726
    7HIS    HD2  113   0.788   0.000  -0.782
    7HIS      C  114   0.316   0.093  -0.788
    7HIS      O  115   0.289   0.110  -0.669
    8HIS      N  116   0.225   0.109  -0.884
    8HIS      H  117   0.251   0.089  -0.978
    8HIS     CA  118   0.088   0.153  -0.856
    8HIS     HA  119   0.095   0.215  -0.779
    8HIS     CB  120   0.033   0.226  -0.979
    8HIS    HB1  121  -0.067   0.229  -0.974
    8HIS    HB2  122   0.061   0.177  -1.062
    8HIS     CG  123   0.085   0.367  -0.987
    8HIS    ND1  124   0.038   0.474  -0.915
    8HIS    CE1  125   0.111   0.582  -0.947
    8HIS    HE1  126   0.097   0.674  -0.910
    8HIS    NE2  127   0.205   0.549  -1.036
    8HIS    HE2  128   0.274   0.610  -1.076
    8HIS    CD2  129   0.189   0.413  -1.064
    8HIS    HD2  130   0.244   0.359  -1.128
    8HIS      C  131  -0.005   0.040  -0.809
    8HIS      O  132  -0.101   0.065  -0.736
    9GLY      N  133   0.024  -0.086  -0.845
    9GLY      H  134   0.105  -0.102  -0.901
    9GLY     CA  135  -0.056  -0.202  -0.805
    9GLY    HA1  136  -0.031  -0.278  -0.865
    9GLY    HA2  137  -0.152  -0.178  -0.821
    9GLY      C  138  -0.038  -0.243  -0.659
    9GLY      O  139  -0.135  -0.276  -0.591
   10TYR      N  140   0.085  -0.239  -0.606
   10TYR      H  141   0.161  -0.203  -0.661
   10TYR     CA  142   0.113  -0.285  -0.469
   10TYR     HA  143   0.050  -0.362  -0.457
   10TYR     CB  144   0.258  -0.334  -0.457
   10TYR    HB1  145   0.279  -0.391  -0.536
   10TYR    HB2  146   0.265  -0.390  -0.374
   10TYR     CG  147   0.362  -0.225  -0.448
   10TYR    CD1  148   0.454  -0.206  -0.553
   10TYR    HD1  149   0.450  -0.265  -0.634
   10TYR    CE1  150   0.552  -0.106  -0.542
   10TYR    HE1  151   0.621  -0.096  -0.614
   10TYR     CZ  152   0.552  -0.019  -0.432
   10TYR     OH  153   0.639   0.083  -0.420
   10TYR     HH  154   0.621   0.132  -0.334
   10TYR    CE2  155   0.466  -0.044  -0.324
   10TYR    HE2  156   0.471   0.013  -0.242
   10TYR    CD2  157   0.374  -0.148  -0.331
   10TYR    HD2  158   0.316  -0.169  -0.252
   10TYR      C  159   0.076  -0.181  -0.362
   10TYR      O  160   0.036  -0.219  -0.252
   11LYS      N  161   0.087  -0.050  -0.392
   11LYS      H  162   0.116  -0.024  -0.484
   11LYS     CA  163   0.056   0.057  -0.294
   11LYS     HA  164   0.106   0.029  -0.212
   11LYS     CB  165   0.107   0.193  -0.344
   11LYS    HB1  166   0.061   0.266  -0.293
   11LYS    HB2  167   0.086   0.202  -0.442
   11LYS     CG  168   0.259   0.209  -0.325
   11LYS    HG1  169   0.306   0.152  -0.393
   11LYS    HG2  170   0.283   0.177  -0.233
   11LYS     CD  171   0.305   0.354  -0.340
   11LYS    HD1  172   0.246   0.414  -0.286
   11LYS    HD2  173   0.300   0.380  -0.437
   11LYS     CE  174   0.450   0.368  -0.291
   11LYS    HE1  175   0.511   0.316  -0.351
   11LYS    HE2  176   0.457   0.333  -0.198
   11LYS     NZ  177   0.495   0.510  -0.292
   11LYS    HZ1  178   0.590   0.515  -0.259
   11LYS    HZ2  179   0.490   0.546  -0.384
   11LYS    HZ3  180   0.437   0.563  -0.231
   11LYS      C  181  -0.092   0.066  -0.260
   11LYS      O  182  -0.126   0.103  -0.147
   12ARG      N  183  -0.179   0.027  -0.354
   12ARG      H  184  -0.142  -0.001  -0.442
   12ARG     CA  185  -0.325   0.023  -0.336
   12ARG     HA  186  -0.351   0.113  -0.301
   12ARG     CB  187  -0.391  -0.004  -0.472
   12ARG    HB1  188  -0.453  -0.082  -0.462
   12ARG    HB2  189  -0.320  -0.026  -0.539
   12ARG     CG  190  -0.472   0.117  -0.522
   12ARG    HG1  191  -0.412   0.197  -0.522
   12ARG    HG2  192  -0.549   0.132  -0.460
   12ARG     CD  193  -0.526   0.095  -0.664
   12ARG    HD1  194  -0.451   0.099  -0.730
   12ARG    HD2  195  -0.593   0.165  -0.686
   12ARG     NE  196  -0.592  -0.037  -0.677
   12ARG     HE  197  -0.543  -0.114  -0.635
   12ARG     CZ  198  -0.705  -0.067  -0.737
   12ARG    NH1  199  -0.777   0.022  -0.801
   12ARG   HH11  200  -0.746   0.117  -0.805
   12ARG   HH12  201  -0.862  -0.005  -0.845
   12ARG    NH2  202  -0.750  -0.189  -0.733
   12ARG   HH21  203  -0.699  -0.260  -0.685
   12ARG   HH22  204  -0.837  -0.212  -0.779
   12ARG      C  205  -0.368  -0.079  -0.231
   12ARG      O  206  -0.448  -0.047  -0.144
   13LYS      N  207  -0.308  -0.199  -0.232
   13LYS      H  208  -0.237  -0.215  -0.301
   13LYS     CA  209  -0.340  -0.306  -0.137
   13LYS     HA  210  -0.439  -0.314  -0.137
   13LYS     CB  211  -0.275  -0.437  -0.187
   13LYS    HB1  212  -0.176  -0.432  -0.173
   13LYS    HB2  213  -0.295  -0.448  -0.284
   13LYS     CG  214  -0.329  -0.560  -0.111
   13LYS    HG1  215  -0.429  -0.560  -0.116
   13LYS    HG2  216  -0.301  -0.554  -0.016
   13LYS     CD  217  -0.277  -0.691  -0.171
   13LYS    HD1  218  -0.177  -0.695  -0.161
   13LYS    HD2  219  -0.301  -0.696  -0.268
   13LYS     CE  220  -0.340  -0.809  -0.096
   13LYS    HE1  221  -0.440  -0.804  -0.104
   13LYS    HE2  222  -0.314  -0.805   0.001
   13LYS     NZ  223  -0.296  -0.940  -0.149
   13LYS    HZ1  224  -0.339  -1.014  -0.097
   13LYS    HZ2  225  -0.321  -0.948  -0.246
   13LYS    HZ3  226  -0.196  -0.948  -0.141
   13LYS      C  227  -0.300  -0.273   0.007
   13LYS      O  228  -0.362  -0.321   0.101
   14PHE      N  229  -0.197  -0.189   0.026
   14PHE      H  230  -0.148  -0.155  -0.055
   14PHE     CA  231  -0.152  -0.147   0.159
   14PHE     HA  232  -0.160  -0.228   0.217
   14PHE     CB  233  -0.005  -0.103   0.152
   14PHE    HB1  234   0.001  -0.020   0.097
   14PHE    HB2  235   0.048  -0.176   0.109
   14PHE     CG  236   0.055  -0.073   0.288
   14PHE    CD1  237   0.070   0.060   0.331
   14PHE    HD1  238   0.043   0.135   0.271
   14PHE    CE1  239   0.124   0.087   0.459
   14PHE    HE1  240   0.135   0.182   0.489
   14PHE     CZ  241   0.161  -0.019   0.543
   14PHE     HZ  242   0.199   0.001   0.634
   14PHE    CE2  243   0.146  -0.152   0.501
   14PHE    HE2  244   0.172  -0.227   0.561
   14PHE    CD2  245   0.092  -0.179   0.374
   14PHE    HD2  246   0.081  -0.274   0.344
   14PHE      C  247  -0.243  -0.040   0.220
   14PHE      O  248  -0.275  -0.049   0.337
   15HIS      N  249  -0.292   0.057   0.141
   15HIS      H  250  -0.266   0.058   0.045
   15HIS     CA  251  -0.382   0.162   0.192
   15HIS     HA  252  -0.343   0.189   0.280
   15HIS     CB  253  -0.383   0.281   0.094
   15HIS    HB1  254  -0.460   0.341   0.117
   15HIS    HB2  255  -0.395   0.246   0.001
   15HIS     CG  256  -0.256   0.361   0.100
   15HIS    ND1  257  -0.137   0.329   0.039
   15HIS    HD1  258  -0.120   0.250  -0.020
   15HIS    CE1  259  -0.047   0.422   0.073
   15HIS    HE1  260   0.049   0.423   0.044
   15HIS    NE2  261  -0.103   0.515   0.152
   15HIS    CD2  262  -0.236   0.477   0.170
   15HIS    HD2  263  -0.304   0.525   0.225
   15HIS      C  264  -0.524   0.111   0.219
   15HIS      O  265  -0.591   0.160   0.310
   16GLU      N  266  -0.569   0.009   0.147
   16GLU      H  267  -0.509  -0.030   0.077
   16GLU     CA  268  -0.702  -0.051   0.165
   16GLU     HA  269  -0.768   0.025   0.167
   16GLU     CB  270  -0.728  -0.143   0.045
   16GLU    HB1  271  -0.676  -0.228   0.060
   16GLU    HB2  272  -0.694  -0.098  -0.037
   16GLU     CG  273  -0.874  -0.180   0.023
   16GLU    HG1  274  -0.931  -0.098   0.025
   16GLU    HG2  275  -0.905  -0.243   0.095
   16GLU     CD  276  -0.888  -0.249  -0.113
   16GLU    OE1  277  -0.878  -0.373  -0.118
   16GLU    OE2  278  -0.897  -0.176  -0.215
   16GLU      C  279  -0.718  -0.123   0.301
   16GLU      O  280  -0.828  -0.133   0.354
   17LYS      N  281  -0.608  -0.166   0.363
   17LYS      H  282  -0.519  -0.147   0.321
   17LYS     CA  283  -0.610  -0.241   0.490
   17LYS     HA  284  -0.688  -0.302   0.483
   17LYS     CB  285  -0.479  -0.320   0.503
   17LYS    HB1  286  -0.404  -0.257   0.526
   17LYS    HB2  287  -0.459  -0.365   0.416
   17LYS     CG  288  -0.486  -0.429   0.612
   17LYS    HG1  289  -0.567  -0.486   0.595
   17LYS    HG2  290  -0.496  -0.384   0.701
   17LYS     CD  291  -0.363  -0.519   0.615
   17LYS    HD1  292  -0.281  -0.464   0.632
   17LYS    HD2  293  -0.353  -0.566   0.528
   17LYS     CE  294  -0.381  -0.621   0.729
   17LYS    HE1  295  -0.460  -0.679   0.708
   17LYS    HE2  296  -0.397  -0.573   0.815
   17LYS     NZ  297  -0.262  -0.708   0.746
   17LYS    HZ1  298  -0.279  -0.773   0.821
   17LYS    HZ2  299  -0.245  -0.759   0.662
   17LYS    HZ3  300  -0.183  -0.652   0.768
   17LYS      C  301  -0.640  -0.153   0.614
   17LYS      O  302  -0.668  -0.207   0.720
   18HIS      N  303  -0.635  -0.020   0.603
   18HIS      H  304  -0.628   0.020   0.511
   18HIS     CA  305  -0.641   0.070   0.719
   18HIS     HA  306  -0.635   0.010   0.798
   18HIS     CB  307  -0.520   0.165   0.715
   18HIS    HB1  308  -0.533   0.238   0.782
   18HIS    HB2  309  -0.512   0.204   0.623
   18HIS     CG  310  -0.391   0.093   0.748
   18HIS    ND1  311  -0.341   0.071   0.874
   18HIS    CE1  312  -0.228   0.000   0.862
   18HIS    HE1  313  -0.170  -0.028   0.939
   18HIS    NE2  314  -0.203  -0.027   0.734
   18HIS    HE2  315  -0.126  -0.080   0.697
   18HIS    CD2  316  -0.306   0.033   0.660
   18HIS    HD2  317  -0.315   0.032   0.561
   18HIS      C  318  -0.775   0.143   0.738
   18HIS      O  319  -0.786   0.226   0.828
   19HIS      N  320  -0.879   0.111   0.660
   19HIS      H  321  -0.869   0.034   0.596
   19HIS     CA  322  -1.007   0.183   0.664
   19HIS     HA  323  -0.988   0.260   0.725
   19HIS     CB  324  -1.041   0.232   0.522
   19HIS    HB1  325  -1.137   0.262   0.520
   19HIS    HB2  326  -1.028   0.157   0.457
   19HIS     CG  327  -0.954   0.348   0.480
   19HIS    ND1  328  -0.952   0.472   0.539
   19HIS    CE1  329  -0.861   0.547   0.475
   19HIS    HE1  330  -0.839   0.642   0.498
   19HIS    NE2  331  -0.804   0.477   0.376
   19HIS    HE2  332  -0.733   0.509   0.313
   19HIS    CD2  333  -0.862   0.350   0.379
   19HIS    HD2  334  -0.841   0.274   0.317
   19HIS      C  335  -1.124   0.110   0.733
   19HIS      O  336  -1.233   0.166   0.738
   20SER      N  337  -1.105  -0.009   0.792
   20SER      H  338  -1.011  -0.043   0.803
   20SER     CA  339  -1.217  -0.091   0.840
   20SER     HA  340  -1.296  -0.032   0.824
   20SER     CB  341  -1.226  -0.220   0.757
   20SER    HB1  342  -1.230  -0.199   0.660
   20SER    HB2  343  -1.306  -0.274   0.784
   20SER     OG  344  -1.112  -0.299   0.779
   20SER     HG  345  -1.118  -0.383   0.725
   20SER      C  346  -1.223  -0.118   0.991
   20SER      O  347  -1.296  -0.208   1.032
   21HIS      N  348  -1.152  -0.044   1.077
   21HIS      H  349  -1.091   0.028   1.041
   21HIS     CA  350  -1.161  -0.066   1.223
   21HIS     HA  351  -1.253  -0.100   1.236
   21HIS     CB  352  -1.061  -0.173   1.268
   21HIS    HB1  353  -0.973  -0.130   1.291
   21HIS    HB2  354  -1.047  -0.239   1.193
   21HIS     CG  355  -1.110  -0.248   1.389
   21HIS    ND1  356  -1.218  -0.334   1.391
   21HIS    CE1  357  -1.232  -0.381   1.516
   21HIS    HE1  358  -1.303  -0.445   1.546
   21HIS    NE2  359  -1.136  -0.331   1.595
   21HIS    HE2  360  -1.121  -0.351   1.692
   21HIS    CD2  361  -1.059  -0.245   1.516
   21HIS    HD2  362  -0.981  -0.190   1.546
   21HIS      C  363  -1.154   0.062   1.307
   21HIS      O  364  -1.075   0.075   1.400
   22ARG      N  365  -1.238   0.161   1.273
   22ARG      H  366  -1.279   0.160   1.182
   22ARG     CA  367  -1.270   0.271   1.365
   22ARG     HA  368  -1.263   0.236   1.458
   22ARG     CB  369  -1.165   0.384   1.353
   22ARG    HB1  370  -1.196   0.451   1.286
   22ARG    HB2  371  -1.078   0.345   1.324
   22ARG     CG  372  -1.145   0.454   1.488
   22ARG    HG1  373  -1.122   0.385   1.558
   22ARG    HG2  374  -1.230   0.500   1.514
   22ARG     CD  375  -1.033   0.557   1.480
   22ARG    HD1  376  -1.053   0.623   1.407
   22ARG    HD2  377  -0.946   0.511   1.460
   22ARG     NE  378  -1.018   0.631   1.607
   22ARG     HE  379  -1.080   0.605   1.681
   22ARG     CZ  380  -0.931   0.727   1.632
   22ARG    NH1  381  -0.843   0.765   1.543
   22ARG   HH11  382  -0.840   0.721   1.454
   22ARG   HH12  383  -0.779   0.838   1.565
   22ARG    NH2  384  -0.932   0.788   1.747
   22ARG   HH21  385  -0.998   0.762   1.817
   22ARG   HH22  386  -0.866   0.861   1.765
   22ARG      C  387  -1.415   0.313   1.347
   22ARG      O  388  -1.445   0.428   1.314
   23GLY      N  389  -1.505   0.216   1.360
   23GLY      H  390  -1.473   0.121   1.356
   23GLY     CA  391  -1.647   0.240   1.380
   23GLY    HA1  392  -1.699   0.175   1.326
   23GLY    HA2  393  -1.669   0.333   1.350
   23GLY      C  394  -1.678   0.223   1.529
   23GLY      O  395  -1.648   0.117   1.581
   24TYR      N  396  -1.735   0.329   1.587
   24TYR      H  397  -1.721   0.416   1.540
   24TYR     CA  398  -1.813   0.338   1.712
   24TYR     HA  399  -1.807   0.435   1.732
   24TYR     CB  400  -1.957   0.293   1.682
   24TYR    HB1  401  -2.005   0.280   1.769
   24TYR    HB2  402  -1.955   0.207   1.632
   24TYR     CG  403  -2.032   0.397   1.600
   24TYR    CD1  404  -2.102   0.499   1.666
   24TYR    HD1  405  -2.105   0.501   1.766
   24TYR    CE1  406  -2.169   0.598   1.592
   24TYR    HE1  407  -2.220   0.670   1.640
   24TYR     CZ  408  -2.164   0.596   1.451
   24TYR     OH  409  -2.228   0.692   1.379
   24TYR     HH  410  -2.214   0.675   1.282
   24TYR    CE2  411  -2.091   0.495   1.385
   24TYR    HE2  412  -2.087   0.494   1.285
   24TYR    CD2  413  -2.026   0.395   1.459
   24TYR    HD2  414  -1.975   0.323   1.412
   24TYR      C  415  -1.756   0.280   1.842
   24TYR    OC1  416  -1.735   0.366   1.930
   24TYR    OC2  417  -1.738   0.158   1.854
   3.45037   1.87480   4.12188
