Protein in water
51192
    1ASP      N    1   5.236   5.720   1.393
    1ASP     H1    2   5.279   5.717   1.483
    1ASP     H2    3   5.237   5.629   1.352
    1ASP     H3    4   5.286   5.784   1.335
    1ASP     CA    5   5.096   5.766   1.407
    1ASP     HA    6   5.105   5.858   1.445
    1ASP     CB    7   5.030   5.771   1.270
    1ASP    HB1    8   4.985   5.684   1.250
    1ASP    HB2    9   5.099   5.789   1.199
    1ASP     CG   10   4.929   5.884   1.273
    1ASP    OD1   11   4.977   5.996   1.298
    1ASP    OD2   12   4.808   5.852   1.266
    1ASP      C   13   5.012   5.690   1.511
    1ASP      O   14   4.925   5.748   1.575
    2SER      N   15   5.037   5.561   1.539
    2SER      H   16   5.119   5.519   1.500
    2SER     CA   17   4.948   5.479   1.625
    2SER     HA   18   4.860   5.528   1.616
    2SER     CB   19   4.941   5.336   1.570
    2SER    HB1   20   4.871   5.283   1.618
    2SER    HB2   21   5.030   5.290   1.578
    2SER     OG   22   4.907   5.342   1.433
    2SER     HG   23   4.902   5.249   1.396
    2SER      C   24   4.977   5.479   1.776
    2SER      O   25   4.909   5.408   1.850
    3HIS      N   26   5.074   5.556   1.826
    3HIS      H   27   5.126   5.615   1.764
    3HIS     CA   28   5.107   5.557   1.970
    3HIS     HA   29   5.090   5.464   2.001
    3HIS     CB   30   5.256   5.590   1.989
    3HIS    HB1   31   5.269   5.688   1.979
    3HIS    HB2   32   5.309   5.542   1.920
    3HIS     CG   33   5.307   5.549   2.125
    3HIS    ND1   34   5.305   5.421   2.178
    3HIS    CE1   35   5.359   5.425   2.301
    3HIS    HE1   36   5.370   5.346   2.361
    3HIS    NE2   37   5.396   5.550   2.330
    3HIS    HE2   38   5.438   5.581   2.416
    3HIS    CD2   39   5.365   5.629   2.220
    3HIS    HD2   40   5.382   5.727   2.211
    3HIS      C   41   5.014   5.648   2.053
    3HIS      O   42   4.981   5.615   2.167
    4ALA      N   43   4.959   5.755   1.993
    4ALA      H   44   4.982   5.772   1.897
    4ALA     CA   45   4.869   5.849   2.061
    4ALA     HA   46   4.912   5.869   2.149
    4ALA     CB   47   4.859   5.975   1.974
    4ALA    HB1   48   4.798   6.041   2.018
    4ALA    HB2   49   4.950   6.015   1.963
    4ALA    HB3   50   4.822   5.950   1.884
    4ALA      C   51   4.730   5.790   2.092
    4ALA      O   52   4.668   5.824   2.192
    5LYS      N   53   4.683   5.694   2.011
    5LYS      H   54   4.741   5.664   1.935
    5LYS     CA   55   4.551   5.630   2.029
    5LYS     HA   56   4.488   5.706   2.044
    5LYS     CB   57   4.513   5.553   1.901
    5LYS    HB1   58   4.431   5.498   1.919
    5LYS    HB2   59   4.589   5.492   1.876
    5LYS     CG   60   4.484   5.648   1.784
    5LYS    HG1   61   4.568   5.700   1.764
    5LYS    HG2   62   4.412   5.711   1.812
    5LYS     CD   63   4.440   5.574   1.657
    5LYS    HD1   64   4.357   5.522   1.676
    5LYS    HD2   65   4.513   5.512   1.628
    5LYS     CE   66   4.413   5.677   1.546
    5LYS    HE1   67   4.494   5.734   1.533
    5LYS    HE2   68   4.336   5.736   1.573
    5LYS     NZ   69   4.379   5.615   1.416
    5LYS    HZ1   70   4.362   5.686   1.348
    5LYS    HZ2   71   4.455   5.557   1.386
    5LYS    HZ3   72   4.297   5.559   1.426
    5LYS      C   73   4.543   5.540   2.152
    5LYS      O   74   4.437   5.526   2.212
    6ARG      N   75   4.657   5.485   2.196
    6ARG      H   76   4.742   5.504   2.147
    6ARG     CA   77   4.662   5.399   2.315
    6ARG     HA   78   4.582   5.339   2.312
    6ARG     CB   79   4.789   5.312   2.308
    6ARG    HB1   80   4.863   5.361   2.355
    6ARG    HB2   81   4.813   5.298   2.212
    6ARG     CG   82   4.772   5.174   2.375
    6ARG    HG1   83   4.685   5.134   2.346
    6ARG    HG2   84   4.772   5.185   2.474
    6ARG     CD   85   4.887   5.081   2.334
    6ARG    HD1   86   4.975   5.128   2.349
    6ARG    HD2   87   4.879   5.057   2.238
    6ARG     NE   88   4.889   4.956   2.413
    6ARG     HE   89   4.853   4.962   2.506
    6ARG     CZ   90   4.931   4.837   2.373
    6ARG    NH1   91   4.971   4.813   2.251
    6ARG   HH11   92   4.971   4.887   2.184
    6ARG   HH12   93   5.002   4.722   2.226
    6ARG    NH2   94   4.934   4.737   2.457
    6ARG   HH21   95   4.905   4.751   2.552
    6ARG   HH22   96   4.966   4.648   2.427
    6ARG      C   97   4.646   5.479   2.444
    6ARG      O   98   4.598   5.423   2.542
    7HIS      N   99   4.675   5.610   2.443
    7HIS      H  100   4.701   5.651   2.355
    7HIS     CA  101   4.672   5.696   2.561
    7HIS     HA  102   4.701   5.636   2.635
    7HIS     CB  103   4.773   5.812   2.544
    7HIS    HB1  104   4.723   5.898   2.546
    7HIS    HB2  105   4.818   5.802   2.455
    7HIS     CG  106   4.879   5.817   2.651
    7HIS    ND1  107   4.895   5.917   2.744
    7HIS    CE1  108   5.009   5.893   2.812
    7HIS    HE1  109   5.048   5.953   2.882
    7HIS    NE2  110   5.061   5.776   2.773
    7HIS    HE2  111   5.140   5.729   2.814
    7HIS    CD2  112   4.985   5.731   2.665
    7HIS    HD2  113   5.004   5.651   2.609
    7HIS      C  114   4.532   5.744   2.603
    7HIS      O  115   4.505   5.761   2.722
    8HIS      N  116   4.441   5.760   2.507
    8HIS      H  117   4.467   5.740   2.413
    8HIS     CA  118   4.304   5.804   2.535
    8HIS     HA  119   4.311   5.866   2.612
    8HIS     CB  120   4.249   5.877   2.412
    8HIS    HB1  121   4.149   5.880   2.417
    8HIS    HB2  122   4.277   5.828   2.329
    8HIS     CG  123   4.301   6.018   2.404
    8HIS    ND1  124   4.254   6.125   2.476
    8HIS    CE1  125   4.327   6.233   2.444
    8HIS    HE1  126   4.313   6.325   2.481
    8HIS    NE2  127   4.421   6.200   2.355
    8HIS    HE2  128   4.490   6.261   2.315
    8HIS    CD2  129   4.405   6.064   2.327
    8HIS    HD2  130   4.460   6.010   2.263
    8HIS      C  131   4.211   5.691   2.582
    8HIS      O  132   4.115   5.716   2.655
    9GLY      N  133   4.240   5.565   2.546
    9GLY      H  134   4.321   5.549   2.490
    9GLY     CA  135   4.160   5.449   2.586
    9GLY    HA1  136   4.185   5.373   2.526
    9GLY    HA2  137   4.064   5.473   2.570
    9GLY      C  138   4.178   5.408   2.732
    9GLY      O  139   4.081   5.375   2.800
   10TYR      N  140   4.301   5.412   2.785
   10TYR      H  141   4.377   5.448   2.730
   10TYR     CA  142   4.329   5.366   2.922
   10TYR     HA  143   4.266   5.289   2.934
   10TYR     CB  144   4.474   5.317   2.934
   10TYR    HB1  145   4.495   5.260   2.855
   10TYR    HB2  146   4.481   5.261   3.017
   10TYR     CG  147   4.578   5.426   2.943
   10TYR    CD1  148   4.670   5.445   2.838
   10TYR    HD1  149   4.666   5.386   2.757
   10TYR    CE1  150   4.768   5.545   2.849
   10TYR    HE1  151   4.837   5.555   2.777
   10TYR     CZ  152   4.768   5.632   2.959
   10TYR     OH  153   4.855   5.734   2.971
   10TYR     HH  154   4.837   5.783   3.057
   10TYR    CE2  155   4.682   5.607   3.067
   10TYR    HE2  156   4.687   5.664   3.149
   10TYR    CD2  157   4.590   5.503   3.060
   10TYR    HD2  158   4.532   5.482   3.139
   10TYR      C  159   4.292   5.470   3.029
   10TYR      O  160   4.252   5.432   3.139
   11LYS      N  161   4.303   5.601   2.999
   11LYS      H  162   4.332   5.627   2.907
   11LYS     CA  163   4.272   5.708   3.097
   11LYS     HA  164   4.322   5.680   3.179
   11LYS     CB  165   4.323   5.844   3.047
   11LYS    HB1  166   4.277   5.917   3.098
   11LYS    HB2  167   4.302   5.853   2.949
   11LYS     CG  168   4.475   5.860   3.066
   11LYS    HG1  169   4.522   5.803   2.998
   11LYS    HG2  170   4.499   5.828   3.158
   11LYS     CD  171   4.521   6.005   3.051
   11LYS    HD1  172   4.462   6.065   3.105
   11LYS    HD2  173   4.516   6.031   2.954
   11LYS     CE  174   4.666   6.019   3.100
   11LYS    HE1  175   4.727   5.967   3.040
   11LYS    HE2  176   4.673   5.984   3.193
   11LYS     NZ  177   4.711   6.161   3.099
   11LYS    HZ1  178   4.806   6.166   3.132
   11LYS    HZ2  179   4.706   6.197   3.007
   11LYS    HZ3  180   4.653   6.214   3.160
   11LYS      C  181   4.124   5.717   3.131
   11LYS      O  182   4.090   5.754   3.244
   12ARG      N  183   4.037   5.678   3.037
   12ARG      H  184   4.074   5.650   2.949
   12ARG     CA  185   3.891   5.674   3.055
   12ARG     HA  186   3.865   5.764   3.090
   12ARG     CB  187   3.825   5.647   2.919
   12ARG    HB1  188   3.763   5.569   2.929
   12ARG    HB2  189   3.896   5.625   2.852
   12ARG     CG  190   3.744   5.768   2.869
   12ARG    HG1  191   3.804   5.848   2.869
   12ARG    HG2  192   3.667   5.783   2.931
   12ARG     CD  193   3.690   5.746   2.727
   12ARG    HD1  194   3.765   5.750   2.661
   12ARG    HD2  195   3.623   5.816   2.705
   12ARG     NE  196   3.624   5.614   2.714
   12ARG     HE  197   3.673   5.537   2.756
   12ARG     CZ  198   3.511   5.584   2.654
   12ARG    NH1  199   3.439   5.673   2.590
   12ARG   HH11  200   3.470   5.768   2.586
   12ARG   HH12  201   3.354   5.646   2.546
   12ARG    NH2  202   3.466   5.462   2.658
   12ARG   HH21  203   3.517   5.391   2.706
   12ARG   HH22  204   3.379   5.439   2.612
   12ARG      C  205   3.848   5.572   3.160
   12ARG      O  206   3.768   5.604   3.247
   13LYS      N  207   3.908   5.452   3.159
   13LYS      H  208   3.979   5.436   3.090
   13LYS     CA  209   3.876   5.345   3.254
   13LYS     HA  210   3.777   5.337   3.254
   13LYS     CB  211   3.941   5.214   3.204
   13LYS    HB1  212   4.040   5.219   3.218
   13LYS    HB2  213   3.921   5.203   3.107
   13LYS     CG  214   3.887   5.091   3.280
   13LYS    HG1  215   3.787   5.091   3.275
   13LYS    HG2  216   3.915   5.097   3.375
   13LYS     CD  217   3.939   4.960   3.220
   13LYS    HD1  218   4.039   4.956   3.230
   13LYS    HD2  219   3.915   4.955   3.123
   13LYS     CE  220   3.876   4.842   3.295
   13LYS    HE1  221   3.776   4.847   3.287
   13LYS    HE2  222   3.902   4.846   3.392
   13LYS     NZ  223   3.920   4.711   3.242
   13LYS    HZ1  224   3.877   4.637   3.294
   13LYS    HZ2  225   3.895   4.703   3.145
   13LYS    HZ3  226   4.020   4.703   3.250
   13LYS      C  227   3.916   5.378   3.398
   13LYS      O  228   3.854   5.330   3.492
   14PHE      N  229   4.019   5.462   3.417
   14PHE      H  230   4.068   5.496   3.336
   14PHE     CA  231   4.064   5.504   3.550
   14PHE     HA  232   4.056   5.423   3.608
   14PHE     CB  233   4.211   5.548   3.543
   14PHE    HB1  234   4.217   5.631   3.488
   14PHE    HB2  235   4.264   5.475   3.500
   14PHE     CG  236   4.271   5.578   3.679
   14PHE    CD1  237   4.286   5.711   3.722
   14PHE    HD1  238   4.259   5.786   3.662
   14PHE    CE1  239   4.340   5.738   3.850
   14PHE    HE1  240   4.351   5.833   3.880
   14PHE     CZ  241   4.377   5.632   3.934
   14PHE     HZ  242   4.415   5.652   4.025
   14PHE    CE2  243   4.362   5.499   3.892
   14PHE    HE2  244   4.388   5.424   3.952
   14PHE    CD2  245   4.308   5.472   3.765
   14PHE    HD2  246   4.297   5.377   3.735
   14PHE      C  247   3.973   5.611   3.611
   14PHE      O  248   3.941   5.602   3.728
   15HIS      N  249   3.924   5.708   3.532
   15HIS      H  250   3.950   5.709   3.436
   15HIS     CA  251   3.834   5.813   3.583
   15HIS     HA  252   3.873   5.840   3.671
   15HIS     CB  253   3.833   5.932   3.485
   15HIS    HB1  254   3.756   5.992   3.508
   15HIS    HB2  255   3.821   5.897   3.392
   15HIS     CG  256   3.960   6.012   3.491
   15HIS    ND1  257   4.079   5.980   3.430
   15HIS    HD1  258   4.096   5.901   3.371
   15HIS    CE1  259   4.169   6.073   3.464
   15HIS    HE1  260   4.265   6.074   3.435
   15HIS    NE2  261   4.113   6.166   3.543
   15HIS    CD2  262   3.980   6.128   3.561
   15HIS    HD2  263   3.912   6.176   3.616
   15HIS      C  264   3.692   5.762   3.610
   15HIS      O  265   3.625   5.811   3.701
   16GLU      N  266   3.647   5.660   3.538
   16GLU      H  267   3.707   5.621   3.468
   16GLU     CA  268   3.514   5.600   3.556
   16GLU     HA  269   3.448   5.676   3.558
   16GLU     CB  270   3.488   5.508   3.436
   16GLU    HB1  271   3.540   5.423   3.451
   16GLU    HB2  272   3.522   5.553   3.354
   16GLU     CG  273   3.342   5.471   3.414
   16GLU    HG1  274   3.285   5.553   3.416
   16GLU    HG2  275   3.311   5.408   3.486
   16GLU     CD  276   3.328   5.402   3.278
   16GLU    OE1  277   3.338   5.278   3.273
   16GLU    OE2  278   3.319   5.475   3.176
   16GLU      C  279   3.498   5.528   3.692
   16GLU      O  280   3.388   5.518   3.745
   17LYS      N  281   3.608   5.485   3.754
   17LYS      H  282   3.697   5.504   3.712
   17LYS     CA  283   3.606   5.410   3.881
   17LYS     HA  284   3.528   5.349   3.874
   17LYS     CB  285   3.737   5.331   3.894
   17LYS    HB1  286   3.812   5.394   3.917
   17LYS    HB2  287   3.757   5.286   3.807
   17LYS     CG  288   3.730   5.222   4.003
   17LYS    HG1  289   3.649   5.165   3.986
   17LYS    HG2  290   3.720   5.267   4.092
   17LYS     CD  291   3.853   5.132   4.006
   17LYS    HD1  292   3.935   5.187   4.023
   17LYS    HD2  293   3.863   5.085   3.919
   17LYS     CE  294   3.835   5.030   4.120
   17LYS    HE1  295   3.756   4.972   4.099
   17LYS    HE2  296   3.819   5.078   4.206
   17LYS     NZ  297   3.954   4.943   4.137
   17LYS    HZ1  298   3.937   4.878   4.212
   17LYS    HZ2  299   3.971   4.892   4.053
   17LYS    HZ3  300   4.033   4.999   4.159
   17LYS      C  301   3.576   5.498   4.005
   17LYS      O  302   3.548   5.444   4.111
   18HIS      N  303   3.581   5.631   3.994
   18HIS      H  304   3.588   5.671   3.902
   18HIS     CA  305   3.575   5.721   4.110
   18HIS     HA  306   3.581   5.661   4.189
   18HIS     CB  307   3.696   5.816   4.106
   18HIS    HB1  308   3.683   5.889   4.173
   18HIS    HB2  309   3.704   5.855   4.014
   18HIS     CG  310   3.825   5.744   4.139
   18HIS    ND1  311   3.875   5.722   4.265
   18HIS    CE1  312   3.988   5.651   4.253
   18HIS    HE1  313   4.046   5.623   4.330
   18HIS    NE2  314   4.013   5.624   4.125
   18HIS    HE2  315   4.090   5.571   4.088
   18HIS    CD2  316   3.910   5.684   4.051
   18HIS    HD2  317   3.901   5.683   3.952
   18HIS      C  318   3.441   5.794   4.129
   18HIS      O  319   3.430   5.877   4.219
   19HIS      N  320   3.337   5.762   4.051
   19HIS      H  321   3.347   5.685   3.987
   19HIS     CA  322   3.209   5.834   4.055
   19HIS     HA  323   3.228   5.911   4.116
   19HIS     CB  324   3.175   5.883   3.913
   19HIS    HB1  325   3.079   5.913   3.911
   19HIS    HB2  326   3.188   5.808   3.848
   19HIS     CG  327   3.262   5.999   3.871
   19HIS    ND1  328   3.264   6.123   3.930
   19HIS    CE1  329   3.355   6.198   3.866
   19HIS    HE1  330   3.377   6.293   3.889
   19HIS    NE2  331   3.412   6.128   3.767
   19HIS    HE2  332   3.483   6.160   3.704
   19HIS    CD2  333   3.354   6.001   3.770
   19HIS    HD2  334   3.375   5.925   3.708
   19HIS      C  335   3.092   5.761   4.124
   19HIS      O  336   2.983   5.817   4.129
   20SER      N  337   3.111   5.642   4.183
   20SER      H  338   3.205   5.608   4.194
   20SER     CA  339   2.999   5.560   4.231
   20SER     HA  340   2.920   5.619   4.215
   20SER     CB  341   2.990   5.431   4.148
   20SER    HB1  342   2.986   5.452   4.051
   20SER    HB2  343   2.910   5.377   4.175
   20SER     OG  344   3.104   5.352   4.170
   20SER     HG  345   3.098   5.268   4.116
   20SER      C  346   2.993   5.533   4.382
   20SER      O  347   2.920   5.443   4.423
   21HIS      N  348   3.064   5.607   4.468
   21HIS      H  349   3.125   5.679   4.432
   21HIS     CA  350   3.055   5.585   4.614
   21HIS     HA  351   2.963   5.551   4.627
   21HIS     CB  352   3.155   5.478   4.659
   21HIS    HB1  353   3.243   5.521   4.682
   21HIS    HB2  354   3.169   5.412   4.584
   21HIS     CG  355   3.106   5.403   4.780
   21HIS    ND1  356   2.998   5.317   4.782
   21HIS    CE1  357   2.984   5.270   4.907
   21HIS    HE1  358   2.913   5.206   4.937
   21HIS    NE2  359   3.080   5.320   4.986
   21HIS    HE2  360   3.095   5.300   5.083
   21HIS    CD2  361   3.157   5.406   4.907
   21HIS    HD2  362   3.235   5.461   4.937
   21HIS      C  363   3.062   5.713   4.698
   21HIS      O  364   3.141   5.726   4.791
   22ARG      N  365   2.978   5.812   4.664
   22ARG      H  366   2.937   5.811   4.573
   22ARG     CA  367   2.946   5.922   4.756
   22ARG     HA  368   2.953   5.887   4.849
   22ARG     CB  369   3.051   6.035   4.744
   22ARG    HB1  370   3.020   6.102   4.677
   22ARG    HB2  371   3.138   5.996   4.715
   22ARG     CG  372   3.071   6.105   4.879
   22ARG    HG1  373   3.094   6.036   4.949
   22ARG    HG2  374   2.986   6.151   4.905
   22ARG     CD  375   3.183   6.208   4.871
   22ARG    HD1  376   3.163   6.274   4.798
   22ARG    HD2  377   3.270   6.162   4.851
   22ARG     NE  378   3.198   6.282   4.998
   22ARG     HE  379   3.136   6.256   5.072
   22ARG     CZ  380   3.285   6.378   5.023
   22ARG    NH1  381   3.373   6.416   4.934
   22ARG   HH11  382   3.376   6.372   4.845
   22ARG   HH12  383   3.437   6.489   4.956
   22ARG    NH2  384   3.284   6.439   5.138
   22ARG   HH21  385   3.218   6.413   5.208
   22ARG   HH22  386   3.350   6.512   5.156
   22ARG      C  387   2.801   5.964   4.738
   22ARG      O  388   2.771   6.079   4.705
   23GLY      N  389   2.711   5.867   4.751
   23GLY      H  390   2.743   5.772   4.747
   23GLY     CA  391   2.569   5.891   4.771
   23GLY    HA1  392   2.517   5.826   4.717
   23GLY    HA2  393   2.547   5.984   4.741
   23GLY      C  394   2.538   5.874   4.920
   23GLY      O  395   2.568   5.768   4.972
   24TYR      N  396   2.481   5.980   4.978
   24TYR      H  397   2.495   6.067   4.931
   24TYR     CA  398   2.403   5.989   5.103
   24TYR     HA  399   2.409   6.086   5.123
   24TYR     CB  400   2.259   5.944   5.073
   24TYR    HB1  401   2.211   5.931   5.160
   24TYR    HB2  402   2.261   5.858   5.023
   24TYR     CG  403   2.184   6.048   4.991
   24TYR    CD1  404   2.114   6.150   5.057
   24TYR    HD1  405   2.111   6.152   5.157
   24TYR    CE1  406   2.047   6.249   4.983
   24TYR    HE1  407   1.996   6.321   5.031
   24TYR     CZ  408   2.052   6.247   4.842
   24TYR     OH  409   1.988   6.343   4.770
   24TYR     HH  410   2.002   6.326   4.673
   24TYR    CE2  411   2.125   6.146   4.776
   24TYR    HE2  412   2.129   6.145   4.676
   24TYR    CD2  413   2.190   6.046   4.850
   24TYR    HD2  414   2.241   5.974   4.803
   24TYR      C  415   2.460   5.931   5.233
   24TYR    OC1  416   2.481   6.017   5.321
   24TYR    OC2  417   2.478   5.809   5.245
   25SOL     OW  418   1.736   0.839   0.257
   25SOL    HW2  419   1.777   0.781   0.322
   25SOL    HW3  420   1.643   0.831   0.274
   25SOL    MW4  421   1.730   0.831   0.267
   26SOL     OW  422   1.602   0.771   1.252
   26SOL    HW2  423   1.557   0.838   1.303
   26SOL    HW3  424   1.690   0.807   1.238
   26SOL    MW4  425   1.608   0.784   1.256
   27SOL     OW  426   0.530   1.022   0.486
   27SOL    HW2  427   0.620   0.997   0.470
   27SOL    HW3  428   0.526   1.115   0.463
   27SOL    MW4  429   0.542   1.031   0.481
   28SOL     OW  430   1.025   1.610   1.629
   28SOL    HW2  431   1.066   1.646   1.550
   28SOL    HW3  432   1.060   1.521   1.636
   28SOL    MW4  433   1.036   1.603   1.620
   29SOL     OW  434   1.582   1.165   1.233
   29SOL    HW2  435   1.503   1.130   1.191
   29SOL    HW3  436   1.609   1.237   1.177
   29SOL    MW4  437   1.575   1.170   1.220
   30SOL     OW  438   0.814   0.478   0.499
   30SOL    HW2  439   0.789   0.566   0.527
   30SOL    HW3  440   0.811   0.481   0.403
   30SOL    MW4  441   0.810   0.490   0.491
   31SOL     OW  442   0.256   0.506   0.427
   31SOL    HW2  443   0.288   0.594   0.409
   31SOL    HW3  444   0.244   0.504   0.522
   31SOL    MW4  445   0.259   0.518   0.439
   32SOL     OW  446   0.334   0.919   1.328
   32SOL    HW2  447   0.397   0.866   1.279
   32SOL    HW3  448   0.315   0.993   1.271
   32SOL    MW4  449   0.340   0.921   1.315
   33SOL     OW  450   0.655   0.261   0.514
   33SOL    HW2  451   0.713   0.337   0.516
   33SOL    HW3  452   0.590   0.282   0.447
   33SOL    MW4  453   0.654   0.273   0.505
   34SOL     OW  454   0.742   1.188   0.689
   34SOL    HW2  455   0.822   1.191   0.741
   34SOL    HW3  456   0.770   1.155   0.603
   34SOL    MW4  457   0.756   1.184   0.684
   35SOL     OW  458   0.767   1.529   1.592
   35SOL    HW2  459   0.851   1.555   1.631
   35SOL    HW3  460   0.791   1.473   1.518
   35SOL    MW4  461   0.781   1.525   1.587
   36SOL     OW  462   0.519   0.692   0.680
   36SOL    HW2  463   0.504   0.612   0.731
   36SOL    HW3  464   0.601   0.727   0.714
   36SOL    MW4  465   0.527   0.684   0.692
   37SOL     OW  466   0.856   1.378   1.365
   37SOL    HW2  467   0.820   1.444   1.305
   37SOL    HW3  468   0.784   1.316   1.378
   37SOL    MW4  469   0.842   1.378   1.359
   38SOL     OW  470   0.661   0.518   1.057
   38SOL    HW2  471   0.567   0.514   1.075
   38SOL    HW3  472   0.691   0.427   1.066
   38SOL    MW4  473   0.652   0.506   1.060
   39SOL     OW  474   0.407   0.932   0.961
   39SOL    HW2  475   0.362   0.939   0.877
   39SOL    HW3  476   0.387   1.015   1.005
   39SOL    MW4  477   0.399   0.944   0.955
   40SOL     OW  478   0.104   1.778   0.836
   40SOL    HW2  479   0.193   1.770   0.871
   40SOL    HW3  480   0.068   1.690   0.841
   40SOL    MW4  481   0.111   1.765   0.841
   41SOL     OW  482   1.369   1.170   0.205
   41SOL    HW2  483   1.287   1.206   0.171
   41SOL    HW3  484   1.437   1.213   0.154
   41SOL    MW4  485   1.367   1.180   0.193
   42SOL     OW  486   0.368   1.305   0.871
   42SOL    HW2  487   0.344   1.358   0.947
   42SOL    HW3  488   0.424   1.363   0.819
   42SOL    MW4  489   0.372   1.320   0.874
   43SOL     OW  490   0.930   0.949   0.681
   43SOL    HW2  491   0.844   0.936   0.721
   43SOL    HW3  492   0.983   0.876   0.713
   43SOL    MW4  493   0.926   0.938   0.690
   44SOL     OW  494   0.338   1.601   1.466
   44SOL    HW2  495   0.246   1.577   1.451
   44SOL    HW3  496   0.382   1.518   1.483
   44SOL    MW4  497   0.332   1.586   1.465
   45SOL     OW  498   0.921   1.311   0.398
   45SOL    HW2  499   0.898   1.373   0.466
   45SOL    HW3  500   0.878   1.229   0.424
   45SOL    MW4  501   0.913   1.307   0.409
   46SOL     OW  502   1.794   0.312   0.854
   46SOL    HW2  503   1.731   0.292   0.923
   46SOL    HW3  504   1.784   0.241   0.791
   46SOL    MW4  505   1.784   0.299   0.855
   47SOL     OW  506   0.253   1.245   0.403
   47SOL    HW2  507   0.201   1.313   0.359
   47SOL    HW3  508   0.250   1.171   0.343
   47SOL    MW4  509   0.245   1.244   0.390
   48SOL     OW  510   0.915   1.708   0.181
   48SOL    HW2  511   0.870   1.724   0.264
   48SOL    HW3  512   0.846   1.673   0.123
   48SOL    MW4  513   0.901   1.705   0.183
   49SOL     OW  514   1.850   0.481   0.156
   49SOL    HW2  515   1.759   0.483   0.184
   49SOL    HW3  516   1.895   0.543   0.214
   49SOL    MW4  517   1.843   0.489   0.166
   50SOL     OW  518   1.595   1.084   0.506
   50SOL    HW2  519   1.505   1.084   0.541
   50SOL    HW3  520   1.588   1.130   0.423
   50SOL    MW4  521   1.582   1.090   0.500
   51SOL     OW  522   1.395   0.719   1.578
   51SOL    HW2  523   1.464   0.657   1.555
   51SOL    HW3  524   1.320   0.693   1.525
   51SOL    MW4  525   1.395   0.706   1.569
   52SOL     OW  526   0.136   1.599   1.130
   52SOL    HW2  527   0.119   1.545   1.207
   52SOL    HW3  528   0.124   1.689   1.160
   52SOL    MW4  529   0.133   1.603   1.144
   53SOL     OW  530   1.131   1.106   1.570
   53SOL    HW2  531   1.116   1.199   1.555
   53SOL    HW3  532   1.226   1.096   1.570
   53SOL    MW4  533   1.140   1.116   1.567
   54SOL     OW  534   0.927   0.530   1.771
   54SOL    HW2  535   1.017   0.531   1.738
   54SOL    HW3  536   0.886   0.455   1.729
   54SOL    MW4  537   0.933   0.520   1.762
   55SOL     OW  538   1.502   1.062   0.898
   55SOL    HW2  539   1.505   0.996   0.829
   55SOL    HW3  540   1.587   1.105   0.894
   55SOL    MW4  541   1.514   1.058   0.889
   56SOL     OW  542   1.122   0.665   0.467
   56SOL    HW2  543   1.148   0.689   0.378
   56SOL    HW3  544   1.104   0.572   0.463
   56SOL    MW4  545   1.124   0.657   0.454
   57SOL     OW  546   1.787   1.285   0.318
   57SOL    HW2  547   1.743   1.326   0.393
   57SOL    HW3  548   1.844   1.353   0.283
   57SOL    MW4  549   1.789   1.299   0.323
   58SOL     OW  550   0.707   0.334   1.721
   58SOL    HW2  551   0.717   0.260   1.661
   58SOL    HW3  552   0.743   0.303   1.804
   58SOL    MW4  553   0.713   0.320   1.723
   59SOL     OW  554   0.443   1.701   0.636
   59SOL    HW2  555   0.475   1.789   0.614
   59SOL    HW3  556   0.396   1.673   0.558
   59SOL    MW4  557   0.442   1.709   0.623
   60SOL     OW  558   1.827   0.063   0.685
   60SOL    HW2  559   1.881   0.014   0.747
   60SOL    HW3  560   1.770  -0.003   0.646
   60SOL    MW4  561   1.827   0.047   0.687
   61SOL     OW  562   0.159   1.761   0.213
   61SOL    HW2  563   0.188   1.851   0.205
   61SOL    HW3  564   0.109   1.744   0.134
   61SOL    MW4  565   0.157   1.769   0.202
   62SOL     OW  566   0.946   0.016   1.098
   62SOL    HW2  567   0.905   0.094   1.060
   62SOL    HW3  568   1.040   0.034   1.093
   62SOL    MW4  569   0.952   0.028   1.093
   63SOL     OW  570   1.563   1.569   0.184
   63SOL    HW2  571   1.611   1.638   0.230
   63SOL    HW3  572   1.484   1.613   0.153
   63SOL    MW4  573   1.558   1.583   0.187
   64SOL     OW  574   0.961   0.694   0.128
   64SOL    HW2  575   0.963   0.641   0.049
   64SOL    HW3  576   1.049   0.731   0.134
   64SOL    MW4  577   0.973   0.693   0.117
   65SOL     OW  578   1.575   0.620   0.464
   65SOL    HW2  579   1.614   0.620   0.551
   65SOL    HW3  580   1.516   0.696   0.464
   65SOL    MW4  581   1.572   0.631   0.475
   66SOL     OW  582   0.892   0.987   1.593
   66SOL    HW2  583   0.869   0.967   1.683
   66SOL    HW3  584   0.977   1.031   1.598
   66SOL    MW4  585   0.899   0.990   1.605
   67SOL     OW  586   0.972   0.124   1.353
   67SOL    HW2  587   0.978   0.086   1.266
   67SOL    HW3  588   0.961   0.218   1.338
   67SOL    MW4  589   0.973   0.132   1.341
   68SOL     OW  590   1.061   0.613   1.187
   68SOL    HW2  591   1.136   0.642   1.134
   68SOL    HW3  592   0.993   0.678   1.171
   68SOL    MW4  593   1.062   0.625   1.177
   69SOL     OW  594   1.611   0.581   1.464
   69SOL    HW2  595   1.592   0.490   1.443
   69SOL    HW3  596   1.589   0.630   1.385
   69SOL    MW4  597   1.606   0.574   1.451
   70SOL     OW  598   1.753   1.675   1.368
   70SOL    HW2  599   1.681   1.637   1.419
   70SOL    HW3  600   1.770   1.760   1.409
   70SOL    MW4  601   1.747   1.680   1.380
   71SOL     OW  602   1.058   0.319   1.570
   71SOL    HW2  603   1.024   0.358   1.489
   71SOL    HW3  604   1.036   0.227   1.563
   71SOL    MW4  605   1.051   0.312   1.560
   72SOL     OW  606   1.467   1.133   1.646
   72SOL    HW2  607   1.549   1.174   1.676
   72SOL    HW3  608   1.430   1.095   1.726
   72SOL    MW4  609   1.473   1.134   1.661
   73SOL     OW  610   1.762   0.506   0.630
   73SOL    HW2  611   1.851   0.475   0.647
   73SOL    HW3  612   1.705   0.446   0.678
   73SOL    MW4  613   1.765   0.494   0.639
   74SOL     OW  614   0.188   0.220   0.659
   74SOL    HW2  615   0.179   0.160   0.585
   74SOL    HW3  616   0.121   0.191   0.722
   74SOL    MW4  617   0.178   0.207   0.657
   75SOL     OW  618   1.131   1.313   0.220
   75SOL    HW2  619   1.081   1.315   0.302
   75SOL    HW3  620   1.065   1.331   0.152
   75SOL    MW4  621   1.117   1.315   0.222
   76SOL     OW  622   0.135   0.393   1.022
   76SOL    HW2  623   0.107   0.484   1.031
   76SOL    HW3  624   0.072   0.354   0.961
   76SOL    MW4  625   0.122   0.399   1.016
   77SOL     OW  626   0.594   1.731   0.328
   77SOL    HW2  627   0.515   1.689   0.361
   77SOL    HW3  628   0.660   1.714   0.395
   77SOL    MW4  629   0.593   1.723   0.341
   78SOL     OW  630   1.722   1.251   1.725
   78SOL    HW2  631   1.772   1.177   1.757
   78SOL    HW3  632   1.668   1.278   1.800
   78SOL    MW4  633   1.722   1.245   1.738
   79SOL     OW  634   0.730   1.146   0.035
   79SOL    HW2  635   0.652   1.092   0.022
   79SOL    HW3  636   0.701   1.219   0.088
   79SOL    MW4  637   0.716   1.148   0.040
   80SOL     OW  638   1.856   0.886   1.227
   80SOL    HW2  639   1.872   0.924   1.140
   80SOL    HW3  640   1.890   0.952   1.288
   80SOL    MW4  641   1.863   0.899   1.223
   81SOL     OW  642   1.648   1.595   0.896
   81SOL    HW2  643   1.677   1.662   0.957
   81SOL    HW3  644   1.629   1.519   0.951
   81SOL    MW4  645   1.650   1.595   0.911
   82SOL     OW  646   1.311   1.662   0.103
   82SOL    HW2  647   1.237   1.625   0.153
   82SOL    HW3  648   1.319   1.752   0.136
   82SOL    MW4  649   1.302   1.669   0.115
   83SOL     OW  650   0.119   0.668   1.192
   83SOL    HW2  651   0.181   0.698   1.258
   83SOL    HW3  652   0.053   0.737   1.186
   83SOL    MW4  653   0.118   0.681   1.199
   84SOL     OW  654   1.535   1.336   0.045
   84SOL    HW2  655   1.482   1.385  -0.019
   84SOL    HW3  656   1.566   1.402   0.106
   84SOL    MW4  657   1.533   1.350   0.043
   85SOL     OW  658   0.760   0.225   0.100
   85SOL    HW2  659   0.708   0.145   0.088
   85SOL    HW3  660   0.847   0.202   0.068
   85SOL    MW4  661   0.763   0.211   0.094
   86SOL     OW  662   0.214   1.777   1.644
   86SOL    HW2  663   0.188   1.845   1.582
   86SOL    HW3  664   0.262   1.714   1.592
   86SOL    MW4  665   0.216   1.777   1.630
   87SOL     OW  666   0.266   1.096   1.151
   87SOL    HW2  667   0.319   1.171   1.176
   87SOL    HW3  668   0.185   1.134   1.117
   87SOL    MW4  669   0.262   1.111   1.151
   88SOL     OW  670   0.806   1.000   1.139
   88SOL    HW2  671   0.834   0.909   1.151
   88SOL    HW3  672   0.735   0.994   1.075
   88SOL    MW4  673   0.799   0.988   1.134
   89SOL     OW  674   0.121   0.865   0.557
   89SOL    HW2  675   0.212   0.880   0.584
   89SOL    HW3  676   0.124   0.786   0.503
   89SOL    MW4  677   0.133   0.857   0.555
   90SOL     OW  678   0.357   0.573   1.811
   90SOL    HW2  679   0.304   0.653   1.818
   90SOL    HW3  680   0.427   0.585   1.876
   90SOL    MW4  681   0.359   0.586   1.819
   91SOL     OW  682   0.743   0.123   1.518
   91SOL    HW2  683   0.720   0.031   1.520
   91SOL    HW3  684   0.829   0.125   1.475
   91SOL    MW4  685   0.750   0.113   1.514
   92SOL     OW  686   0.427   0.647   1.557
   92SOL    HW2  687   0.507   0.697   1.543
   92SOL    HW3  688   0.418   0.641   1.652
   92SOL    MW4  689   0.436   0.653   1.567
   93SOL     OW  690   0.748   1.797   0.931
   93SOL    HW2  691   0.837   1.812   0.961
   93SOL    HW3  692   0.743   1.844   0.847
   93SOL    MW4  693   0.758   1.805   0.924
   94SOL     OW  694   1.404   0.172   1.828
   94SOL    HW2  695   1.460   0.099   1.854
   94SOL    HW3  696   1.374   0.210   1.910
   94SOL    MW4  697   1.408   0.167   1.841
   95SOL     OW  698   0.129   1.477   0.596
   95SOL    HW2  699   0.101   1.516   0.678
   95SOL    HW3  700   0.149   1.386   0.618
   95SOL    MW4  701   0.127   1.469   0.609
   96SOL     OW  702   0.962   1.520   0.631
   96SOL    HW2  703   1.045   1.474   0.615
   96SOL    HW3  704   0.952   1.519   0.727
   96SOL    MW4  705   0.972   1.513   0.641
   97SOL     OW  706   1.794   0.665   0.945
   97SOL    HW2  707   1.883   0.695   0.927
   97SOL    HW3  708   1.774   0.605   0.874
   97SOL    MW4  709   1.803   0.662   0.934
   98SOL     OW  710   1.645   0.844   1.825
   98SOL    HW2  711   1.700   0.768   1.806
   98SOL    HW3  712   1.647   0.852   1.920
   98SOL    MW4  713   1.653   0.835   1.833
   99SOL     OW  714   0.695   1.577   0.036
   99SOL    HW2  715   0.635   1.646   0.006
   99SOL    HW3  716   0.640   1.519   0.089
   99SOL    MW4  717   0.679   1.579   0.038
  100SOL     OW  718   1.133   0.222   0.259
  100SOL    HW2  719   1.066   0.198   0.196
  100SOL    HW3  720   1.198   0.271   0.208
  100SOL    MW4  721   1.133   0.224   0.244
  101SOL     OW  722   0.940   0.406   1.344
  101SOL    HW2  723   0.859   0.447   1.372
  101SOL    HW3  724   0.987   0.474   1.296
  101SOL    MW4  725   0.935   0.421   1.342
  102SOL     OW  726   1.200   0.744   0.967
  102SOL    HW2  727   1.213   0.838   0.977
  102SOL    HW3  728   1.161   0.734   0.881
  102SOL    MW4  729   1.196   0.755   0.957
  103SOL     OW  730   0.652   0.939   0.771
  103SOL    HW2  731   0.563   0.930   0.804
  103SOL    HW3  732   0.656   1.029   0.739
  103SOL    MW4  733   0.641   0.950   0.771
  104SOL     OW  734   1.451   0.522   0.766
  104SOL    HW2  735   1.396   0.443   0.765
  104SOL    HW3  736   1.433   0.563   0.850
  104SOL    MW4  737   1.441   0.517   0.775
  105SOL     OW  738   0.422   0.209   1.583
  105SOL    HW2  739   0.343   0.227   1.635
  105SOL    HW3  740   0.417   0.271   1.510
  105SOL    MW4  741   0.412   0.219   1.580
  106SOL     OW  742   1.070   0.726   0.723
  106SOL    HW2  743   1.007   0.658   0.747
  106SOL    HW3  744   1.090   0.707   0.631
  106SOL    MW4  745   1.064   0.713   0.715
  107SOL     OW  746   0.326   1.621   0.425
  107SOL    HW2  747   0.287   1.668   0.351
  107SOL    HW3  748   0.260   1.556   0.450
  107SOL    MW4  749   0.313   1.619   0.419
  108SOL     OW  750   0.818   1.030   0.449
  108SOL    HW2  751   0.820   1.004   0.356
  108SOL    HW3  752   0.876   0.967   0.492
  108SOL    MW4  753   0.826   1.019   0.443
  109SOL     OW  754   1.371   1.590   1.221
  109SOL    HW2  755   1.296   1.636   1.259
  109SOL    HW3  756   1.353   1.497   1.238
  109SOL    MW4  757   1.360   1.584   1.229
  110SOL     OW  758   1.375   1.798   0.651
  110SOL    HW2  759   1.318   1.751   0.590
  110SOL    HW3  760   1.461   1.759   0.638
  110SOL    MW4  761   1.378   1.789   0.641
  111SOL     OW  762   1.328   0.274   0.782
  111SOL    HW2  763   1.356   0.206   0.843
  111SOL    HW3  764   1.242   0.245   0.752
  111SOL    MW4  765   1.321   0.261   0.786
  112SOL     OW  766   0.133   1.208   0.716
  112SOL    HW2  767   0.197   1.240   0.779
  112SOL    HW3  768   0.182   1.144   0.664
  112SOL    MW4  769   0.148   1.204   0.717
  113SOL     OW  770   0.633   1.284   1.698
  113SOL    HW2  771   0.681   1.367   1.685
  113SOL    HW3  772   0.690   1.232   1.754
  113SOL    MW4  773   0.647   1.288   1.704
  114SOL     OW  774   0.209   1.526   1.838
  114SOL    HW2  775   0.265   1.450   1.853
  114SOL    HW3  776   0.158   1.504   1.760
  114SOL    MW4  777   0.209   1.513   1.829
  115SOL     OW  778   1.308   0.378   0.117
  115SOL    HW2  779   1.281   0.444   0.053
  115SOL    HW3  780   1.378   0.421   0.167
  115SOL    MW4  781   1.313   0.391   0.114
  116SOL     OW  782   0.976   0.083   0.054
  116SOL    HW2  783   1.032   0.075  -0.024
  116SOL    HW3  784   0.953  -0.007   0.076
  116SOL    MW4  785   0.981   0.070   0.047
  117SOL     OW  786   1.481   0.934   0.259
  117SOL    HW2  787   1.448   1.023   0.249
  117SOL    HW3  788   1.446   0.905   0.344
  117SOL    MW4  789   1.471   0.943   0.270
  118SOL     OW  790   1.094   1.363   1.447
  118SOL    HW2  791   1.005   1.369   1.415
  118SOL    HW3  792   1.138   1.442   1.415
  118SOL    MW4  793   1.089   1.373   1.439
  119SOL     OW  794   0.387   0.031   1.789
  119SOL    HW2  795   0.315  -0.004   1.737
  119SOL    HW3  796   0.445   0.072   1.724
  119SOL    MW4  797   0.385   0.032   1.774
  120SOL     OW  798   0.411   1.521   1.088
  120SOL    HW2  799   0.456   1.583   1.145
  120SOL    HW3  800   0.318   1.540   1.101
  120SOL    MW4  801   0.404   1.531   1.095
  121SOL     OW  802   1.851   1.050   1.442
  121SOL    HW2  803   1.766   1.063   1.401
  121SOL    HW3  804   1.831   1.014   1.529
  121SOL    MW4  805   1.838   1.046   1.447
  122SOL     OW  806   0.833   1.589   1.196
  122SOL    HW2  807   0.857   1.578   1.105
  122SOL    HW3  808   0.756   1.646   1.194
  122SOL    MW4  809   0.825   1.594   1.185
  123SOL     OW  810   0.475   0.972   0.051
  123SOL    HW2  811   0.398   0.985   0.107
  123SOL    HW3  812   0.439   0.936  -0.030
  123SOL    MW4  813   0.461   0.968   0.048
  124SOL     OW  814   1.128   0.945   0.294
  124SOL    HW2  815   1.038   0.966   0.269
  124SOL    HW3  816   1.155   1.018   0.350
  124SOL    MW4  817   1.120   0.957   0.297
  125SOL     OW  818   0.628   1.294   0.986
  125SOL    HW2  819   0.621   1.273   1.080
  125SOL    HW3  820   0.546   1.262   0.949
  125SOL    MW4  821   0.616   1.288   0.993
  126SOL     OW  822   1.492   0.304   1.388
  126SOL    HW2  823   1.439   0.306   1.468
  126SOL    HW3  824   1.477   0.217   1.351
  126SOL    MW4  825   1.484   0.294   1.393
  127SOL     OW  826   1.828   0.228   1.261
  127SOL    HW2  827   1.809   0.295   1.196
  127SOL    HW3  828   1.885   0.166   1.216
  127SOL    MW4  829   1.832   0.229   1.247
  128SOL     OW  830   0.074   1.386   1.649
  128SOL    HW2  831   0.118   1.319   1.595
  128SOL    HW3  832  -0.011   1.348   1.669
  128SOL    MW4  833   0.069   1.372   1.645
  129SOL     OW  834   0.757   0.061   0.701
  129SOL    HW2  835   0.686   0.122   0.683
  129SOL    HW3  836   0.808   0.058   0.620
  129SOL    MW4  837   0.753   0.067   0.688
  130SOL     OW  838   0.515   1.301   0.450
  130SOL    HW2  839   0.508   1.333   0.540
  130SOL    HW3  840   0.425   1.285   0.422
  130SOL    MW4  841   0.503   1.303   0.457
  131SOL     OW  842   1.110   1.694   1.359
  131SOL    HW2  843   1.030   1.679   1.309
  131SOL    HW3  844   1.117   1.789   1.366
  131SOL    MW4  845   1.101   1.705   1.353
  132SOL     OW  846   1.224   1.659   0.849
  132SOL    HW2  847   1.271   1.732   0.808
  132SOL    HW3  848   1.145   1.698   0.885
  132SOL    MW4  849   1.219   1.674   0.848
  133SOL     OW  850   1.632   1.754   1.124
  133SOL    HW2  851   1.675   1.724   1.204
  133SOL    HW3  852   1.551   1.702   1.121
  133SOL    MW4  853   1.627   1.743   1.134
  134SOL     OW  854   0.717   0.718   1.831
  134SOL    HW2  855   0.787   0.660   1.803
  134SOL    HW3  856   0.660   0.663   1.886
  134SOL    MW4  857   0.719   0.705   1.835
  135SOL     OW  858   1.504   0.930   1.464
  135SOL    HW2  859   1.509   0.983   1.544
  135SOL    HW3  860   1.466   0.847   1.492
  135SOL    MW4  861   1.500   0.925   1.479
  136SOL     OW  862   1.144   0.065   1.710
  136SOL    HW2  863   1.139  -0.028   1.691
  136SOL    HW3  864   1.227   0.076   1.756
  136SOL    MW4  865   1.152   0.054   1.714
  137SOL     OW  866   0.518   0.585   0.164
  137SOL    HW2  867   0.484   0.641   0.234
  137SOL    HW3  868   0.589   0.535   0.204
  137SOL    MW4  869   0.524   0.586   0.178
  138SOL     OW  870   1.614   1.336   0.986
  138SOL    HW2  871   1.649   1.318   0.899
  138SOL    HW3  872   1.519   1.337   0.973
  138SOL    MW4  873   1.606   1.333   0.973
  139SOL     OW  874   1.043   0.984   1.355
  139SOL    HW2  875   1.086   1.019   1.433
  139SOL    HW3  876   1.026   1.061   1.301
  139SOL    MW4  877   1.046   0.999   1.358
  140SOL     OW  878   1.574   0.471   0.228
  140SOL    HW2  879   1.566   0.542   0.165
  140SOL    HW3  880   1.592   0.515   0.311
  140SOL    MW4  881   1.575   0.485   0.230
  141SOL     OW  882   0.434   0.126   0.657
  141SOL    HW2  883   0.484   0.169   0.588
  141SOL    HW3  884   0.349   0.170   0.657
  141SOL    MW4  885   0.431   0.139   0.648
  142SOL     OW  886   0.193   1.188   1.517
  142SOL    HW2  887   0.221   1.141   1.595
  142SOL    HW3  888   0.114   1.143   1.488
  142SOL    MW4  889   0.186   1.177   1.523
  143SOL     OW  890   0.701   0.515   1.484
  143SOL    HW2  891   0.673   0.603   1.508
  143SOL    HW3  892   0.670   0.459   1.555
  143SOL    MW4  893   0.693   0.518   1.496
  144SOL     OW  894   1.243   0.733   0.203
  144SOL    HW2  895   1.290   0.751   0.122
  144SOL    HW3  896   1.209   0.817   0.231
  144SOL    MW4  897   1.245   0.747   0.196
  145SOL     OW  898   0.356   0.911   0.697
  145SOL    HW2  899   0.414   0.967   0.645
  145SOL    HW3  900   0.400   0.826   0.699
  145SOL    MW4  901   0.369   0.908   0.690
  146SOL     OW  902   1.496   0.263   0.534
  146SOL    HW2  903   1.418   0.213   0.559
  146SOL    HW3  904   1.467   0.354   0.534
  146SOL    MW4  905   1.482   0.267   0.537
  147SOL     OW  906   1.082   0.225   0.693
  147SOL    HW2  907   1.102   0.300   0.637
  147SOL    HW3  908   1.062   0.264   0.778
  147SOL    MW4  909   1.083   0.241   0.697
  148SOL     OW  910   0.978   1.475   0.025
  148SOL    HW2  911   1.005   1.553  -0.023
  148SOL    HW3  912   0.885   1.490   0.044
  148SOL    MW4  913   0.969   1.488   0.021
  149SOL     OW  914   1.842   0.998   1.712
  149SOL    HW2  915   1.755   0.978   1.748
  149SOL    HW3  916   1.896   0.924   1.737
  149SOL    MW4  917   1.837   0.987   1.720
  150SOL     OW  918   0.063   1.511   0.869
  150SOL    HW2  919   0.095   1.515   0.960
  150SOL    HW3  920  -0.032   1.519   0.877
  150SOL    MW4  921   0.055   1.514   0.882
  151SOL     OW  922   0.018   0.637   0.416
  151SOL    HW2  923  -0.042   0.609   0.486
  151SOL    HW3  924   0.092   0.577   0.422
  151SOL    MW4  925   0.020   0.626   0.425
  152SOL     OW  926   1.586   1.849   1.850
  152SOL    HW2  927   1.631   1.773   1.815
  152SOL    HW3  928   1.624   1.862   1.937
  152SOL    MW4  929   1.596   1.842   1.856
  153SOL     OW  930   1.186   1.368   0.576
  153SOL    HW2  931   1.209   1.319   0.654
  153SOL    HW3  932   1.267   1.410   0.548
  153SOL    MW4  933   1.199   1.368   0.583
  154SOL     OW  934   0.444   0.376   1.305
  154SOL    HW2  935   0.477   0.457   1.345
  154SOL    HW3  936   0.417   0.402   1.217
  154SOL    MW4  937   0.443   0.390   1.299
  155SOL     OW  938   0.398   0.343   1.041
  155SOL    HW2  939   0.428   0.257   1.012
  155SOL    HW3  940   0.303   0.336   1.044
  155SOL    MW4  941   0.390   0.332   1.039
  156SOL     OW  942   1.227   0.552   1.732
  156SOL    HW2  943   1.279   0.487   1.685
  156SOL    HW3  944   1.185   0.603   1.662
  156SOL    MW4  945   1.228   0.549   1.715
  157SOL     OW  946   1.326   0.347   1.593
  157SOL    HW2  947   1.233   0.331   1.580
  157SOL    HW3  948   1.352   0.285   1.661
  157SOL    MW4  949   1.316   0.337   1.600
  158SOL     OW  950   0.541   0.121   0.932
  158SOL    HW2  951   0.551   0.030   0.958
  158SOL    HW3  952   0.497   0.117   0.847
  158SOL    MW4  953   0.537   0.109   0.924
  159SOL     OW  954   0.635   1.736   1.478
  159SOL    HW2  955   0.552   1.721   1.523
  159SOL    HW3  956   0.694   1.669   1.513
  159SOL    MW4  957   0.633   1.726   1.488
  160SOL     OW  958   1.692   0.443   1.103
  160SOL    HW2  959   1.625   0.476   1.163
  160SOL    HW3  960   1.735   0.521   1.069
  160SOL    MW4  961   1.690   0.458   1.107
  161SOL     OW  962   1.870   1.163   1.073
  161SOL    HW2  963   1.863   1.103   0.998
  161SOL    HW3  964   1.796   1.223   1.062
  161SOL    MW4  965   1.860   1.163   1.062
  162SOL     OW  966   1.252   1.025   0.991
  162SOL    HW2  967   1.266   0.997   1.082
  162SOL    HW3  968   1.338   1.056   0.963
  162SOL    MW4  969   1.265   1.026   1.000
  163SOL     OW  970   1.335   0.520   1.270
  163SOL    HW2  971   1.356   0.521   1.177
  163SOL    HW3  972   1.380   0.442   1.303
  163SOL    MW4  973   1.342   0.510   1.262
  164SOL     OW  974   1.828   0.651   1.812
  164SOL    HW2  975   1.865   0.596   1.881
  164SOL    HW3  976   1.853   0.608   1.730
  164SOL    MW4  977   1.835   0.639   1.811
  165SOL     OW  978   1.375   0.949   1.863
  165SOL    HW2  979   1.441   0.897   1.817
  165SOL    HW3  980   1.395   0.936   1.956
  165SOL    MW4  981   1.386   0.940   1.870
  166SOL     OW  982   1.326   0.035   0.212
  166SOL    HW2  983   1.400   0.079   0.255
  166SOL    HW3  984   1.250   0.089   0.234
  166SOL    MW4  985   1.326   0.047   0.220
  167SOL     OW  986   1.386   0.810   0.490
  167SOL    HW2  987   1.301   0.780   0.460
  167SOL    HW3  988   1.378   0.817   0.585
  167SOL    MW4  989   1.374   0.808   0.499
  168SOL     OW  990   0.462   1.273   1.221
  168SOL    HW2  991   0.474   1.300   1.312
  168SOL    HW3  992   0.443   1.354   1.174
  168SOL    MW4  993   0.461   1.288   1.226
  169SOL     OW  994   0.746   0.253   1.044
  169SOL    HW2  995   0.719   0.255   1.135
  169SOL    HW3  996   0.676   0.205   0.999
  169SOL    MW4  997   0.734   0.249   1.051
  170SOL     OW  998   0.600   1.745   1.206
  170SOL    HW2  999   0.652   1.822   1.183
  170SOL    HW3 1000   0.609   1.737   1.301
  170SOL    MW4 1001   0.609   1.752   1.217
  171SOL     OW 1002   1.502   1.330   1.438
  171SOL    HW2 1003   1.487   1.259   1.501
  171SOL    HW3 1004   1.548   1.288   1.366
  171SOL    MW4 1005   1.508   1.314   1.438
  172SOL     OW 1006   0.576   1.061   1.555
  172SOL    HW2 1007   0.613   1.066   1.467
  172SOL    HW3 1008   0.615   1.134   1.602
  172SOL    MW4 1009   0.586   1.071   1.550
  173SOL     OW 1010   0.756   1.104   1.367
  173SOL    HW2 1011   0.815   1.050   1.420
  173SOL    HW3 1012   0.771   1.076   1.277
  173SOL    MW4 1013   0.766   1.093   1.363
  174SOL     OW 1014   0.759   0.476   0.216
  174SOL    HW2 1015   0.832   0.525   0.179
  174SOL    HW3 1016   0.775   0.385   0.190
  174SOL    MW4 1017   0.771   0.471   0.209
  175SOL     OW 1018   1.567   1.593   1.539
  175SOL    HW2 1019   1.609   1.578   1.624
  175SOL    HW3 1020   1.558   1.506   1.501
  175SOL    MW4 1021   1.571   1.581   1.546
  176SOL     OW 1022   1.227   0.072   1.130
  176SOL    HW2 1023   1.282   0.081   1.052
  176SOL    HW3 1024   1.282   0.106   1.201
  176SOL    MW4 1025   1.241   0.077   1.129
  177SOL     OW 1026   0.234   0.985   0.314
  177SOL    HW2 1027   0.171   1.001   0.243
  177SOL    HW3 1028   0.181   0.948   0.385
  177SOL    MW4 1029   0.219   0.982   0.314
  178SOL     OW 1030   0.590   1.339   0.173
  178SOL    HW2 1031   0.605   1.315   0.265
  178SOL    HW3 1032   0.498   1.317   0.157
  178SOL    MW4 1033   0.580   1.332   0.183
  179SOL     OW 1034   1.129   1.570   0.325
  179SOL    HW2 1035   1.137   1.488   0.276
  179SOL    HW3 1036   1.048   1.609   0.292
  179SOL    MW4 1037   1.119   1.565   0.315
  180SOL     OW 1038   0.388   1.728   0.894
  180SOL    HW2 1039   0.392   1.639   0.929
  180SOL    HW3 1040   0.414   1.719   0.803
  180SOL    MW4 1041   0.391   1.716   0.886
  181SOL     OW 1042   1.005   1.206   1.137
  181SOL    HW2 1043   0.937   1.140   1.153
  181SOL    HW3 1044   1.023   1.200   1.044
  181SOL    MW4 1045   0.998   1.197   1.128
  182SOL     OW 1046   0.094   1.481   1.388
  182SOL    HW2 1047   0.084   1.439   1.474
  182SOL    HW3 1048   0.015   1.534   1.378
  182SOL    MW4 1049   0.083   1.482   1.399
  183SOL     OW 1050   0.998   0.345   0.958
  183SOL    HW2 1051   0.928   0.297   1.003
  183SOL    HW3 1052   1.030   0.408   1.022
  183SOL    MW4 1053   0.993   0.347   0.972
  184SOL     OW 1054   0.649   0.781   1.578
  184SOL    HW2 1055   0.642   0.876   1.566
  184SOL    HW3 1056   0.658   0.770   1.673
  184SOL    MW4 1057   0.650   0.793   1.588
  185SOL     OW 1058   0.370   1.296   1.836
  185SOL    HW2 1059   0.442   1.298   1.773
  185SOL    HW3 1060   0.340   1.205   1.835
  185SOL    MW4 1061   0.375   1.285   1.828
  186SOL     OW 1062   1.454   0.059   1.303
  186SOL    HW2 1063   1.525   0.005   1.267
  186SOL    HW3 1064   1.453   0.038   1.396
  186SOL    MW4 1065   1.463   0.050   1.311
  187SOL     OW 1066   1.654   1.589   1.787
  187SOL    HW2 1067   1.627   1.586   1.878
  187SOL    HW3 1068   1.750   1.593   1.790
  187SOL    MW4 1069   1.664   1.589   1.799
  188SOL     OW 1070   0.465   0.451   0.771
  188SOL    HW2 1071   0.536   0.399   0.734
  188SOL    HW3 1072   0.451   0.416   0.858
  188SOL    MW4 1073   0.473   0.440   0.778
  189SOL     OW 1074   0.020   1.786   1.843
  189SOL    HW2 1075   0.070   1.764   1.765
  189SOL    HW3 1076   0.028   1.881   1.851
  189SOL    MW4 1077   0.028   1.795   1.834
  190SOL     OW 1078   0.781   1.544   0.847
  190SOL    HW2 1079   0.709   1.481   0.860
  190SOL    HW3 1080   0.742   1.629   0.865
  190SOL    MW4 1081   0.765   1.547   0.850
  191SOL     OW 1082   1.101   0.392   0.495
  191SOL    HW2 1083   1.123   0.329   0.427
  191SOL    HW3 1084   1.006   0.384   0.506
  191SOL    MW4 1085   1.091   0.383   0.487
  192SOL     OW 1086   0.186   0.082   0.427
  192SOL    HW2 1087   0.257   0.103   0.366
  192SOL    HW3 1088   0.140   0.010   0.385
  192SOL    MW4 1089   0.190   0.076   0.413
  193SOL     OW 1090   0.017   0.549   1.570
  193SOL    HW2 1091   0.081   0.615   1.545
  193SOL    HW3 1092  -0.064   0.576   1.527
  193SOL    MW4 1093   0.015   0.561   1.562
  194SOL     OW 1094   1.755   1.456   0.527
  194SOL    HW2 1095   1.725   1.389   0.588
  194SOL    HW3 1096   1.849   1.462   0.541
  194SOL    MW4 1097   1.763   1.448   0.537
  195SOL     OW 1098   1.311   1.133   0.457
  195SOL    HW2 1099   1.283   1.219   0.490
  195SOL    HW3 1100   1.339   1.149   0.367
  195SOL    MW4 1101   1.311   1.147   0.449
  196SOL     OW 1102   0.973   0.053   0.510
  196SOL    HW2 1103   1.010   0.112   0.575
  196SOL    HW3 1104   0.950   0.109   0.436
  196SOL    MW4 1105   0.974   0.068   0.509
  197SOL     OW 1106   1.826   0.935   0.932
  197SOL    HW2 1107   1.817   0.967   0.843
  197SOL    HW3 1108   1.779   0.851   0.932
  197SOL    MW4 1109   1.819   0.928   0.922
  198SOL     OW 1110   0.202   0.775   1.511
  198SOL    HW2 1111   0.223   0.844   1.449
  198SOL    HW3 1112   0.282   0.722   1.516
  198SOL    MW4 1113   0.215   0.776   1.505
  199SOL     OW 1114   1.738   0.866   0.633
  199SOL    HW2 1115   1.832   0.855   0.621
  199SOL    HW3 1116   1.714   0.938   0.574
  199SOL    MW4 1117   1.748   0.874   0.624
  200SOL     OW 1118   0.187   0.790   1.778
  200SOL    HW2 1119   0.113   0.734   1.804
  200SOL    HW3 1120   0.182   0.793   1.683
  200SOL    MW4 1121   0.176   0.783   1.768
  201SOL     OW 1122   0.353   0.077   1.228
  201SOL    HW2 1123   0.396   0.161   1.248
  201SOL    HW3 1124   0.426   0.015   1.221
  201SOL    MW4 1125   0.368   0.080   1.229
  202SOL     OW 1126   0.394   0.744   0.406
  202SOL    HW2 1127   0.394   0.839   0.391
  202SOL    HW3 1128   0.471   0.728   0.460
  202SOL    MW4 1129   0.404   0.755   0.411
  203SOL     OW 1130   1.170   0.603   1.470
  203SOL    HW2 1131   1.206   0.576   1.386
  203SOL    HW3 1132   1.083   0.637   1.449
  203SOL    MW4 1133   1.164   0.604   1.457
  204SOL     OW 1134   0.153   0.475   0.695
  204SOL    HW2 1135   0.215   0.482   0.768
  204SOL    HW3 1136   0.153   0.382   0.672
  204SOL    MW4 1137   0.161   0.464   0.702
  205SOL     OW 1138   1.700   1.815   0.227
  205SOL    HW2 1139   1.767   1.848   0.167
  205SOL    HW3 1140   1.657   1.894   0.261
  205SOL    MW4 1141   1.702   1.830   0.223
  206SOL     OW 1142   0.835   0.736   1.179
  206SOL    HW2 1143   0.793   0.654   1.155
  206SOL    HW3 1144   0.836   0.735   1.275
  206SOL    MW4 1145   0.828   0.725   1.188
  207SOL     OW 1146   1.506   1.869   1.578
  207SOL    HW2 1147   1.509   1.775   1.561
  207SOL    HW3 1148   1.529   1.877   1.670
  207SOL    MW4 1149   1.509   1.857   1.588
  208SOL     OW 1150   0.639   0.206   1.284
  208SOL    HW2 1151   0.570   0.269   1.305
  208SOL    HW3 1152   0.666   0.170   1.369
  208SOL    MW4 1153   0.633   0.209   1.297
  209SOL     OW 1154   0.022   1.047   0.153
  209SOL    HW2 1155  -0.009   1.112   0.216
  209SOL    HW3 1156  -0.029   0.969   0.172
  209SOL    MW4 1157   0.012   1.044   0.163
  210SOL     OW 1158   1.434   0.059   0.901
  210SOL    HW2 1159   1.522   0.068   0.938
  210SOL    HW3 1160   1.444   0.000   0.827
  210SOL    MW4 1161   1.448   0.053   0.895
  211SOL     OW 1162   1.466   0.798   0.745
  211SOL    HW2 1163   1.546   0.813   0.694
  211SOL    HW3 1164   1.459   0.703   0.751
  211SOL    MW4 1165   1.475   0.787   0.740
  212SOL     OW 1166   0.606   1.847   0.095
  212SOL    HW2 1167   0.511   1.847   0.087
  212SOL    HW3 1168   0.622   1.793   0.173
  212SOL    MW4 1169   0.596   1.841   0.104
  213SOL     OW 1170   0.916   0.724   1.442
  213SOL    HW2 1171   0.985   0.791   1.439
  213SOL    HW3 1172   0.849   0.762   1.498
  213SOL    MW4 1173   0.917   0.737   1.449
  214SOL     OW 1174   0.334   1.024   1.690
  214SOL    HW2 1175   0.288   0.940   1.692
  214SOL    HW3 1176   0.391   1.018   1.614
  214SOL    MW4 1177   0.336   1.012   1.682
  215SOL     OW 1178   1.451   0.667   0.011
  215SOL    HW2 1179   1.379   0.643  -0.047
  215SOL    HW3 1180   1.517   0.704  -0.047
  215SOL    MW4 1181   1.450   0.669  -0.004
  216SOL     OW 1182   0.585   1.399   0.691
  216SOL    HW2 1183   0.650   1.332   0.712
  216SOL    HW3 1184   0.637   1.476   0.668
  216SOL    MW4 1185   0.600   1.401   0.690
  217SOL     OW 1186   0.846   0.564   0.821
  217SOL    HW2 1187   0.786   0.582   0.893
  217SOL    HW3 1188   0.880   0.476   0.840
  217SOL    MW4 1189   0.842   0.554   0.834
  218SOL     OW 1190   1.787   0.063   1.490
  218SOL    HW2 1191   1.708   0.109   1.518
  218SOL    HW3 1192   1.822   0.117   1.419
  218SOL    MW4 1193   1.781   0.076   1.484
  219SOL     OW 1194   1.071   1.147   0.840
  219SOL    HW2 1195   1.163   1.128   0.858
  219SOL    HW3 1196   1.044   1.077   0.780
  219SOL    MW4 1197   1.079   1.135   0.834
  220SOL     OW 1198   0.864   0.967   0.195
  220SOL    HW2 1199   0.850   0.879   0.160
  220SOL    HW3 1200   0.815   1.024   0.136
  220SOL    MW4 1201   0.856   0.962   0.183
  221SOL     OW 1202   1.345   1.385   0.936
  221SOL    HW2 1203   1.318   1.469   0.901
  221SOL    HW3 1204   1.305   1.380   1.023
  221SOL    MW4 1205   1.338   1.394   0.942
  222SOL     OW 1206   1.264   1.333   1.204
  222SOL    HW2 1207   1.275   1.300   1.293
  222SOL    HW3 1208   1.183   1.292   1.173
  222SOL    MW4 1209   1.254   1.325   1.210
  223SOL     OW 1210   0.277   0.691   0.974
  223SOL    HW2 1211   0.227   0.690   1.055
  223SOL    HW3 1212   0.297   0.783   0.958
  223SOL    MW4 1213   0.273   0.703   0.982
  224SOL     OW 1214   1.344   1.455   1.736
  224SOL    HW2 1215   1.344   1.549   1.752
  224SOL    HW3 1216   1.389   1.445   1.652
  224SOL    MW4 1217   1.350   1.465   1.727
  225SOL     OW 1218   1.583   0.173   0.297
  225SOL    HW2 1219   1.576   0.177   0.392
  225SOL    HW3 1220   1.595   0.264   0.270
  225SOL    MW4 1221   1.584   0.186   0.305
  226SOL     OW 1222   0.872   0.736   0.411
  226SOL    HW2 1223   0.852   0.722   0.318
  226SOL    HW3 1224   0.965   0.715   0.418
  226SOL    MW4 1225   0.882   0.731   0.400
  227SOL     OW 1226   0.199   0.359   1.715
  227SOL    HW2 1227   0.156   0.418   1.652
  227SOL    HW3 1228   0.267   0.414   1.755
  227SOL    MW4 1229   0.203   0.374   1.712
  228SOL     OW 1230   1.311   0.979   1.260
  228SOL    HW2 1231   1.374   0.976   1.333
  228SOL    HW3 1232   1.227   0.997   1.302
  228SOL    MW4 1233   1.307   0.981   1.275
  229SOL     OW 1234   0.855   1.694   0.449
  229SOL    HW2 1235   0.913   1.765   0.476
  229SOL    HW3 1236   0.878   1.622   0.507
  229SOL    MW4 1237   0.866   1.694   0.460
  230SOL     OW 1238   1.650   0.156   1.039
  230SOL    HW2 1239   1.695   0.074   1.058
  230SOL    HW3 1240   1.670   0.212   1.115
  230SOL    MW4 1241   1.660   0.152   1.051
  231SOL     OW 1242   0.098  -0.001   1.138
  231SOL    HW2 1243   0.089   0.000   1.043
  231SOL    HW3 1244   0.192   0.011   1.153
  231SOL    MW4 1245   0.110   0.002   1.129
  232SOL     OW 1246   1.735   1.192   0.758
  232SOL    HW2 1247   1.714   1.138   0.681
  232SOL    HW3 1248   1.831   1.190   0.762
  232SOL    MW4 1249   1.744   1.185   0.747
  233SOL     OW 1250   0.427   1.337   1.501
  233SOL    HW2 1251   0.348   1.287   1.524
  233SOL    HW3 1252   0.497   1.296   1.551
  233SOL    MW4 1253   0.425   1.325   1.511
  234SOL     OW 1254   0.311   0.126   0.184
  234SOL    HW2 1255   0.240   0.181   0.152
  234SOL    HW3 1256   0.353   0.092   0.105
  234SOL    MW4 1257   0.307   0.128   0.170
  235SOL     OW 1258   1.435   0.623   1.020
  235SOL    HW2 1259   1.358   0.669   0.986
  235SOL    HW3 1260   1.492   0.692   1.054
  235SOL    MW4 1261   1.432   0.638   1.020
  236SOL     OW 1262   0.067   0.225   0.033
  236SOL    HW2 1263   0.034   0.304   0.077
  236SOL    HW3 1264   0.122   0.258  -0.038
  236SOL    MW4 1265   0.070   0.239   0.030
  237SOL     OW 1266   0.101   1.482   0.222
  237SOL    HW2 1267   0.118   1.566   0.264
  237SOL    HW3 1268   0.136   1.491   0.134
  237SOL    MW4 1269   0.106   1.495   0.216
  238SOL     OW 1270   1.373   1.571   0.439
  238SOL    HW2 1271   1.436   1.561   0.368
  238SOL    HW3 1272   1.290   1.591   0.394
  238SOL    MW4 1273   1.370   1.572   0.424
  239SOL     OW 1274   1.736   0.839   2.125
  239SOL    HW2 1275   1.777   0.781   2.190
  239SOL    HW3 1276   1.643   0.831   2.142
  239SOL    MW4 1277   1.730   0.831   2.135
  240SOL     OW 1278   1.602   0.771   3.120
  240SOL    HW2 1279   1.557   0.838   3.171
  240SOL    HW3 1280   1.690   0.807   3.106
  240SOL    MW4 1281   1.608   0.784   3.124
  241SOL     OW 1282   0.530   1.022   2.354
  241SOL    HW2 1283   0.620   0.997   2.338
  241SOL    HW3 1284   0.526   1.115   2.331
  241SOL    MW4 1285   0.542   1.031   2.349
  242SOL     OW 1286   1.646   1.725   2.496
  242SOL    HW2 1287   1.658   1.671   2.574
  242SOL    HW3 1288   1.683   1.673   2.425
  242SOL    MW4 1289   1.652   1.710   2.497
  243SOL     OW 1290   1.025   1.610   3.497
  243SOL    HW2 1291   1.066   1.646   3.418
  243SOL    HW3 1292   1.060   1.521   3.504
  243SOL    MW4 1293   1.036   1.603   3.488
  244SOL     OW 1294   1.582   1.165   3.101
  244SOL    HW2 1295   1.503   1.130   3.059
  244SOL    HW3 1296   1.609   1.237   3.045
  244SOL    MW4 1297   1.575   1.170   3.088
  245SOL     OW 1298   0.814   0.478   2.367
  245SOL    HW2 1299   0.789   0.566   2.395
  245SOL    HW3 1300   0.811   0.481   2.271
  245SOL    MW4 1301   0.810   0.490   2.359
  246SOL     OW 1302   0.256   0.506   2.295
  246SOL    HW2 1303   0.288   0.594   2.277
  246SOL    HW3 1304   0.244   0.504   2.390
  246SOL    MW4 1305   0.259   0.518   2.307
  247SOL     OW 1306   0.334   0.919   3.196
  247SOL    HW2 1307   0.397   0.866   3.147
  247SOL    HW3 1308   0.315   0.993   3.139
  247SOL    MW4 1309   0.340   0.921   3.183
  248SOL     OW 1310   0.655   0.261   2.382
  248SOL    HW2 1311   0.713   0.337   2.384
  248SOL    HW3 1312   0.590   0.282   2.315
  248SOL    MW4 1313   0.654   0.273   2.373
  249SOL     OW 1314   0.742   1.188   2.557
  249SOL    HW2 1315   0.822   1.191   2.609
  249SOL    HW3 1316   0.770   1.155   2.471
  249SOL    MW4 1317   0.756   1.184   2.552
  250SOL     OW 1318   0.767   1.529   3.460
  250SOL    HW2 1319   0.851   1.555   3.499
  250SOL    HW3 1320   0.791   1.473   3.386
  250SOL    MW4 1321   0.781   1.525   3.455
  251SOL     OW 1322   0.519   0.692   2.548
  251SOL    HW2 1323   0.504   0.612   2.599
  251SOL    HW3 1324   0.601   0.727   2.582
  251SOL    MW4 1325   0.527   0.684   2.560
  252SOL     OW 1326   0.856   1.378   3.233
  252SOL    HW2 1327   0.820   1.444   3.173
  252SOL    HW3 1328   0.784   1.316   3.246
  252SOL    MW4 1329   0.842   1.378   3.227
  253SOL     OW 1330   0.661   0.518   2.925
  253SOL    HW2 1331   0.567   0.514   2.943
  253SOL    HW3 1332   0.691   0.427   2.934
  253SOL    MW4 1333   0.652   0.506   2.928
  254SOL     OW 1334   0.407   0.932   2.829
  254SOL    HW2 1335   0.362   0.939   2.745
  254SOL    HW3 1336   0.387   1.015   2.873
  254SOL    MW4 1337   0.399   0.944   2.823
  255SOL     OW 1338   0.104   1.778   2.704
  255SOL    HW2 1339   0.193   1.770   2.739
  255SOL    HW3 1340   0.068   1.690   2.709
  255SOL    MW4 1341   0.111   1.765   2.709
  256SOL     OW 1342   1.369   1.170   2.073
  256SOL    HW2 1343   1.287   1.206   2.039
  256SOL    HW3 1344   1.437   1.213   2.022
  256SOL    MW4 1345   1.367   1.180   2.061
  257SOL     OW 1346   0.368   1.305   2.739
  257SOL    HW2 1347   0.344   1.358   2.815
  257SOL    HW3 1348   0.424   1.363   2.687
  257SOL    MW4 1349   0.372   1.320   2.742
  258SOL     OW 1350   0.930   0.949   2.549
  258SOL    HW2 1351   0.844   0.936   2.589
  258SOL    HW3 1352   0.983   0.876   2.581
  258SOL    MW4 1353   0.926   0.938   2.558
  259SOL     OW 1354   0.338   1.601   3.334
  259SOL    HW2 1355   0.246   1.577   3.319
  259SOL    HW3 1356   0.382   1.518   3.351
  259SOL    MW4 1357   0.332   1.586   3.333
  260SOL     OW 1358   0.921   1.311   2.266
  260SOL    HW2 1359   0.898   1.373   2.334
  260SOL    HW3 1360   0.878   1.229   2.292
  260SOL    MW4 1361   0.913   1.307   2.277
  261SOL     OW 1362   1.794   0.312   2.722
  261SOL    HW2 1363   1.731   0.292   2.791
  261SOL    HW3 1364   1.784   0.241   2.659
  261SOL    MW4 1365   1.784   0.299   2.723
  262SOL     OW 1366   0.418   0.284   2.234
  262SOL    HW2 1367   0.392   0.246   2.150
  262SOL    HW3 1368   0.355   0.354   2.250
  262SOL    MW4 1369   0.407   0.287   2.225
  263SOL     OW 1370   0.253   1.245   2.271
  263SOL    HW2 1371   0.201   1.313   2.227
  263SOL    HW3 1372   0.250   1.171   2.211
  263SOL    MW4 1373   0.245   1.244   2.258
  264SOL     OW 1374   0.915   1.708   2.049
  264SOL    HW2 1375   0.870   1.724   2.132
  264SOL    HW3 1376   0.846   1.673   1.991
  264SOL    MW4 1377   0.901   1.705   2.051
  265SOL     OW 1378   1.850   0.481   2.024
  265SOL    HW2 1379   1.759   0.483   2.052
  265SOL    HW3 1380   1.895   0.543   2.082
  265SOL    MW4 1381   1.843   0.489   2.034
  266SOL     OW 1382   1.595   1.084   2.374
  266SOL    HW2 1383   1.505   1.084   2.409
  266SOL    HW3 1384   1.588   1.130   2.291
  266SOL    MW4 1385   1.582   1.090   2.368
  267SOL     OW 1386   1.395   0.719   3.446
  267SOL    HW2 1387   1.464   0.657   3.423
  267SOL    HW3 1388   1.320   0.693   3.393
  267SOL    MW4 1389   1.395   0.706   3.437
  268SOL     OW 1390   0.136   1.599   2.998
  268SOL    HW2 1391   0.119   1.545   3.075
  268SOL    HW3 1392   0.124   1.689   3.028
  268SOL    MW4 1393   0.133   1.603   3.012
  269SOL     OW 1394   1.131   1.106   3.438
  269SOL    HW2 1395   1.116   1.199   3.423
  269SOL    HW3 1396   1.226   1.096   3.438
  269SOL    MW4 1397   1.140   1.116   3.435
  270SOL     OW 1398   0.927   0.530   3.639
  270SOL    HW2 1399   1.017   0.531   3.606
  270SOL    HW3 1400   0.886   0.455   3.597
  270SOL    MW4 1401   0.933   0.520   3.630
  271SOL     OW 1402   1.502   1.062   2.766
  271SOL    HW2 1403   1.505   0.996   2.697
  271SOL    HW3 1404   1.587   1.105   2.762
  271SOL    MW4 1405   1.514   1.058   2.757
  272SOL     OW 1406   1.122   0.665   2.335
  272SOL    HW2 1407   1.148   0.689   2.246
  272SOL    HW3 1408   1.104   0.572   2.331
  272SOL    MW4 1409   1.124   0.657   2.322
  273SOL     OW 1410   1.787   1.285   2.186
  273SOL    HW2 1411   1.743   1.326   2.261
  273SOL    HW3 1412   1.844   1.353   2.151
  273SOL    MW4 1413   1.789   1.299   2.191
  274SOL     OW 1414   0.707   0.334   3.589
  274SOL    HW2 1415   0.717   0.260   3.529
  274SOL    HW3 1416   0.743   0.303   3.672
  274SOL    MW4 1417   0.713   0.320   3.591
  275SOL     OW 1418   0.443   1.701   2.504
  275SOL    HW2 1419   0.475   1.789   2.482
  275SOL    HW3 1420   0.396   1.673   2.426
  275SOL    MW4 1421   0.442   1.709   2.491
  276SOL     OW 1422   1.827   0.063   2.553
  276SOL    HW2 1423   1.881   0.014   2.615
  276SOL    HW3 1424   1.770  -0.003   2.514
  276SOL    MW4 1425   1.827   0.047   2.555
  277SOL     OW 1426   0.159   1.761   2.081
  277SOL    HW2 1427   0.188   1.851   2.073
  277SOL    HW3 1428   0.109   1.744   2.002
  277SOL    MW4 1429   0.157   1.769   2.070
  278SOL     OW 1430   0.946   0.016   2.966
  278SOL    HW2 1431   0.905   0.094   2.928
  278SOL    HW3 1432   1.040   0.034   2.961
  278SOL    MW4 1433   0.952   0.028   2.961
  279SOL     OW 1434   1.563   1.569   2.052
  279SOL    HW2 1435   1.611   1.638   2.098
  279SOL    HW3 1436   1.484   1.613   2.021
  279SOL    MW4 1437   1.558   1.583   2.055
  280SOL     OW 1438   0.961   0.694   1.996
  280SOL    HW2 1439   0.963   0.641   1.917
  280SOL    HW3 1440   1.049   0.731   2.002
  280SOL    MW4 1441   0.973   0.693   1.985
  281SOL     OW 1442   1.575   0.620   2.332
  281SOL    HW2 1443   1.614   0.620   2.419
  281SOL    HW3 1444   1.516   0.696   2.332
  281SOL    MW4 1445   1.572   0.631   2.343
  282SOL     OW 1446   0.892   0.987   3.461
  282SOL    HW2 1447   0.869   0.967   3.551
  282SOL    HW3 1448   0.977   1.031   3.466
  282SOL    MW4 1449   0.899   0.990   3.473
  283SOL     OW 1450   0.972   0.124   3.221
  283SOL    HW2 1451   0.978   0.086   3.134
  283SOL    HW3 1452   0.961   0.218   3.206
  283SOL    MW4 1453   0.973   0.132   3.209
  284SOL     OW 1454   1.061   0.613   3.055
  284SOL    HW2 1455   1.136   0.642   3.002
  284SOL    HW3 1456   0.993   0.678   3.039
  284SOL    MW4 1457   1.062   0.625   3.045
  285SOL     OW 1458   1.611   0.581   3.332
  285SOL    HW2 1459   1.592   0.490   3.311
  285SOL    HW3 1460   1.589   0.630   3.253
  285SOL    MW4 1461   1.606   0.574   3.319
  286SOL     OW 1462   1.753   1.675   3.236
  286SOL    HW2 1463   1.681   1.637   3.287
  286SOL    HW3 1464   1.770   1.760   3.277
  286SOL    MW4 1465   1.747   1.680   3.248
  287SOL     OW 1466   1.058   0.319   3.438
  287SOL    HW2 1467   1.024   0.358   3.357
  287SOL    HW3 1468   1.036   0.227   3.431
  287SOL    MW4 1469   1.051   0.312   3.428
  288SOL     OW 1470   1.467   1.133   3.514
  288SOL    HW2 1471   1.549   1.174   3.544
  288SOL    HW3 1472   1.430   1.095   3.594
  288SOL    MW4 1473   1.473   1.134   3.529
  289SOL     OW 1474   1.762   0.506   2.498
  289SOL    HW2 1475   1.851   0.475   2.515
  289SOL    HW3 1476   1.705   0.446   2.546
  289SOL    MW4 1477   1.765   0.494   2.507
  290SOL     OW 1478   0.188   0.220   2.527
  290SOL    HW2 1479   0.179   0.160   2.453
  290SOL    HW3 1480   0.121   0.191   2.590
  290SOL    MW4 1481   0.178   0.207   2.525
  291SOL     OW 1482   1.131   1.313   2.088
  291SOL    HW2 1483   1.081   1.315   2.170
  291SOL    HW3 1484   1.065   1.331   2.020
  291SOL    MW4 1485   1.117   1.315   2.090
  292SOL     OW 1486   0.135   0.393   2.890
  292SOL    HW2 1487   0.107   0.484   2.899
  292SOL    HW3 1488   0.072   0.354   2.829
  292SOL    MW4 1489   0.122   0.399   2.884
  293SOL     OW 1490   0.594   1.731   2.196
  293SOL    HW2 1491   0.515   1.689   2.229
  293SOL    HW3 1492   0.660   1.714   2.263
  293SOL    MW4 1493   0.593   1.723   2.209
  294SOL     OW 1494   1.722   1.251   3.593
  294SOL    HW2 1495   1.772   1.177   3.625
  294SOL    HW3 1496   1.668   1.278   3.668
  294SOL    MW4 1497   1.722   1.245   3.606
  295SOL     OW 1498   0.730   1.146   1.903
  295SOL    HW2 1499   0.652   1.092   1.890
  295SOL    HW3 1500   0.701   1.219   1.956
  295SOL    MW4 1501   0.716   1.148   1.908
  296SOL     OW 1502   1.856   0.886   3.095
  296SOL    HW2 1503   1.872   0.924   3.008
  296SOL    HW3 1504   1.890   0.952   3.156
  296SOL    MW4 1505   1.863   0.899   3.091
  297SOL     OW 1506   1.648   1.595   2.764
  297SOL    HW2 1507   1.677   1.662   2.825
  297SOL    HW3 1508   1.629   1.519   2.819
  297SOL    MW4 1509   1.650   1.595   2.779
  298SOL     OW 1510   1.311   1.662   1.971
  298SOL    HW2 1511   1.237   1.625   2.021
  298SOL    HW3 1512   1.319   1.752   2.004
  298SOL    MW4 1513   1.302   1.669   1.983
  299SOL     OW 1514   0.119   0.668   3.060
  299SOL    HW2 1515   0.181   0.698   3.126
  299SOL    HW3 1516   0.053   0.737   3.054
  299SOL    MW4 1517   0.118   0.681   3.067
  300SOL     OW 1518   1.535   1.336   1.913
  300SOL    HW2 1519   1.482   1.385   1.849
  300SOL    HW3 1520   1.566   1.402   1.974
  300SOL    MW4 1521   1.533   1.350   1.911
  301SOL     OW 1522   0.760   0.225   1.968
  301SOL    HW2 1523   0.708   0.145   1.956
  301SOL    HW3 1524   0.847   0.202   1.936
  301SOL    MW4 1525   0.763   0.211   1.962
  302SOL     OW 1526   0.214   1.777   3.512
  302SOL    HW2 1527   0.188   1.845   3.450
  302SOL    HW3 1528   0.262   1.714   3.460
  302SOL    MW4 1529   0.216   1.777   3.498
  303SOL     OW 1530   0.266   1.096   3.019
  303SOL    HW2 1531   0.319   1.171   3.044
  303SOL    HW3 1532   0.185   1.134   2.985
  303SOL    MW4 1533   0.262   1.111   3.019
  304SOL     OW 1534   0.806   1.000   3.007
  304SOL    HW2 1535   0.834   0.909   3.019
  304SOL    HW3 1536   0.735   0.994   2.943
  304SOL    MW4 1537   0.799   0.988   3.002
  305SOL     OW 1538   0.121   0.865   2.425
  305SOL    HW2 1539   0.212   0.880   2.452
  305SOL    HW3 1540   0.124   0.786   2.371
  305SOL    MW4 1541   0.133   0.857   2.423
  306SOL     OW 1542   0.357   0.573   3.679
  306SOL    HW2 1543   0.304   0.653   3.686
  306SOL    HW3 1544   0.427   0.585   3.744
  306SOL    MW4 1545   0.359   0.586   3.687
  307SOL     OW 1546   0.743   0.123   3.386
  307SOL    HW2 1547   0.720   0.031   3.388
  307SOL    HW3 1548   0.829   0.125   3.343
  307SOL    MW4 1549   0.750   0.113   3.382
  308SOL     OW 1550   0.427   0.647   3.425
  308SOL    HW2 1551   0.507   0.697   3.411
  308SOL    HW3 1552   0.418   0.641   3.520
  308SOL    MW4 1553   0.436   0.653   3.435
  309SOL     OW 1554   0.748   1.797   2.799
  309SOL    HW2 1555   0.837   1.812   2.829
  309SOL    HW3 1556   0.743   1.844   2.715
  309SOL    MW4 1557   0.758   1.805   2.792
  310SOL     OW 1558   1.404   0.172   3.696
  310SOL    HW2 1559   1.460   0.099   3.722
  310SOL    HW3 1560   1.374   0.210   3.778
  310SOL    MW4 1561   1.408   0.167   3.709
  311SOL     OW 1562   0.129   1.477   2.464
  311SOL    HW2 1563   0.101   1.516   2.546
  311SOL    HW3 1564   0.149   1.386   2.486
  311SOL    MW4 1565   0.127   1.469   2.477
  312SOL     OW 1566   0.962   1.520   2.499
  312SOL    HW2 1567   1.045   1.474   2.483
  312SOL    HW3 1568   0.952   1.519   2.595
  312SOL    MW4 1569   0.972   1.513   2.509
  313SOL     OW 1570   1.794   0.665   2.813
  313SOL    HW2 1571   1.883   0.695   2.795
  313SOL    HW3 1572   1.774   0.605   2.742
  313SOL    MW4 1573   1.803   0.662   2.802
  314SOL     OW 1574   1.645   0.844   3.693
  314SOL    HW2 1575   1.700   0.768   3.674
  314SOL    HW3 1576   1.647   0.852   3.788
  314SOL    MW4 1577   1.653   0.835   3.701
  315SOL     OW 1578   0.695   1.577   1.904
  315SOL    HW2 1579   0.635   1.646   1.874
  315SOL    HW3 1580   0.640   1.519   1.957
  315SOL    MW4 1581   0.679   1.579   1.906
  316SOL     OW 1582   1.133   0.222   2.127
  316SOL    HW2 1583   1.066   0.198   2.064
  316SOL    HW3 1584   1.198   0.271   2.076
  316SOL    MW4 1585   1.133   0.224   2.112
  317SOL     OW 1586   0.940   0.406   3.212
  317SOL    HW2 1587   0.859   0.447   3.240
  317SOL    HW3 1588   0.987   0.474   3.164
  317SOL    MW4 1589   0.935   0.421   3.210
  318SOL     OW 1590   1.200   0.744   2.835
  318SOL    HW2 1591   1.213   0.838   2.845
  318SOL    HW3 1592   1.161   0.734   2.749
  318SOL    MW4 1593   1.196   0.755   2.825
  319SOL     OW 1594   0.652   0.939   2.639
  319SOL    HW2 1595   0.563   0.930   2.672
  319SOL    HW3 1596   0.656   1.029   2.607
  319SOL    MW4 1597   0.641   0.950   2.639
  320SOL     OW 1598   1.451   0.522   2.634
  320SOL    HW2 1599   1.396   0.443   2.633
  320SOL    HW3 1600   1.433   0.563   2.718
  320SOL    MW4 1601   1.441   0.517   2.643
  321SOL     OW 1602   0.422   0.209   3.451
  321SOL    HW2 1603   0.343   0.227   3.503
  321SOL    HW3 1604   0.417   0.271   3.378
  321SOL    MW4 1605   0.412   0.219   3.448
  322SOL     OW 1606   1.070   0.726   2.591
  322SOL    HW2 1607   1.007   0.658   2.615
  322SOL    HW3 1608   1.090   0.707   2.499
  322SOL    MW4 1609   1.064   0.713   2.583
  323SOL     OW 1610   0.326   1.621   2.293
  323SOL    HW2 1611   0.287   1.668   2.219
  323SOL    HW3 1612   0.260   1.556   2.318
  323SOL    MW4 1613   0.313   1.619   2.287
  324SOL     OW 1614   0.818   1.030   2.317
  324SOL    HW2 1615   0.820   1.004   2.224
  324SOL    HW3 1616   0.876   0.967   2.360
  324SOL    MW4 1617   0.826   1.019   2.311
  325SOL     OW 1618   1.371   1.590   3.089
  325SOL    HW2 1619   1.296   1.636   3.127
  325SOL    HW3 1620   1.353   1.497   3.106
  325SOL    MW4 1621   1.360   1.584   3.097
  326SOL     OW 1622   1.375   1.798   2.519
  326SOL    HW2 1623   1.318   1.751   2.458
  326SOL    HW3 1624   1.461   1.759   2.506
  326SOL    MW4 1625   1.378   1.789   2.509
  327SOL     OW 1626   1.328   0.274   2.650
  327SOL    HW2 1627   1.356   0.206   2.711
  327SOL    HW3 1628   1.242   0.245   2.620
  327SOL    MW4 1629   1.321   0.261   2.654
  328SOL     OW 1630   0.133   1.208   2.584
  328SOL    HW2 1631   0.197   1.240   2.647
  328SOL    HW3 1632   0.182   1.144   2.532
  328SOL    MW4 1633   0.148   1.204   2.585
  329SOL     OW 1634   0.633   1.284   3.566
  329SOL    HW2 1635   0.681   1.367   3.553
  329SOL    HW3 1636   0.690   1.232   3.622
  329SOL    MW4 1637   0.647   1.288   3.572
  330SOL     OW 1638   0.209   1.526   3.706
  330SOL    HW2 1639   0.265   1.450   3.721
  330SOL    HW3 1640   0.158   1.504   3.628
  330SOL    MW4 1641   0.209   1.513   3.697
  331SOL     OW 1642   1.308   0.378   1.985
  331SOL    HW2 1643   1.281   0.444   1.921
  331SOL    HW3 1644   1.378   0.421   2.035
  331SOL    MW4 1645   1.313   0.391   1.982
  332SOL     OW 1646   0.976   0.083   1.922
  332SOL    HW2 1647   1.032   0.075   1.844
  332SOL    HW3 1648   0.953  -0.007   1.944
  332SOL    MW4 1649   0.981   0.070   1.915
  333SOL     OW 1650   1.481   0.934   2.127
  333SOL    HW2 1651   1.448   1.023   2.117
  333SOL    HW3 1652   1.446   0.905   2.212
  333SOL    MW4 1653   1.471   0.943   2.138
  334SOL     OW 1654   1.094   1.363   3.315
  334SOL    HW2 1655   1.005   1.369   3.283
  334SOL    HW3 1656   1.138   1.442   3.283
  334SOL    MW4 1657   1.089   1.373   3.307
  335SOL     OW 1658   0.387   0.031   3.657
  335SOL    HW2 1659   0.315  -0.004   3.605
  335SOL    HW3 1660   0.445   0.072   3.592
  335SOL    MW4 1661   0.385   0.032   3.642
  336SOL     OW 1662   0.411   1.521   2.956
  336SOL    HW2 1663   0.456   1.583   3.013
  336SOL    HW3 1664   0.318   1.540   2.969
  336SOL    MW4 1665   0.404   1.531   2.963
  337SOL     OW 1666   1.851   1.050   3.310
  337SOL    HW2 1667   1.766   1.063   3.269
  337SOL    HW3 1668   1.831   1.014   3.397
  337SOL    MW4 1669   1.838   1.046   3.315
  338SOL     OW 1670   0.833   1.589   3.064
  338SOL    HW2 1671   0.857   1.578   2.973
  338SOL    HW3 1672   0.756   1.646   3.062
  338SOL    MW4 1673   0.825   1.594   3.053
  339SOL     OW 1674   0.475   0.972   1.919
  339SOL    HW2 1675   0.398   0.985   1.975
  339SOL    HW3 1676   0.439   0.936   1.838
  339SOL    MW4 1677   0.461   0.968   1.916
  340SOL     OW 1678   1.128   0.945   2.162
  340SOL    HW2 1679   1.038   0.966   2.137
  340SOL    HW3 1680   1.155   1.018   2.218
  340SOL    MW4 1681   1.120   0.957   2.165
  341SOL     OW 1682   0.628   1.294   2.854
  341SOL    HW2 1683   0.621   1.273   2.948
  341SOL    HW3 1684   0.546   1.262   2.817
  341SOL    MW4 1685   0.616   1.288   2.861
  342SOL     OW 1686   1.492   0.304   3.256
  342SOL    HW2 1687   1.439   0.306   3.336
  342SOL    HW3 1688   1.477   0.217   3.219
  342SOL    MW4 1689   1.484   0.294   3.261
  343SOL     OW 1690   1.828   0.228   3.129
  343SOL    HW2 1691   1.809   0.295   3.064
  343SOL    HW3 1692   1.885   0.166   3.084
  343SOL    MW4 1693   1.832   0.229   3.115
  344SOL     OW 1694   0.074   1.386   3.517
  344SOL    HW2 1695   0.118   1.319   3.463
  344SOL    HW3 1696  -0.011   1.348   3.537
  344SOL    MW4 1697   0.069   1.372   3.513
  345SOL     OW 1698   0.757   0.061   2.569
  345SOL    HW2 1699   0.686   0.122   2.551
  345SOL    HW3 1700   0.808   0.058   2.488
  345SOL    MW4 1701   0.753   0.067   2.556
  346SOL     OW 1702   0.515   1.301   2.318
  346SOL    HW2 1703   0.508   1.333   2.408
  346SOL    HW3 1704   0.425   1.285   2.290
  346SOL    MW4 1705   0.503   1.303   2.325
  347SOL     OW 1706   1.110   1.694   3.227
  347SOL    HW2 1707   1.030   1.679   3.177
  347SOL    HW3 1708   1.117   1.789   3.234
  347SOL    MW4 1709   1.101   1.705   3.221
  348SOL     OW 1710   1.224   1.659   2.717
  348SOL    HW2 1711   1.271   1.732   2.676
  348SOL    HW3 1712   1.145   1.698   2.753
  348SOL    MW4 1713   1.219   1.674   2.716
  349SOL     OW 1714   1.632   1.754   2.992
  349SOL    HW2 1715   1.675   1.724   3.072
  349SOL    HW3 1716   1.551   1.702   2.989
  349SOL    MW4 1717   1.627   1.743   3.002
  350SOL     OW 1718   0.717   0.718   3.699
  350SOL    HW2 1719   0.787   0.660   3.671
  350SOL    HW3 1720   0.660   0.663   3.754
  350SOL    MW4 1721   0.719   0.705   3.703
  351SOL     OW 1722   1.504   0.930   3.332
  351SOL    HW2 1723   1.509   0.983   3.412
  351SOL    HW3 1724   1.466   0.847   3.360
  351SOL    MW4 1725   1.500   0.925   3.347
  352SOL     OW 1726   1.144   0.065   3.578
  352SOL    HW2 1727   1.139  -0.028   3.559
  352SOL    HW3 1728   1.227   0.076   3.624
  352SOL    MW4 1729   1.152   0.054   3.582
  353SOL     OW 1730   0.518   0.585   2.032
  353SOL    HW2 1731   0.484   0.641   2.102
  353SOL    HW3 1732   0.589   0.535   2.072
  353SOL    MW4 1733   0.524   0.586   2.046
  354SOL     OW 1734   1.614   1.336   2.854
  354SOL    HW2 1735   1.649   1.318   2.767
  354SOL    HW3 1736   1.519   1.337   2.841
  354SOL    MW4 1737   1.606   1.333   2.841
  355SOL     OW 1738   1.043   0.984   3.223
  355SOL    HW2 1739   1.086   1.019   3.301
  355SOL    HW3 1740   1.026   1.061   3.169
  355SOL    MW4 1741   1.046   0.999   3.226
  356SOL     OW 1742   1.574   0.471   2.096
  356SOL    HW2 1743   1.566   0.542   2.033
  356SOL    HW3 1744   1.592   0.515   2.179
  356SOL    MW4 1745   1.575   0.485   2.098
  357SOL     OW 1746   0.434   0.126   2.525
  357SOL    HW2 1747   0.484   0.169   2.456
  357SOL    HW3 1748   0.349   0.170   2.525
  357SOL    MW4 1749   0.431   0.139   2.516
  358SOL     OW 1750   0.193   1.188   3.385
  358SOL    HW2 1751   0.221   1.141   3.463
  358SOL    HW3 1752   0.114   1.143   3.356
  358SOL    MW4 1753   0.186   1.177   3.391
  359SOL     OW 1754   0.701   0.515   3.352
  359SOL    HW2 1755   0.673   0.603   3.376
  359SOL    HW3 1756   0.670   0.459   3.423
  359SOL    MW4 1757   0.693   0.518   3.364
  360SOL     OW 1758   1.243   0.733   2.071
  360SOL    HW2 1759   1.290   0.751   1.990
  360SOL    HW3 1760   1.209   0.817   2.099
  360SOL    MW4 1761   1.245   0.747   2.064
  361SOL     OW 1762   0.356   0.911   2.565
  361SOL    HW2 1763   0.414   0.967   2.513
  361SOL    HW3 1764   0.400   0.826   2.567
  361SOL    MW4 1765   0.369   0.908   2.558
  362SOL     OW 1766   1.496   0.263   2.402
  362SOL    HW2 1767   1.418   0.213   2.427
  362SOL    HW3 1768   1.467   0.354   2.402
  362SOL    MW4 1769   1.482   0.267   2.405
  363SOL     OW 1770   1.082   0.225   2.561
  363SOL    HW2 1771   1.102   0.300   2.505
  363SOL    HW3 1772   1.062   0.264   2.646
  363SOL    MW4 1773   1.083   0.241   2.565
  364SOL     OW 1774   0.978   1.475   1.893
  364SOL    HW2 1775   1.005   1.553   1.845
  364SOL    HW3 1776   0.885   1.490   1.912
  364SOL    MW4 1777   0.969   1.488   1.889
  365SOL     OW 1778   1.842   0.998   3.580
  365SOL    HW2 1779   1.755   0.978   3.616
  365SOL    HW3 1780   1.896   0.924   3.605
  365SOL    MW4 1781   1.837   0.987   3.588
  366SOL     OW 1782   0.063   1.511   2.737
  366SOL    HW2 1783   0.095   1.515   2.828
  366SOL    HW3 1784  -0.032   1.519   2.745
  366SOL    MW4 1785   0.055   1.514   2.750
  367SOL     OW 1786   0.018   0.637   2.284
  367SOL    HW2 1787  -0.042   0.609   2.354
  367SOL    HW3 1788   0.092   0.577   2.290
  367SOL    MW4 1789   0.020   0.626   2.293
  368SOL     OW 1790   1.586   1.849   3.718
  368SOL    HW2 1791   1.631   1.773   3.683
  368SOL    HW3 1792   1.624   1.862   3.805
  368SOL    MW4 1793   1.596   1.842   3.724
  369SOL     OW 1794   1.186   1.368   2.444
  369SOL    HW2 1795   1.209   1.319   2.522
  369SOL    HW3 1796   1.267   1.410   2.416
  369SOL    MW4 1797   1.199   1.368   2.451
  370SOL     OW 1798   0.444   0.376   3.173
  370SOL    HW2 1799   0.477   0.457   3.213
  370SOL    HW3 1800   0.417   0.402   3.085
  370SOL    MW4 1801   0.443   0.390   3.167
  371SOL     OW 1802   0.398   0.343   2.909
  371SOL    HW2 1803   0.428   0.257   2.880
  371SOL    HW3 1804   0.303   0.336   2.912
  371SOL    MW4 1805   0.390   0.332   2.907
  372SOL     OW 1806   1.227   0.552   3.600
  372SOL    HW2 1807   1.279   0.487   3.553
  372SOL    HW3 1808   1.185   0.603   3.530
  372SOL    MW4 1809   1.228   0.549   3.583
  373SOL     OW 1810   1.326   0.347   3.461
  373SOL    HW2 1811   1.233   0.331   3.448
  373SOL    HW3 1812   1.352   0.285   3.529
  373SOL    MW4 1813   1.316   0.337   3.468
  374SOL     OW 1814   0.541   0.121   2.800
  374SOL    HW2 1815   0.551   0.030   2.826
  374SOL    HW3 1816   0.497   0.117   2.715
  374SOL    MW4 1817   0.537   0.109   2.792
  375SOL     OW 1818   0.635   1.736   3.346
  375SOL    HW2 1819   0.552   1.721   3.391
  375SOL    HW3 1820   0.694   1.669   3.381
  375SOL    MW4 1821   0.633   1.726   3.356
  376SOL     OW 1822   1.692   0.443   2.971
  376SOL    HW2 1823   1.625   0.476   3.031
  376SOL    HW3 1824   1.735   0.521   2.937
  376SOL    MW4 1825   1.690   0.458   2.975
  377SOL     OW 1826   1.870   1.163   2.941
  377SOL    HW2 1827   1.863   1.103   2.866
  377SOL    HW3 1828   1.796   1.223   2.930
  377SOL    MW4 1829   1.860   1.163   2.930
  378SOL     OW 1830   1.252   1.025   2.859
  378SOL    HW2 1831   1.266   0.997   2.950
  378SOL    HW3 1832   1.338   1.056   2.831
  378SOL    MW4 1833   1.265   1.026   2.868
  379SOL     OW 1834   1.335   0.520   3.138
  379SOL    HW2 1835   1.356   0.521   3.045
  379SOL    HW3 1836   1.380   0.442   3.171
  379SOL    MW4 1837   1.342   0.510   3.130
  380SOL     OW 1838   1.828   0.651   3.680
  380SOL    HW2 1839   1.865   0.596   3.749
  380SOL    HW3 1840   1.853   0.608   3.598
  380SOL    MW4 1841   1.835   0.639   3.679
  381SOL     OW 1842   1.326   0.035   2.080
  381SOL    HW2 1843   1.400   0.079   2.123
  381SOL    HW3 1844   1.250   0.089   2.102
  381SOL    MW4 1845   1.326   0.047   2.088
  382SOL     OW 1846   1.386   0.810   2.358
  382SOL    HW2 1847   1.301   0.780   2.328
  382SOL    HW3 1848   1.378   0.817   2.453
  382SOL    MW4 1849   1.374   0.808   2.367
  383SOL     OW 1850   0.462   1.273   3.089
  383SOL    HW2 1851   0.474   1.300   3.180
  383SOL    HW3 1852   0.443   1.354   3.042
  383SOL    MW4 1853   0.461   1.288   3.094
  384SOL     OW 1854   0.746   0.253   2.912
  384SOL    HW2 1855   0.719   0.255   3.003
  384SOL    HW3 1856   0.676   0.205   2.867
  384SOL    MW4 1857   0.734   0.249   2.919
  385SOL     OW 1858   0.600   1.745   3.074
  385SOL    HW2 1859   0.652   1.822   3.051
  385SOL    HW3 1860   0.609   1.737   3.169
  385SOL    MW4 1861   0.609   1.752   3.085
  386SOL     OW 1862   1.502   1.330   3.306
  386SOL    HW2 1863   1.487   1.259   3.369
  386SOL    HW3 1864   1.548   1.288   3.234
  386SOL    MW4 1865   1.508   1.314   3.306
  387SOL     OW 1866   0.576   1.061   3.423
  387SOL    HW2 1867   0.613   1.066   3.335
  387SOL    HW3 1868   0.615   1.134   3.470
  387SOL    MW4 1869   0.586   1.071   3.418
  388SOL     OW 1870   0.756   1.104   3.235
  388SOL    HW2 1871   0.815   1.050   3.288
  388SOL    HW3 1872   0.771   1.076   3.145
  388SOL    MW4 1873   0.766   1.093   3.231
  389SOL     OW 1874   0.759   0.476   2.084
  389SOL    HW2 1875   0.832   0.525   2.047
  389SOL    HW3 1876   0.775   0.385   2.058
  389SOL    MW4 1877   0.771   0.471   2.077
  390SOL     OW 1878   1.567   1.593   3.407
  390SOL    HW2 1879   1.609   1.578   3.492
  390SOL    HW3 1880   1.558   1.506   3.369
  390SOL    MW4 1881   1.571   1.581   3.414
  391SOL     OW 1882   1.227   0.072   2.998
  391SOL    HW2 1883   1.282   0.081   2.920
  391SOL    HW3 1884   1.282   0.106   3.069
  391SOL    MW4 1885   1.241   0.077   2.997
  392SOL     OW 1886   0.234   0.985   2.182
  392SOL    HW2 1887   0.171   1.001   2.111
  392SOL    HW3 1888   0.181   0.948   2.253
  392SOL    MW4 1889   0.219   0.982   2.182
  393SOL     OW 1890   0.590   1.339   2.041
  393SOL    HW2 1891   0.605   1.315   2.133
  393SOL    HW3 1892   0.498   1.317   2.025
  393SOL    MW4 1893   0.580   1.332   2.051
  394SOL     OW 1894   1.129   1.570   2.193
  394SOL    HW2 1895   1.137   1.488   2.144
  394SOL    HW3 1896   1.048   1.609   2.160
  394SOL    MW4 1897   1.119   1.565   2.183
  395SOL     OW 1898   0.388   1.728   2.762
  395SOL    HW2 1899   0.392   1.639   2.797
  395SOL    HW3 1900   0.414   1.719   2.671
  395SOL    MW4 1901   0.391   1.716   2.754
  396SOL     OW 1902   1.005   1.206   3.005
  396SOL    HW2 1903   0.937   1.140   3.021
  396SOL    HW3 1904   1.023   1.200   2.912
  396SOL    MW4 1905   0.998   1.197   2.996
  397SOL     OW 1906   0.094   1.481   3.256
  397SOL    HW2 1907   0.084   1.439   3.342
  397SOL    HW3 1908   0.015   1.534   3.246
  397SOL    MW4 1909   0.083   1.482   3.267
  398SOL     OW 1910   0.998   0.345   2.826
  398SOL    HW2 1911   0.928   0.297   2.871
  398SOL    HW3 1912   1.030   0.408   2.890
  398SOL    MW4 1913   0.993   0.347   2.840
  399SOL     OW 1914   0.649   0.781   3.446
  399SOL    HW2 1915   0.642   0.876   3.434
  399SOL    HW3 1916   0.658   0.770   3.541
  399SOL    MW4 1917   0.650   0.793   3.456
  400SOL     OW 1918   0.370   1.296   3.704
  400SOL    HW2 1919   0.442   1.298   3.641
  400SOL    HW3 1920   0.340   1.205   3.703
  400SOL    MW4 1921   0.375   1.285   3.696
  401SOL     OW 1922   1.454   0.059   3.171
  401SOL    HW2 1923   1.525   0.005   3.135
  401SOL    HW3 1924   1.453   0.038   3.264
  401SOL    MW4 1925   1.463   0.050   3.179
  402SOL     OW 1926   0.465   0.451   2.639
  402SOL    HW2 1927   0.536   0.399   2.602
  402SOL    HW3 1928   0.451   0.416   2.726
  402SOL    MW4 1929   0.473   0.440   2.646
  403SOL     OW 1930   0.020   1.786   3.711
  403SOL    HW2 1931   0.070   1.764   3.633
  403SOL    HW3 1932   0.028   1.881   3.719
  403SOL    MW4 1933   0.028   1.795   3.702
  404SOL     OW 1934   0.781   1.544   2.715
  404SOL    HW2 1935   0.709   1.481   2.728
  404SOL    HW3 1936   0.742   1.629   2.733
  404SOL    MW4 1937   0.765   1.547   2.718
  405SOL     OW 1938   1.101   0.392   2.363
  405SOL    HW2 1939   1.123   0.329   2.295
  405SOL    HW3 1940   1.006   0.384   2.374
  405SOL    MW4 1941   1.091   0.383   2.355
  406SOL     OW 1942   0.186   0.082   2.295
  406SOL    HW2 1943   0.257   0.103   2.234
  406SOL    HW3 1944   0.140   0.010   2.253
  406SOL    MW4 1945   0.190   0.076   2.281
  407SOL     OW 1946   0.017   0.549   3.438
  407SOL    HW2 1947   0.081   0.615   3.413
  407SOL    HW3 1948  -0.064   0.576   3.395
  407SOL    MW4 1949   0.015   0.561   3.430
  408SOL     OW 1950   1.755   1.456   2.395
  408SOL    HW2 1951   1.725   1.389   2.456
  408SOL    HW3 1952   1.849   1.462   2.409
  408SOL    MW4 1953   1.763   1.448   2.405
  409SOL     OW 1954   1.311   1.133   2.325
  409SOL    HW2 1955   1.283   1.219   2.358
  409SOL    HW3 1956   1.339   1.149   2.235
  409SOL    MW4 1957   1.311   1.147   2.317
  410SOL     OW 1958   0.973   0.053   2.378
  410SOL    HW2 1959   1.010   0.112   2.443
  410SOL    HW3 1960   0.950   0.109   2.304
  410SOL    MW4 1961   0.974   0.068   2.377
  411SOL     OW 1962   1.826   0.935   2.800
  411SOL    HW2 1963   1.817   0.967   2.711
  411SOL    HW3 1964   1.779   0.851   2.800
  411SOL    MW4 1965   1.819   0.928   2.790
  412SOL     OW 1966   0.202   0.775   3.379
  412SOL    HW2 1967   0.223   0.844   3.317
  412SOL    HW3 1968   0.282   0.722   3.384
  412SOL    MW4 1969   0.215   0.776   3.373
  413SOL     OW 1970   1.738   0.866   2.501
  413SOL    HW2 1971   1.832   0.855   2.489
  413SOL    HW3 1972   1.714   0.938   2.442
  413SOL    MW4 1973   1.748   0.874   2.492
  414SOL     OW 1974   0.187   0.790   3.646
  414SOL    HW2 1975   0.113   0.734   3.672
  414SOL    HW3 1976   0.182   0.793   3.551
  414SOL    MW4 1977   0.176   0.783   3.636
  415SOL     OW 1978   0.353   0.077   3.096
  415SOL    HW2 1979   0.396   0.161   3.116
  415SOL    HW3 1980   0.426   0.015   3.089
  415SOL    MW4 1981   0.368   0.080   3.097
  416SOL     OW 1982   0.394   0.744   2.274
  416SOL    HW2 1983   0.394   0.839   2.259
  416SOL    HW3 1984   0.471   0.728   2.328
  416SOL    MW4 1985   0.404   0.755   2.279
  417SOL     OW 1986   1.170   0.603   3.338
  417SOL    HW2 1987   1.206   0.576   3.254
  417SOL    HW3 1988   1.083   0.637   3.317
  417SOL    MW4 1989   1.164   0.604   3.325
  418SOL     OW 1990   0.153   0.475   2.563
  418SOL    HW2 1991   0.215   0.482   2.636
  418SOL    HW3 1992   0.153   0.382   2.540
  418SOL    MW4 1993   0.161   0.464   2.570
  419SOL     OW 1994   1.700   1.815   2.095
  419SOL    HW2 1995   1.767   1.848   2.035
  419SOL    HW3 1996   1.657   1.894   2.129
  419SOL    MW4 1997   1.702   1.830   2.091
  420SOL     OW 1998   0.835   0.736   3.047
  420SOL    HW2 1999   0.793   0.654   3.023
  420SOL    HW3 2000   0.836   0.735   3.143
  420SOL    MW4 2001   0.828   0.725   3.056
  421SOL     OW 2002   1.506   1.869   3.446
  421SOL    HW2 2003   1.509   1.775   3.429
  421SOL    HW3 2004   1.529   1.877   3.538
  421SOL    MW4 2005   1.509   1.857   3.456
  422SOL     OW 2006   0.639   0.206   3.152
  422SOL    HW2 2007   0.570   0.269   3.173
  422SOL    HW3 2008   0.666   0.170   3.237
  422SOL    MW4 2009   0.633   0.209   3.165
  423SOL     OW 2010   0.022   1.047   2.021
  423SOL    HW2 2011  -0.009   1.112   2.084
  423SOL    HW3 2012  -0.029   0.969   2.040
  423SOL    MW4 2013   0.012   1.044   2.031
  424SOL     OW 2014   1.434   0.059   2.769
  424SOL    HW2 2015   1.522   0.068   2.806
  424SOL    HW3 2016   1.444   0.000   2.695
  424SOL    MW4 2017   1.448   0.053   2.763
  425SOL     OW 2018   1.466   0.798   2.613
  425SOL    HW2 2019   1.546   0.813   2.562
  425SOL    HW3 2020   1.459   0.703   2.619
  425SOL    MW4 2021   1.475   0.787   2.608
  426SOL     OW 2022   0.606   1.847   1.963
  426SOL    HW2 2023   0.511   1.847   1.955
  426SOL    HW3 2024   0.622   1.793   2.041
  426SOL    MW4 2025   0.596   1.841   1.972
  427SOL     OW 2026   0.916   0.724   3.310
  427SOL    HW2 2027   0.985   0.791   3.307
  427SOL    HW3 2028   0.849   0.762   3.366
  427SOL    MW4 2029   0.917   0.737   3.317
  428SOL     OW 2030   0.334   1.024   3.558
  428SOL    HW2 2031   0.288   0.940   3.560
  428SOL    HW3 2032   0.391   1.018   3.482
  428SOL    MW4 2033   0.336   1.012   3.550
  429SOL     OW 2034   1.451   0.667   1.879
  429SOL    HW2 2035   1.379   0.643   1.821
  429SOL    HW3 2036   1.517   0.704   1.821
  429SOL    MW4 2037   1.450   0.669   1.864
  430SOL     OW 2038   0.585   1.399   2.559
  430SOL    HW2 2039   0.650   1.332   2.580
  430SOL    HW3 2040   0.637   1.476   2.536
  430SOL    MW4 2041   0.600   1.401   2.558
  431SOL     OW 2042   0.846   0.564   2.689
  431SOL    HW2 2043   0.786   0.582   2.761
  431SOL    HW3 2044   0.880   0.476   2.708
  431SOL    MW4 2045   0.842   0.554   2.702
  432SOL     OW 2046   1.787   0.063   3.358
  432SOL    HW2 2047   1.708   0.109   3.386
  432SOL    HW3 2048   1.822   0.117   3.287
  432SOL    MW4 2049   1.781   0.076   3.352
  433SOL     OW 2050   1.071   1.147   2.708
  433SOL    HW2 2051   1.163   1.128   2.726
  433SOL    HW3 2052   1.044   1.077   2.648
  433SOL    MW4 2053   1.079   1.135   2.702
  434SOL     OW 2054   0.864   0.967   2.063
  434SOL    HW2 2055   0.850   0.879   2.028
  434SOL    HW3 2056   0.815   1.024   2.004
  434SOL    MW4 2057   0.856   0.962   2.051
  435SOL     OW 2058   1.345   1.385   2.804
  435SOL    HW2 2059   1.318   1.469   2.769
  435SOL    HW3 2060   1.305   1.380   2.891
  435SOL    MW4 2061   1.338   1.394   2.810
  436SOL     OW 2062   1.264   1.333   3.072
  436SOL    HW2 2063   1.275   1.300   3.161
  436SOL    HW3 2064   1.183   1.292   3.041
  436SOL    MW4 2065   1.254   1.325   3.078
  437SOL     OW 2066   0.277   0.691   2.842
  437SOL    HW2 2067   0.227   0.690   2.923
  437SOL    HW3 2068   0.297   0.783   2.826
  437SOL    MW4 2069   0.273   0.703   2.850
  438SOL     OW 2070   1.344   1.455   3.604
  438SOL    HW2 2071   1.344   1.549   3.620
  438SOL    HW3 2072   1.389   1.445   3.520
  438SOL    MW4 2073   1.350   1.465   3.595
  439SOL     OW 2074   1.583   0.173   2.165
  439SOL    HW2 2075   1.576   0.177   2.260
  439SOL    HW3 2076   1.595   0.264   2.138
  439SOL    MW4 2077   1.584   0.186   2.173
  440SOL     OW 2078   0.872   0.736   2.279
  440SOL    HW2 2079   0.852   0.722   2.186
  440SOL    HW3 2080   0.965   0.715   2.286
  440SOL    MW4 2081   0.882   0.731   2.268
  441SOL     OW 2082   0.199   0.359   3.583
  441SOL    HW2 2083   0.156   0.418   3.520
  441SOL    HW3 2084   0.267   0.414   3.623
  441SOL    MW4 2085   0.203   0.374   3.580
  442SOL     OW 2086   1.311   0.979   3.128
  442SOL    HW2 2087   1.374   0.976   3.201
  442SOL    HW3 2088   1.227   0.997   3.170
  442SOL    MW4 2089   1.307   0.981   3.143
  443SOL     OW 2090   0.855   1.694   2.317
  443SOL    HW2 2091   0.913   1.765   2.344
  443SOL    HW3 2092   0.878   1.622   2.375
  443SOL    MW4 2093   0.866   1.694   2.328
  444SOL     OW 2094   1.650   0.156   2.907
  444SOL    HW2 2095   1.695   0.074   2.926
  444SOL    HW3 2096   1.670   0.212   2.983
  444SOL    MW4 2097   1.660   0.152   2.919
  445SOL     OW 2098   0.098  -0.001   3.006
  445SOL    HW2 2099   0.089   0.000   2.911
  445SOL    HW3 2100   0.192   0.011   3.021
  445SOL    MW4 2101   0.110   0.002   2.997
  446SOL     OW 2102   1.735   1.192   2.626
  446SOL    HW2 2103   1.714   1.138   2.549
  446SOL    HW3 2104   1.831   1.190   2.630
  446SOL    MW4 2105   1.744   1.185   2.615
  447SOL     OW 2106   0.427   1.337   3.369
  447SOL    HW2 2107   0.348   1.287   3.392
  447SOL    HW3 2108   0.497   1.296   3.419
  447SOL    MW4 2109   0.425   1.325   3.379
  448SOL     OW 2110   0.311   0.126   2.052
  448SOL    HW2 2111   0.240   0.181   2.020
  448SOL    HW3 2112   0.353   0.092   1.973
  448SOL    MW4 2113   0.307   0.128   2.038
  449SOL     OW 2114   1.435   0.623   2.888
  449SOL    HW2 2115   1.358   0.669   2.854
  449SOL    HW3 2116   1.492   0.692   2.922
  449SOL    MW4 2117   1.432   0.638   2.888
  450SOL     OW 2118   0.067   0.225   1.901
  450SOL    HW2 2119   0.034   0.304   1.945
  450SOL    HW3 2120   0.122   0.258   1.830
  450SOL    MW4 2121   0.070   0.239   1.898
  451SOL     OW 2122   0.101   1.482   2.090
  451SOL    HW2 2123   0.118   1.566   2.132
  451SOL    HW3 2124   0.136   1.491   2.002
  451SOL    MW4 2125   0.106   1.495   2.084
  452SOL     OW 2126   1.373   1.571   2.307
  452SOL    HW2 2127   1.436   1.561   2.236
  452SOL    HW3 2128   1.290   1.591   2.262
  452SOL    MW4 2129   1.370   1.572   2.292
  453SOL     OW 2130   1.736   0.839   3.993
  453SOL    HW2 2131   1.777   0.781   4.058
  453SOL    HW3 2132   1.643   0.831   4.010
  453SOL    MW4 2133   1.730   0.831   4.003
  454SOL     OW 2134   1.602   0.771   4.988
  454SOL    HW2 2135   1.557   0.838   5.039
  454SOL    HW3 2136   1.690   0.807   4.974
  454SOL    MW4 2137   1.608   0.784   4.992
  455SOL     OW 2138   0.530   1.022   4.222
  455SOL    HW2 2139   0.620   0.997   4.206
  455SOL    HW3 2140   0.526   1.115   4.199
  455SOL    MW4 2141   0.542   1.031   4.217
  456SOL     OW 2142   1.646   1.725   4.364
  456SOL    HW2 2143   1.658   1.671   4.442
  456SOL    HW3 2144   1.683   1.673   4.293
  456SOL    MW4 2145   1.652   1.710   4.365
  457SOL     OW 2146   1.025   1.610   5.365
  457SOL    HW2 2147   1.066   1.646   5.286
  457SOL    HW3 2148   1.060   1.521   5.372
  457SOL    MW4 2149   1.036   1.603   5.356
  458SOL     OW 2150   1.582   1.165   4.969
  458SOL    HW2 2151   1.503   1.130   4.927
  458SOL    HW3 2152   1.609   1.237   4.913
  458SOL    MW4 2153   1.575   1.170   4.956
  459SOL     OW 2154   0.814   0.478   4.235
  459SOL    HW2 2155   0.789   0.566   4.263
  459SOL    HW3 2156   0.811   0.481   4.139
  459SOL    MW4 2157   0.810   0.490   4.227
  460SOL     OW 2158   0.256   0.506   4.163
  460SOL    HW2 2159   0.288   0.594   4.145
  460SOL    HW3 2160   0.244   0.504   4.258
  460SOL    MW4 2161   0.259   0.518   4.175
  461SOL     OW 2162   0.334   0.919   5.064
  461SOL    HW2 2163   0.397   0.866   5.015
  461SOL    HW3 2164   0.315   0.993   5.007
  461SOL    MW4 2165   0.340   0.921   5.051
  462SOL     OW 2166   0.655   0.261   4.250
  462SOL    HW2 2167   0.713   0.337   4.252
  462SOL    HW3 2168   0.590   0.282   4.183
  462SOL    MW4 2169   0.654   0.273   4.241
  463SOL     OW 2170   0.742   1.188   4.425
  463SOL    HW2 2171   0.822   1.191   4.477
  463SOL    HW3 2172   0.770   1.155   4.339
  463SOL    MW4 2173   0.756   1.184   4.420
  464SOL     OW 2174   0.767   1.529   5.328
  464SOL    HW2 2175   0.851   1.555   5.367
  464SOL    HW3 2176   0.791   1.473   5.254
  464SOL    MW4 2177   0.781   1.525   5.323
  465SOL     OW 2178   0.519   0.692   4.416
  465SOL    HW2 2179   0.504   0.612   4.467
  465SOL    HW3 2180   0.601   0.727   4.450
  465SOL    MW4 2181   0.527   0.684   4.428
  466SOL     OW 2182   0.856   1.378   5.101
  466SOL    HW2 2183   0.820   1.444   5.041
  466SOL    HW3 2184   0.784   1.316   5.114
  466SOL    MW4 2185   0.842   1.378   5.095
  467SOL     OW 2186   0.661   0.518   4.793
  467SOL    HW2 2187   0.567   0.514   4.811
  467SOL    HW3 2188   0.691   0.427   4.802
  467SOL    MW4 2189   0.652   0.506   4.796
  468SOL     OW 2190   0.407   0.932   4.697
  468SOL    HW2 2191   0.362   0.939   4.613
  468SOL    HW3 2192   0.387   1.015   4.741
  468SOL    MW4 2193   0.399   0.944   4.691
  469SOL     OW 2194   0.104   1.778   4.572
  469SOL    HW2 2195   0.193   1.770   4.607
  469SOL    HW3 2196   0.068   1.690   4.577
  469SOL    MW4 2197   0.111   1.765   4.577
  470SOL     OW 2198   1.369   1.170   3.941
  470SOL    HW2 2199   1.287   1.206   3.907
  470SOL    HW3 2200   1.437   1.213   3.890
  470SOL    MW4 2201   1.367   1.180   3.929
  471SOL     OW 2202   0.368   1.305   4.607
  471SOL    HW2 2203   0.344   1.358   4.683
  471SOL    HW3 2204   0.424   1.363   4.555
  471SOL    MW4 2205   0.372   1.320   4.610
  472SOL     OW 2206   0.930   0.949   4.417
  472SOL    HW2 2207   0.844   0.936   4.457
  472SOL    HW3 2208   0.983   0.876   4.449
  472SOL    MW4 2209   0.926   0.938   4.426
  473SOL     OW 2210   0.338   1.601   5.202
  473SOL    HW2 2211   0.246   1.577   5.187
  473SOL    HW3 2212   0.382   1.518   5.219
  473SOL    MW4 2213   0.332   1.586   5.201
  474SOL     OW 2214   0.921   1.311   4.134
  474SOL    HW2 2215   0.898   1.373   4.202
  474SOL    HW3 2216   0.878   1.229   4.160
  474SOL    MW4 2217   0.913   1.307   4.145
  475SOL     OW 2218   1.794   0.312   4.590
  475SOL    HW2 2219   1.731   0.292   4.659
  475SOL    HW3 2220   1.784   0.241   4.527
  475SOL    MW4 2221   1.784   0.299   4.591
  476SOL     OW 2222   0.418   0.284   4.102
  476SOL    HW2 2223   0.392   0.246   4.018
  476SOL    HW3 2224   0.355   0.354   4.118
  476SOL    MW4 2225   0.407   0.287   4.093
  477SOL     OW 2226   0.253   1.245   4.139
  477SOL    HW2 2227   0.201   1.313   4.095
  477SOL    HW3 2228   0.250   1.171   4.079
  477SOL    MW4 2229   0.245   1.244   4.126
  478SOL     OW 2230   0.915   1.708   3.917
  478SOL    HW2 2231   0.870   1.724   4.000
  478SOL    HW3 2232   0.846   1.673   3.859
  478SOL    MW4 2233   0.901   1.705   3.919
  479SOL     OW 2234   1.850   0.481   3.892
  479SOL    HW2 2235   1.759   0.483   3.920
  479SOL    HW3 2236   1.895   0.543   3.950
  479SOL    MW4 2237   1.843   0.489   3.902
  480SOL     OW 2238   1.595   1.084   4.242
  480SOL    HW2 2239   1.505   1.084   4.277
  480SOL    HW3 2240   1.588   1.130   4.159
  480SOL    MW4 2241   1.582   1.090   4.236
  481SOL     OW 2242   1.395   0.719   5.314
  481SOL    HW2 2243   1.464   0.657   5.291
  481SOL    HW3 2244   1.320   0.693   5.261
  481SOL    MW4 2245   1.395   0.706   5.305
  482SOL     OW 2246   0.136   1.599   4.866
  482SOL    HW2 2247   0.119   1.545   4.943
  482SOL    HW3 2248   0.124   1.689   4.896
  482SOL    MW4 2249   0.133   1.603   4.880
  483SOL     OW 2250   1.131   1.106   5.306
  483SOL    HW2 2251   1.116   1.199   5.291
  483SOL    HW3 2252   1.226   1.096   5.306
  483SOL    MW4 2253   1.140   1.116   5.303
  484SOL     OW 2254   0.927   0.530   5.507
  484SOL    HW2 2255   1.017   0.531   5.474
  484SOL    HW3 2256   0.886   0.455   5.465
  484SOL    MW4 2257   0.933   0.520   5.498
  485SOL     OW 2258   1.502   1.062   4.634
  485SOL    HW2 2259   1.505   0.996   4.565
  485SOL    HW3 2260   1.587   1.105   4.630
  485SOL    MW4 2261   1.514   1.058   4.625
  486SOL     OW 2262   1.122   0.665   4.203
  486SOL    HW2 2263   1.148   0.689   4.114
  486SOL    HW3 2264   1.104   0.572   4.199
  486SOL    MW4 2265   1.124   0.657   4.190
  487SOL     OW 2266   1.787   1.285   4.054
  487SOL    HW2 2267   1.743   1.326   4.129
  487SOL    HW3 2268   1.844   1.353   4.019
  487SOL    MW4 2269   1.789   1.299   4.059
  488SOL     OW 2270   0.707   0.334   5.457
  488SOL    HW2 2271   0.717   0.260   5.397
  488SOL    HW3 2272   0.743   0.303   5.540
  488SOL    MW4 2273   0.713   0.320   5.459
  489SOL     OW 2274   0.443   1.701   4.372
  489SOL    HW2 2275   0.475   1.789   4.350
  489SOL    HW3 2276   0.396   1.673   4.294
  489SOL    MW4 2277   0.442   1.709   4.359
  490SOL     OW 2278   1.827   0.063   4.421
  490SOL    HW2 2279   1.881   0.014   4.483
  490SOL    HW3 2280   1.770  -0.003   4.382
  490SOL    MW4 2281   1.827   0.047   4.423
  491SOL     OW 2282   0.159   1.761   3.949
  491SOL    HW2 2283   0.188   1.851   3.941
  491SOL    HW3 2284   0.109   1.744   3.870
  491SOL    MW4 2285   0.157   1.769   3.938
  492SOL     OW 2286   0.946   0.016   4.834
  492SOL    HW2 2287   0.905   0.094   4.796
  492SOL    HW3 2288   1.040   0.034   4.829
  492SOL    MW4 2289   0.952   0.028   4.829
  493SOL     OW 2290   1.563   1.569   3.920
  493SOL    HW2 2291   1.611   1.638   3.966
  493SOL    HW3 2292   1.484   1.613   3.889
  493SOL    MW4 2293   1.558   1.583   3.923
  494SOL     OW 2294   0.961   0.694   3.864
  494SOL    HW2 2295   0.963   0.641   3.785
  494SOL    HW3 2296   1.049   0.731   3.870
  494SOL    MW4 2297   0.973   0.693   3.853
  495SOL     OW 2298   1.575   0.620   4.200
  495SOL    HW2 2299   1.614   0.620   4.287
  495SOL    HW3 2300   1.516   0.696   4.200
  495SOL    MW4 2301   1.572   0.631   4.211
  496SOL     OW 2302   0.892   0.987   5.329
  496SOL    HW2 2303   0.869   0.967   5.419
  496SOL    HW3 2304   0.977   1.031   5.334
  496SOL    MW4 2305   0.899   0.990   5.341
  497SOL     OW 2306   0.972   0.124   5.089
  497SOL    HW2 2307   0.978   0.086   5.002
  497SOL    HW3 2308   0.961   0.218   5.074
  497SOL    MW4 2309   0.973   0.132   5.077
  498SOL     OW 2310   1.061   0.613   4.923
  498SOL    HW2 2311   1.136   0.642   4.870
  498SOL    HW3 2312   0.993   0.678   4.907
  498SOL    MW4 2313   1.062   0.625   4.913
  499SOL     OW 2314   1.611   0.581   5.200
  499SOL    HW2 2315   1.592   0.490   5.179
  499SOL    HW3 2316   1.589   0.630   5.121
  499SOL    MW4 2317   1.606   0.574   5.187
  500SOL     OW 2318   1.753   1.675   5.104
  500SOL    HW2 2319   1.681   1.637   5.155
  500SOL    HW3 2320   1.770   1.760   5.145
  500SOL    MW4 2321   1.747   1.680   5.116
  501SOL     OW 2322   1.058   0.319   5.306
  501SOL    HW2 2323   1.024   0.358   5.225
  501SOL    HW3 2324   1.036   0.227   5.299
  501SOL    MW4 2325   1.051   0.312   5.296
  502SOL     OW 2326   1.467   1.133   5.382
  502SOL    HW2 2327   1.549   1.174   5.412
  502SOL    HW3 2328   1.430   1.095   5.462
  502SOL    MW4 2329   1.473   1.134   5.397
  503SOL     OW 2330   1.762   0.506   4.366
  503SOL    HW2 2331   1.851   0.475   4.383
  503SOL    HW3 2332   1.705   0.446   4.414
  503SOL    MW4 2333   1.765   0.494   4.375
  504SOL     OW 2334   0.188   0.220   4.395
  504SOL    HW2 2335   0.179   0.160   4.321
  504SOL    HW3 2336   0.121   0.191   4.458
  504SOL    MW4 2337   0.178   0.207   4.393
  505SOL     OW 2338   1.131   1.313   3.956
  505SOL    HW2 2339   1.081   1.315   4.038
  505SOL    HW3 2340   1.065   1.331   3.888
  505SOL    MW4 2341   1.117   1.315   3.958
  506SOL     OW 2342   0.135   0.393   4.758
  506SOL    HW2 2343   0.107   0.484   4.767
  506SOL    HW3 2344   0.072   0.354   4.697
  506SOL    MW4 2345   0.122   0.399   4.752
  507SOL     OW 2346   0.594   1.731   4.064
  507SOL    HW2 2347   0.515   1.689   4.097
  507SOL    HW3 2348   0.660   1.714   4.131
  507SOL    MW4 2349   0.593   1.723   4.077
  508SOL     OW 2350   1.722   1.251   5.461
  508SOL    HW2 2351   1.772   1.177   5.493
  508SOL    HW3 2352   1.668   1.278   5.536
  508SOL    MW4 2353   1.722   1.245   5.474
  509SOL     OW 2354   0.730   1.146   3.771
  509SOL    HW2 2355   0.652   1.092   3.758
  509SOL    HW3 2356   0.701   1.219   3.824
  509SOL    MW4 2357   0.716   1.148   3.776
  510SOL     OW 2358   1.856   0.886   4.963
  510SOL    HW2 2359   1.872   0.924   4.876
  510SOL    HW3 2360   1.890   0.952   5.024
  510SOL    MW4 2361   1.863   0.899   4.959
  511SOL     OW 2362   1.648   1.595   4.632
  511SOL    HW2 2363   1.677   1.662   4.693
  511SOL    HW3 2364   1.629   1.519   4.687
  511SOL    MW4 2365   1.650   1.595   4.647
  512SOL     OW 2366   1.311   1.662   3.839
  512SOL    HW2 2367   1.237   1.625   3.889
  512SOL    HW3 2368   1.319   1.752   3.872
  512SOL    MW4 2369   1.302   1.669   3.851
  513SOL     OW 2370   0.119   0.668   4.928
  513SOL    HW2 2371   0.181   0.698   4.994
  513SOL    HW3 2372   0.053   0.737   4.922
  513SOL    MW4 2373   0.118   0.681   4.935
  514SOL     OW 2374   1.535   1.336   3.781
  514SOL    HW2 2375   1.482   1.385   3.717
  514SOL    HW3 2376   1.566   1.402   3.842
  514SOL    MW4 2377   1.533   1.350   3.779
  515SOL     OW 2378   0.760   0.225   3.836
  515SOL    HW2 2379   0.708   0.145   3.824
  515SOL    HW3 2380   0.847   0.202   3.804
  515SOL    MW4 2381   0.763   0.211   3.830
  516SOL     OW 2382   0.214   1.777   5.380
  516SOL    HW2 2383   0.188   1.845   5.318
  516SOL    HW3 2384   0.262   1.714   5.328
  516SOL    MW4 2385   0.216   1.777   5.366
  517SOL     OW 2386   0.266   1.096   4.887
  517SOL    HW2 2387   0.319   1.171   4.912
  517SOL    HW3 2388   0.185   1.134   4.853
  517SOL    MW4 2389   0.262   1.111   4.887
  518SOL     OW 2390   0.806   1.000   4.875
  518SOL    HW2 2391   0.834   0.909   4.887
  518SOL    HW3 2392   0.735   0.994   4.811
  518SOL    MW4 2393   0.799   0.988   4.870
  519SOL     OW 2394   0.121   0.865   4.293
  519SOL    HW2 2395   0.212   0.880   4.320
  519SOL    HW3 2396   0.124   0.786   4.239
  519SOL    MW4 2397   0.133   0.857   4.291
  520SOL     OW 2398   0.357   0.573   5.547
  520SOL    HW2 2399   0.304   0.653   5.554
  520SOL    HW3 2400   0.427   0.585   5.612
  520SOL    MW4 2401   0.359   0.586   5.555
  521SOL     OW 2402   0.743   0.123   5.254
  521SOL    HW2 2403   0.720   0.031   5.256
  521SOL    HW3 2404   0.829   0.125   5.211
  521SOL    MW4 2405   0.750   0.113   5.250
  522SOL     OW 2406   0.427   0.647   5.293
  522SOL    HW2 2407   0.507   0.697   5.279
  522SOL    HW3 2408   0.418   0.641   5.388
  522SOL    MW4 2409   0.436   0.653   5.303
  523SOL     OW 2410   0.748   1.797   4.667
  523SOL    HW2 2411   0.837   1.812   4.697
  523SOL    HW3 2412   0.743   1.844   4.583
  523SOL    MW4 2413   0.758   1.805   4.660
  524SOL     OW 2414   1.404   0.172   5.564
  524SOL    HW2 2415   1.460   0.099   5.590
  524SOL    HW3 2416   1.374   0.210   5.646
  524SOL    MW4 2417   1.408   0.167   5.577
  525SOL     OW 2418   0.129   1.477   4.332
  525SOL    HW2 2419   0.101   1.516   4.414
  525SOL    HW3 2420   0.149   1.386   4.354
  525SOL    MW4 2421   0.127   1.469   4.345
  526SOL     OW 2422   0.962   1.520   4.367
  526SOL    HW2 2423   1.045   1.474   4.351
  526SOL    HW3 2424   0.952   1.519   4.463
  526SOL    MW4 2425   0.972   1.513   4.377
  527SOL     OW 2426   1.794   0.665   4.681
  527SOL    HW2 2427   1.883   0.695   4.663
  527SOL    HW3 2428   1.774   0.605   4.610
  527SOL    MW4 2429   1.803   0.662   4.670
  528SOL     OW 2430   1.645   0.844   5.561
  528SOL    HW2 2431   1.700   0.768   5.542
  528SOL    HW3 2432   1.647   0.852   5.656
  528SOL    MW4 2433   1.653   0.835   5.569
  529SOL     OW 2434   0.695   1.577   3.772
  529SOL    HW2 2435   0.635   1.646   3.742
  529SOL    HW3 2436   0.640   1.519   3.825
  529SOL    MW4 2437   0.679   1.579   3.774
  530SOL     OW 2438   1.133   0.222   3.995
  530SOL    HW2 2439   1.066   0.198   3.932
  530SOL    HW3 2440   1.198   0.271   3.944
  530SOL    MW4 2441   1.133   0.224   3.980
  531SOL     OW 2442   0.940   0.406   5.080
  531SOL    HW2 2443   0.859   0.447   5.108
  531SOL    HW3 2444   0.987   0.474   5.032
  531SOL    MW4 2445   0.935   0.421   5.078
  532SOL     OW 2446   1.200   0.744   4.703
  532SOL    HW2 2447   1.213   0.838   4.713
  532SOL    HW3 2448   1.161   0.734   4.617
  532SOL    MW4 2449   1.196   0.755   4.693
  533SOL     OW 2450   0.652   0.939   4.507
  533SOL    HW2 2451   0.563   0.930   4.540
  533SOL    HW3 2452   0.656   1.029   4.475
  533SOL    MW4 2453   0.641   0.950   4.507
  534SOL     OW 2454   1.451   0.522   4.502
  534SOL    HW2 2455   1.396   0.443   4.501
  534SOL    HW3 2456   1.433   0.563   4.586
  534SOL    MW4 2457   1.441   0.517   4.511
  535SOL     OW 2458   0.422   0.209   5.319
  535SOL    HW2 2459   0.343   0.227   5.371
  535SOL    HW3 2460   0.417   0.271   5.246
  535SOL    MW4 2461   0.412   0.219   5.316
  536SOL     OW 2462   1.070   0.726   4.459
  536SOL    HW2 2463   1.007   0.658   4.483
  536SOL    HW3 2464   1.090   0.707   4.367
  536SOL    MW4 2465   1.064   0.713   4.451
  537SOL     OW 2466   0.326   1.621   4.161
  537SOL    HW2 2467   0.287   1.668   4.087
  537SOL    HW3 2468   0.260   1.556   4.186
  537SOL    MW4 2469   0.313   1.619   4.155
  538SOL     OW 2470   0.818   1.030   4.185
  538SOL    HW2 2471   0.820   1.004   4.092
  538SOL    HW3 2472   0.876   0.967   4.228
  538SOL    MW4 2473   0.826   1.019   4.179
  539SOL     OW 2474   1.371   1.590   4.957
  539SOL    HW2 2475   1.296   1.636   4.995
  539SOL    HW3 2476   1.353   1.497   4.974
  539SOL    MW4 2477   1.360   1.584   4.965
  540SOL     OW 2478   1.375   1.798   4.387
  540SOL    HW2 2479   1.318   1.751   4.326
  540SOL    HW3 2480   1.461   1.759   4.374
  540SOL    MW4 2481   1.378   1.789   4.377
  541SOL     OW 2482   1.328   0.274   4.518
  541SOL    HW2 2483   1.356   0.206   4.579
  541SOL    HW3 2484   1.242   0.245   4.488
  541SOL    MW4 2485   1.321   0.261   4.522
  542SOL     OW 2486   0.133   1.208   4.452
  542SOL    HW2 2487   0.197   1.240   4.515
  542SOL    HW3 2488   0.182   1.144   4.400
  542SOL    MW4 2489   0.148   1.204   4.453
  543SOL     OW 2490   0.633   1.284   5.434
  543SOL    HW2 2491   0.681   1.367   5.421
  543SOL    HW3 2492   0.690   1.232   5.490
  543SOL    MW4 2493   0.647   1.288   5.440
  544SOL     OW 2494   0.209   1.526   5.574
  544SOL    HW2 2495   0.265   1.450   5.589
  544SOL    HW3 2496   0.158   1.504   5.496
  544SOL    MW4 2497   0.209   1.513   5.565
  545SOL     OW 2498   1.308   0.378   3.853
  545SOL    HW2 2499   1.281   0.444   3.789
  545SOL    HW3 2500   1.378   0.421   3.903
  545SOL    MW4 2501   1.313   0.391   3.850
  546SOL     OW 2502   0.976   0.083   3.790
  546SOL    HW2 2503   1.032   0.075   3.712
  546SOL    HW3 2504   0.953  -0.007   3.812
  546SOL    MW4 2505   0.981   0.070   3.783
  547SOL     OW 2506   1.481   0.934   3.995
  547SOL    HW2 2507   1.448   1.023   3.985
  547SOL    HW3 2508   1.446   0.905   4.080
  547SOL    MW4 2509   1.471   0.943   4.006
  548SOL     OW 2510   1.094   1.363   5.183
  548SOL    HW2 2511   1.005   1.369   5.151
  548SOL    HW3 2512   1.138   1.442   5.151
  548SOL    MW4 2513   1.089   1.373   5.175
  549SOL     OW 2514   0.387   0.031   5.525
  549SOL    HW2 2515   0.315  -0.004   5.473
  549SOL    HW3 2516   0.445   0.072   5.460
  549SOL    MW4 2517   0.385   0.032   5.510
  550SOL     OW 2518   0.411   1.521   4.824
  550SOL    HW2 2519   0.456   1.583   4.881
  550SOL    HW3 2520   0.318   1.540   4.837
  550SOL    MW4 2521   0.404   1.531   4.831
  551SOL     OW 2522   1.851   1.050   5.178
  551SOL    HW2 2523   1.766   1.063   5.137
  551SOL    HW3 2524   1.831   1.014   5.265
  551SOL    MW4 2525   1.838   1.046   5.183
  552SOL     OW 2526   0.833   1.589   4.932
  552SOL    HW2 2527   0.857   1.578   4.841
  552SOL    HW3 2528   0.756   1.646   4.930
  552SOL    MW4 2529   0.825   1.594   4.921
  553SOL     OW 2530   0.475   0.972   3.787
  553SOL    HW2 2531   0.398   0.985   3.843
  553SOL    HW3 2532   0.439   0.936   3.706
  553SOL    MW4 2533   0.461   0.968   3.784
  554SOL     OW 2534   1.128   0.945   4.030
  554SOL    HW2 2535   1.038   0.966   4.005
  554SOL    HW3 2536   1.155   1.018   4.086
  554SOL    MW4 2537   1.120   0.957   4.033
  555SOL     OW 2538   0.628   1.294   4.722
  555SOL    HW2 2539   0.621   1.273   4.816
  555SOL    HW3 2540   0.546   1.262   4.685
  555SOL    MW4 2541   0.616   1.288   4.729
  556SOL     OW 2542   1.492   0.304   5.124
  556SOL    HW2 2543   1.439   0.306   5.204
  556SOL    HW3 2544   1.477   0.217   5.087
  556SOL    MW4 2545   1.484   0.294   5.129
  557SOL     OW 2546   1.828   0.228   4.997
  557SOL    HW2 2547   1.809   0.295   4.932
  557SOL    HW3 2548   1.885   0.166   4.952
  557SOL    MW4 2549   1.832   0.229   4.983
  558SOL     OW 2550   0.074   1.386   5.385
  558SOL    HW2 2551   0.118   1.319   5.331
  558SOL    HW3 2552  -0.011   1.348   5.405
  558SOL    MW4 2553   0.069   1.372   5.381
  559SOL     OW 2554   0.757   0.061   4.437
  559SOL    HW2 2555   0.686   0.122   4.419
  559SOL    HW3 2556   0.808   0.058   4.356
  559SOL    MW4 2557   0.753   0.067   4.424
  560SOL     OW 2558   0.515   1.301   4.186
  560SOL    HW2 2559   0.508   1.333   4.276
  560SOL    HW3 2560   0.425   1.285   4.158
  560SOL    MW4 2561   0.503   1.303   4.193
  561SOL     OW 2562   1.110   1.694   5.095
  561SOL    HW2 2563   1.030   1.679   5.045
  561SOL    HW3 2564   1.117   1.789   5.102
  561SOL    MW4 2565   1.101   1.705   5.089
  562SOL     OW 2566   1.224   1.659   4.585
  562SOL    HW2 2567   1.271   1.732   4.544
  562SOL    HW3 2568   1.145   1.698   4.621
  562SOL    MW4 2569   1.219   1.674   4.584
  563SOL     OW 2570   1.632   1.754   4.860
  563SOL    HW2 2571   1.675   1.724   4.940
  563SOL    HW3 2572   1.551   1.702   4.857
  563SOL    MW4 2573   1.627   1.743   4.870
  564SOL     OW 2574   0.717   0.718   5.567
  564SOL    HW2 2575   0.787   0.660   5.539
  564SOL    HW3 2576   0.660   0.663   5.622
  564SOL    MW4 2577   0.719   0.705   5.571
  565SOL     OW 2578   1.504   0.930   5.200
  565SOL    HW2 2579   1.509   0.983   5.280
  565SOL    HW3 2580   1.466   0.847   5.228
  565SOL    MW4 2581   1.500   0.925   5.215
  566SOL     OW 2582   1.144   0.065   5.446
  566SOL    HW2 2583   1.139  -0.028   5.427
  566SOL    HW3 2584   1.227   0.076   5.492
  566SOL    MW4 2585   1.152   0.054   5.450
  567SOL     OW 2586   0.518   0.585   3.900
  567SOL    HW2 2587   0.484   0.641   3.970
  567SOL    HW3 2588   0.589   0.535   3.940
  567SOL    MW4 2589   0.524   0.586   3.914
  568SOL     OW 2590   1.614   1.336   4.722
  568SOL    HW2 2591   1.649   1.318   4.635
  568SOL    HW3 2592   1.519   1.337   4.709
  568SOL    MW4 2593   1.606   1.333   4.709
  569SOL     OW 2594   1.043   0.984   5.091
  569SOL    HW2 2595   1.086   1.019   5.169
  569SOL    HW3 2596   1.026   1.061   5.037
  569SOL    MW4 2597   1.046   0.999   5.094
  570SOL     OW 2598   1.574   0.471   3.964
  570SOL    HW2 2599   1.566   0.542   3.901
  570SOL    HW3 2600   1.592   0.515   4.047
  570SOL    MW4 2601   1.575   0.485   3.966
  571SOL     OW 2602   0.434   0.126   4.393
  571SOL    HW2 2603   0.484   0.169   4.324
  571SOL    HW3 2604   0.349   0.170   4.393
  571SOL    MW4 2605   0.431   0.139   4.384
  572SOL     OW 2606   0.193   1.188   5.253
  572SOL    HW2 2607   0.221   1.141   5.331
  572SOL    HW3 2608   0.114   1.143   5.224
  572SOL    MW4 2609   0.186   1.177   5.259
  573SOL     OW 2610   0.701   0.515   5.220
  573SOL    HW2 2611   0.673   0.603   5.244
  573SOL    HW3 2612   0.670   0.459   5.291
  573SOL    MW4 2613   0.693   0.518   5.232
  574SOL     OW 2614   1.243   0.733   3.939
  574SOL    HW2 2615   1.290   0.751   3.858
  574SOL    HW3 2616   1.209   0.817   3.967
  574SOL    MW4 2617   1.245   0.747   3.932
  575SOL     OW 2618   0.356   0.911   4.433
  575SOL    HW2 2619   0.414   0.967   4.381
  575SOL    HW3 2620   0.400   0.826   4.435
  575SOL    MW4 2621   0.369   0.908   4.426
  576SOL     OW 2622   1.496   0.263   4.270
  576SOL    HW2 2623   1.418   0.213   4.295
  576SOL    HW3 2624   1.467   0.354   4.270
  576SOL    MW4 2625   1.482   0.267   4.273
  577SOL     OW 2626   1.082   0.225   4.429
  577SOL    HW2 2627   1.102   0.300   4.373
  577SOL    HW3 2628   1.062   0.264   4.514
  577SOL    MW4 2629   1.083   0.241   4.433
  578SOL     OW 2630   0.978   1.475   3.761
  578SOL    HW2 2631   1.005   1.553   3.713
  578SOL    HW3 2632   0.885   1.490   3.780
  578SOL    MW4 2633   0.969   1.488   3.757
  579SOL     OW 2634   1.842   0.998   5.448
  579SOL    HW2 2635   1.755   0.978   5.484
  579SOL    HW3 2636   1.896   0.924   5.473
  579SOL    MW4 2637   1.837   0.987   5.456
  580SOL     OW 2638   0.063   1.511   4.605
  580SOL    HW2 2639   0.095   1.515   4.696
  580SOL    HW3 2640  -0.032   1.519   4.613
  580SOL    MW4 2641   0.055   1.514   4.618
  581SOL     OW 2642   0.018   0.637   4.152
  581SOL    HW2 2643  -0.042   0.609   4.222
  581SOL    HW3 2644   0.092   0.577   4.158
  581SOL    MW4 2645   0.020   0.626   4.161
  582SOL     OW 2646   1.586   1.849   5.586
  582SOL    HW2 2647   1.631   1.773   5.551
  582SOL    HW3 2648   1.624   1.862   5.673
  582SOL    MW4 2649   1.596   1.842   5.592
  583SOL     OW 2650   1.186   1.368   4.312
  583SOL    HW2 2651   1.209   1.319   4.390
  583SOL    HW3 2652   1.267   1.410   4.284
  583SOL    MW4 2653   1.199   1.368   4.319
  584SOL     OW 2654   0.444   0.376   5.041
  584SOL    HW2 2655   0.477   0.457   5.081
  584SOL    HW3 2656   0.417   0.402   4.953
  584SOL    MW4 2657   0.443   0.390   5.035
  585SOL     OW 2658   0.398   0.343   4.777
  585SOL    HW2 2659   0.428   0.257   4.748
  585SOL    HW3 2660   0.303   0.336   4.780
  585SOL    MW4 2661   0.390   0.332   4.775
  586SOL     OW 2662   1.227   0.552   5.468
  586SOL    HW2 2663   1.279   0.487   5.421
  586SOL    HW3 2664   1.185   0.603   5.398
  586SOL    MW4 2665   1.228   0.549   5.451
  587SOL     OW 2666   1.326   0.347   5.329
  587SOL    HW2 2667   1.233   0.331   5.316
  587SOL    HW3 2668   1.352   0.285   5.397
  587SOL    MW4 2669   1.316   0.337   5.336
  588SOL     OW 2670   0.541   0.121   4.668
  588SOL    HW2 2671   0.551   0.030   4.694
  588SOL    HW3 2672   0.497   0.117   4.583
  588SOL    MW4 2673   0.537   0.109   4.660
  589SOL     OW 2674   0.635   1.736   5.214
  589SOL    HW2 2675   0.552   1.721   5.259
  589SOL    HW3 2676   0.694   1.669   5.249
  589SOL    MW4 2677   0.633   1.726   5.224
  590SOL     OW 2678   1.692   0.443   4.839
  590SOL    HW2 2679   1.625   0.476   4.899
  590SOL    HW3 2680   1.735   0.521   4.805
  590SOL    MW4 2681   1.690   0.458   4.843
  591SOL     OW 2682   1.870   1.163   4.809
  591SOL    HW2 2683   1.863   1.103   4.734
  591SOL    HW3 2684   1.796   1.223   4.798
  591SOL    MW4 2685   1.860   1.163   4.798
  592SOL     OW 2686   1.252   1.025   4.727
  592SOL    HW2 2687   1.266   0.997   4.818
  592SOL    HW3 2688   1.338   1.056   4.699
  592SOL    MW4 2689   1.265   1.026   4.736
  593SOL     OW 2690   1.335   0.520   5.006
  593SOL    HW2 2691   1.356   0.521   4.913
  593SOL    HW3 2692   1.380   0.442   5.039
  593SOL    MW4 2693   1.342   0.510   4.998
  594SOL     OW 2694   1.828   0.651   5.548
  594SOL    HW2 2695   1.865   0.596   5.617
  594SOL    HW3 2696   1.853   0.608   5.466
  594SOL    MW4 2697   1.835   0.639   5.547
  595SOL     OW 2698   1.375   0.949   5.600
  595SOL    HW2 2699   1.441   0.897   5.554
  595SOL    HW3 2700   1.395   0.936   5.693
  595SOL    MW4 2701   1.386   0.940   5.607
  596SOL     OW 2702   1.326   0.035   3.948
  596SOL    HW2 2703   1.400   0.079   3.991
  596SOL    HW3 2704   1.250   0.089   3.970
  596SOL    MW4 2705   1.326   0.047   3.956
  597SOL     OW 2706   1.386   0.810   4.226
  597SOL    HW2 2707   1.301   0.780   4.196
  597SOL    HW3 2708   1.378   0.817   4.321
  597SOL    MW4 2709   1.374   0.808   4.235
  598SOL     OW 2710   0.462   1.273   4.957
  598SOL    HW2 2711   0.474   1.300   5.048
  598SOL    HW3 2712   0.443   1.354   4.910
  598SOL    MW4 2713   0.461   1.288   4.962
  599SOL     OW 2714   0.746   0.253   4.780
  599SOL    HW2 2715   0.719   0.255   4.871
  599SOL    HW3 2716   0.676   0.205   4.735
  599SOL    MW4 2717   0.734   0.249   4.787
  600SOL     OW 2718   0.600   1.745   4.942
  600SOL    HW2 2719   0.652   1.822   4.919
  600SOL    HW3 2720   0.609   1.737   5.037
  600SOL    MW4 2721   0.609   1.752   4.953
  601SOL     OW 2722   1.502   1.330   5.174
  601SOL    HW2 2723   1.487   1.259   5.237
  601SOL    HW3 2724   1.548   1.288   5.102
  601SOL    MW4 2725   1.508   1.314   5.174
  602SOL     OW 2726   0.576   1.061   5.291
  602SOL    HW2 2727   0.613   1.066   5.203
  602SOL    HW3 2728   0.615   1.134   5.338
  602SOL    MW4 2729   0.586   1.071   5.286
  603SOL     OW 2730   0.756   1.104   5.103
  603SOL    HW2 2731   0.815   1.050   5.156
  603SOL    HW3 2732   0.771   1.076   5.013
  603SOL    MW4 2733   0.766   1.093   5.099
  604SOL     OW 2734   0.759   0.476   3.952
  604SOL    HW2 2735   0.832   0.525   3.915
  604SOL    HW3 2736   0.775   0.385   3.926
  604SOL    MW4 2737   0.771   0.471   3.945
  605SOL     OW 2738   1.567   1.593   5.275
  605SOL    HW2 2739   1.609   1.578   5.360
  605SOL    HW3 2740   1.558   1.506   5.237
  605SOL    MW4 2741   1.571   1.581   5.282
  606SOL     OW 2742   1.227   0.072   4.866
  606SOL    HW2 2743   1.282   0.081   4.788
  606SOL    HW3 2744   1.282   0.106   4.937
  606SOL    MW4 2745   1.241   0.077   4.865
  607SOL     OW 2746   0.234   0.985   4.050
  607SOL    HW2 2747   0.171   1.001   3.979
  607SOL    HW3 2748   0.181   0.948   4.121
  607SOL    MW4 2749   0.219   0.982   4.050
  608SOL     OW 2750   0.590   1.339   3.909
  608SOL    HW2 2751   0.605   1.315   4.001
  608SOL    HW3 2752   0.498   1.317   3.893
  608SOL    MW4 2753   0.580   1.332   3.919
  609SOL     OW 2754   1.129   1.570   4.061
  609SOL    HW2 2755   1.137   1.488   4.012
  609SOL    HW3 2756   1.048   1.609   4.028
  609SOL    MW4 2757   1.119   1.565   4.051
  610SOL     OW 2758   0.388   1.728   4.630
  610SOL    HW2 2759   0.392   1.639   4.665
  610SOL    HW3 2760   0.414   1.719   4.539
  610SOL    MW4 2761   0.391   1.716   4.622
  611SOL     OW 2762   1.005   1.206   4.873
  611SOL    HW2 2763   0.937   1.140   4.889
  611SOL    HW3 2764   1.023   1.200   4.780
  611SOL    MW4 2765   0.998   1.197   4.864
  612SOL     OW 2766   0.094   1.481   5.124
  612SOL    HW2 2767   0.084   1.439   5.210
  612SOL    HW3 2768   0.015   1.534   5.114
  612SOL    MW4 2769   0.083   1.482   5.135
  613SOL     OW 2770   0.998   0.345   4.694
  613SOL    HW2 2771   0.928   0.297   4.739
  613SOL    HW3 2772   1.030   0.408   4.758
  613SOL    MW4 2773   0.993   0.347   4.708
  614SOL     OW 2774   0.649   0.781   5.314
  614SOL    HW2 2775   0.642   0.876   5.302
  614SOL    HW3 2776   0.658   0.770   5.409
  614SOL    MW4 2777   0.650   0.793   5.324
  615SOL     OW 2778   0.370   1.296   5.572
  615SOL    HW2 2779   0.442   1.298   5.509
  615SOL    HW3 2780   0.340   1.205   5.571
  615SOL    MW4 2781   0.375   1.285   5.564
  616SOL     OW 2782   1.454   0.059   5.039
  616SOL    HW2 2783   1.525   0.005   5.003
  616SOL    HW3 2784   1.453   0.038   5.132
  616SOL    MW4 2785   1.463   0.050   5.047
  617SOL     OW 2786   1.654   1.589   5.523
  617SOL    HW2 2787   1.627   1.586   5.614
  617SOL    HW3 2788   1.750   1.593   5.526
  617SOL    MW4 2789   1.664   1.589   5.535
  618SOL     OW 2790   0.465   0.451   4.507
  618SOL    HW2 2791   0.536   0.399   4.470
  618SOL    HW3 2792   0.451   0.416   4.594
  618SOL    MW4 2793   0.473   0.440   4.514
  619SOL     OW 2794   0.020   1.786   5.579
  619SOL    HW2 2795   0.070   1.764   5.501
  619SOL    HW3 2796   0.028   1.881   5.587
  619SOL    MW4 2797   0.028   1.795   5.570
  620SOL     OW 2798   0.781   1.544   4.583
  620SOL    HW2 2799   0.709   1.481   4.596
  620SOL    HW3 2800   0.742   1.629   4.601
  620SOL    MW4 2801   0.765   1.547   4.586
  621SOL     OW 2802   1.101   0.392   4.231
  621SOL    HW2 2803   1.123   0.329   4.163
  621SOL    HW3 2804   1.006   0.384   4.242
  621SOL    MW4 2805   1.091   0.383   4.223
  622SOL     OW 2806   0.186   0.082   4.163
  622SOL    HW2 2807   0.257   0.103   4.102
  622SOL    HW3 2808   0.140   0.010   4.121
  622SOL    MW4 2809   0.190   0.076   4.149
  623SOL     OW 2810   0.017   0.549   5.306
  623SOL    HW2 2811   0.081   0.615   5.281
  623SOL    HW3 2812  -0.064   0.576   5.263
  623SOL    MW4 2813   0.015   0.561   5.298
  624SOL     OW 2814   1.755   1.456   4.263
  624SOL    HW2 2815   1.725   1.389   4.324
  624SOL    HW3 2816   1.849   1.462   4.277
  624SOL    MW4 2817   1.763   1.448   4.273
  625SOL     OW 2818   1.311   1.133   4.193
  625SOL    HW2 2819   1.283   1.219   4.226
  625SOL    HW3 2820   1.339   1.149   4.103
  625SOL    MW4 2821   1.311   1.147   4.185
  626SOL     OW 2822   0.973   0.053   4.246
  626SOL    HW2 2823   1.010   0.112   4.311
  626SOL    HW3 2824   0.950   0.109   4.172
  626SOL    MW4 2825   0.974   0.068   4.245
  627SOL     OW 2826   1.826   0.935   4.668
  627SOL    HW2 2827   1.817   0.967   4.579
  627SOL    HW3 2828   1.779   0.851   4.668
  627SOL    MW4 2829   1.819   0.928   4.658
  628SOL     OW 2830   0.202   0.775   5.247
  628SOL    HW2 2831   0.223   0.844   5.185
  628SOL    HW3 2832   0.282   0.722   5.252
  628SOL    MW4 2833   0.215   0.776   5.241
  629SOL     OW 2834   1.738   0.866   4.369
  629SOL    HW2 2835   1.832   0.855   4.357
  629SOL    HW3 2836   1.714   0.938   4.310
  629SOL    MW4 2837   1.748   0.874   4.360
  630SOL     OW 2838   0.187   0.790   5.514
  630SOL    HW2 2839   0.113   0.734   5.540
  630SOL    HW3 2840   0.182   0.793   5.419
  630SOL    MW4 2841   0.176   0.783   5.504
  631SOL     OW 2842   0.353   0.077   4.964
  631SOL    HW2 2843   0.396   0.161   4.984
  631SOL    HW3 2844   0.426   0.015   4.957
  631SOL    MW4 2845   0.368   0.080   4.965
  632SOL     OW 2846   0.394   0.744   4.142
  632SOL    HW2 2847   0.394   0.839   4.127
  632SOL    HW3 2848   0.471   0.728   4.196
  632SOL    MW4 2849   0.404   0.755   4.147
  633SOL     OW 2850   1.170   0.603   5.206
  633SOL    HW2 2851   1.206   0.576   5.122
  633SOL    HW3 2852   1.083   0.637   5.185
  633SOL    MW4 2853   1.164   0.604   5.193
  634SOL     OW 2854   0.153   0.475   4.431
  634SOL    HW2 2855   0.215   0.482   4.504
  634SOL    HW3 2856   0.153   0.382   4.408
  634SOL    MW4 2857   0.161   0.464   4.438
  635SOL     OW 2858   1.700   1.815   3.963
  635SOL    HW2 2859   1.767   1.848   3.903
  635SOL    HW3 2860   1.657   1.894   3.997
  635SOL    MW4 2861   1.702   1.830   3.959
  636SOL     OW 2862   0.835   0.736   4.915
  636SOL    HW2 2863   0.793   0.654   4.891
  636SOL    HW3 2864   0.836   0.735   5.011
  636SOL    MW4 2865   0.828   0.725   4.924
  637SOL     OW 2866   1.506   1.869   5.314
  637SOL    HW2 2867   1.509   1.775   5.297
  637SOL    HW3 2868   1.529   1.877   5.406
  637SOL    MW4 2869   1.509   1.857   5.324
  638SOL     OW 2870   0.639   0.206   5.020
  638SOL    HW2 2871   0.570   0.269   5.041
  638SOL    HW3 2872   0.666   0.170   5.105
  638SOL    MW4 2873   0.633   0.209   5.033
  639SOL     OW 2874   0.022   1.047   3.889
  639SOL    HW2 2875  -0.009   1.112   3.952
  639SOL    HW3 2876  -0.029   0.969   3.908
  639SOL    MW4 2877   0.012   1.044   3.899
  640SOL     OW 2878   1.434   0.059   4.637
  640SOL    HW2 2879   1.522   0.068   4.674
  640SOL    HW3 2880   1.444   0.000   4.563
  640SOL    MW4 2881   1.448   0.053   4.631
  641SOL     OW 2882   1.466   0.798   4.481
  641SOL    HW2 2883   1.546   0.813   4.430
  641SOL    HW3 2884   1.459   0.703   4.487
  641SOL    MW4 2885   1.475   0.787   4.476
  642SOL     OW 2886   0.606   1.847   3.831
  642SOL    HW2 2887   0.511   1.847   3.823
  642SOL    HW3 2888   0.622   1.793   3.909
  642SOL    MW4 2889   0.596   1.841   3.840
  643SOL     OW 2890   0.916   0.724   5.178
  643SOL    HW2 2891   0.985   0.791   5.175
  643SOL    HW3 2892   0.849   0.762   5.234
  643SOL    MW4 2893   0.917   0.737   5.185
  644SOL     OW 2894   0.334   1.024   5.426
  644SOL    HW2 2895   0.288   0.940   5.428
  644SOL    HW3 2896   0.391   1.018   5.350
  644SOL    MW4 2897   0.336   1.012   5.418
  645SOL     OW 2898   1.451   0.667   3.747
  645SOL    HW2 2899   1.379   0.643   3.689
  645SOL    HW3 2900   1.517   0.704   3.689
  645SOL    MW4 2901   1.450   0.669   3.732
  646SOL     OW 2902   0.585   1.399   4.427
  646SOL    HW2 2903   0.650   1.332   4.448
  646SOL    HW3 2904   0.637   1.476   4.404
  646SOL    MW4 2905   0.600   1.401   4.426
  647SOL     OW 2906   0.846   0.564   4.557
  647SOL    HW2 2907   0.786   0.582   4.629
  647SOL    HW3 2908   0.880   0.476   4.576
  647SOL    MW4 2909   0.842   0.554   4.570
  648SOL     OW 2910   1.787   0.063   5.226
  648SOL    HW2 2911   1.708   0.109   5.254
  648SOL    HW3 2912   1.822   0.117   5.155
  648SOL    MW4 2913   1.781   0.076   5.220
  649SOL     OW 2914   1.071   1.147   4.576
  649SOL    HW2 2915   1.163   1.128   4.594
  649SOL    HW3 2916   1.044   1.077   4.516
  649SOL    MW4 2917   1.079   1.135   4.570
  650SOL     OW 2918   0.864   0.967   3.931
  650SOL    HW2 2919   0.850   0.879   3.896
  650SOL    HW3 2920   0.815   1.024   3.872
  650SOL    MW4 2921   0.856   0.962   3.919
  651SOL     OW 2922   1.345   1.385   4.672
  651SOL    HW2 2923   1.318   1.469   4.637
  651SOL    HW3 2924   1.305   1.380   4.759
  651SOL    MW4 2925   1.338   1.394   4.678
  652SOL     OW 2926   1.264   1.333   4.940
  652SOL    HW2 2927   1.275   1.300   5.029
  652SOL    HW3 2928   1.183   1.292   4.909
  652SOL    MW4 2929   1.254   1.325   4.946
  653SOL     OW 2930   0.277   0.691   4.710
  653SOL    HW2 2931   0.227   0.690   4.791
  653SOL    HW3 2932   0.297   0.783   4.694
  653SOL    MW4 2933   0.273   0.703   4.718
  654SOL     OW 2934   1.344   1.455   5.472
  654SOL    HW2 2935   1.344   1.549   5.488
  654SOL    HW3 2936   1.389   1.445   5.388
  654SOL    MW4 2937   1.350   1.465   5.463
  655SOL     OW 2938   1.583   0.173   4.033
  655SOL    HW2 2939   1.576   0.177   4.128
  655SOL    HW3 2940   1.595   0.264   4.006
  655SOL    MW4 2941   1.584   0.186   4.041
  656SOL     OW 2942   0.872   0.736   4.147
  656SOL    HW2 2943   0.852   0.722   4.054
  656SOL    HW3 2944   0.965   0.715   4.154
  656SOL    MW4 2945   0.882   0.731   4.136
  657SOL     OW 2946   0.199   0.359   5.451
  657SOL    HW2 2947   0.156   0.418   5.388
  657SOL    HW3 2948   0.267   0.414   5.491
  657SOL    MW4 2949   0.203   0.374   5.448
  658SOL     OW 2950   1.311   0.979   4.996
  658SOL    HW2 2951   1.374   0.976   5.069
  658SOL    HW3 2952   1.227   0.997   5.038
  658SOL    MW4 2953   1.307   0.981   5.011
  659SOL     OW 2954   0.855   1.694   4.185
  659SOL    HW2 2955   0.913   1.765   4.212
  659SOL    HW3 2956   0.878   1.622   4.243
  659SOL    MW4 2957   0.866   1.694   4.196
  660SOL     OW 2958   1.650   0.156   4.775
  660SOL    HW2 2959   1.695   0.074   4.794
  660SOL    HW3 2960   1.670   0.212   4.851
  660SOL    MW4 2961   1.660   0.152   4.787
  661SOL     OW 2962   0.098  -0.001   4.874
  661SOL    HW2 2963   0.089   0.000   4.779
  661SOL    HW3 2964   0.192   0.011   4.889
  661SOL    MW4 2965   0.110   0.002   4.865
  662SOL     OW 2966   1.735   1.192   4.494
  662SOL    HW2 2967   1.714   1.138   4.417
  662SOL    HW3 2968   1.831   1.190   4.498
  662SOL    MW4 2969   1.744   1.185   4.483
  663SOL     OW 2970   0.427   1.337   5.237
  663SOL    HW2 2971   0.348   1.287   5.260
  663SOL    HW3 2972   0.497   1.296   5.287
  663SOL    MW4 2973   0.425   1.325   5.247
  664SOL     OW 2974   0.311   0.126   3.920
  664SOL    HW2 2975   0.240   0.181   3.888
  664SOL    HW3 2976   0.353   0.092   3.841
  664SOL    MW4 2977   0.307   0.128   3.906
  665SOL     OW 2978   1.435   0.623   4.756
  665SOL    HW2 2979   1.358   0.669   4.722
  665SOL    HW3 2980   1.492   0.692   4.790
  665SOL    MW4 2981   1.432   0.638   4.756
  666SOL     OW 2982   0.067   0.225   3.769
  666SOL    HW2 2983   0.034   0.304   3.813
  666SOL    HW3 2984   0.122   0.258   3.698
  666SOL    MW4 2985   0.070   0.239   3.766
  667SOL     OW 2986   0.101   1.482   3.958
  667SOL    HW2 2987   0.118   1.566   4.000
  667SOL    HW3 2988   0.136   1.491   3.870
  667SOL    MW4 2989   0.106   1.495   3.952
  668SOL     OW 2990   1.373   1.571   4.175
  668SOL    HW2 2991   1.436   1.561   4.104
  668SOL    HW3 2992   1.290   1.591   4.130
  668SOL    MW4 2993   1.370   1.572   4.160
  669SOL     OW 2994   1.736   0.839   5.862
  669SOL    HW2 2995   1.777   0.781   5.927
  669SOL    HW3 2996   1.643   0.831   5.879
  669SOL    MW4 2997   1.730   0.831   5.872
  670SOL     OW 2998   0.530   1.022   6.091
  670SOL    HW2 2999   0.620   0.997   6.075
  670SOL    HW3 3000   0.526   1.115   6.068
  670SOL    MW4 3001   0.542   1.031   6.086
  671SOL     OW 3002   1.646   1.725   6.233
  671SOL    HW2 3003   1.658   1.671   6.311
  671SOL    HW3 3004   1.683   1.673   6.162
  671SOL    MW4 3005   1.652   1.710   6.234
  672SOL     OW 3006   0.814   0.478   6.104
  672SOL    HW2 3007   0.789   0.566   6.132
  672SOL    HW3 3008   0.811   0.481   6.008
  672SOL    MW4 3009   0.810   0.490   6.096
  673SOL     OW 3010   0.256   0.506   6.032
  673SOL    HW2 3011   0.288   0.594   6.014
  673SOL    HW3 3012   0.244   0.504   6.127
  673SOL    MW4 3013   0.259   0.518   6.044
  674SOL     OW 3014   0.655   0.261   6.119
  674SOL    HW2 3015   0.713   0.337   6.121
  674SOL    HW3 3016   0.590   0.282   6.052
  674SOL    MW4 3017   0.654   0.273   6.110
  675SOL     OW 3018   0.742   1.188   6.294
  675SOL    HW2 3019   0.822   1.191   6.346
  675SOL    HW3 3020   0.770   1.155   6.208
  675SOL    MW4 3021   0.756   1.184   6.289
  676SOL     OW 3022   0.519   0.692   6.285
  676SOL    HW2 3023   0.504   0.612   6.336
  676SOL    HW3 3024   0.601   0.727   6.319
  676SOL    MW4 3025   0.527   0.684   6.297
  677SOL     OW 3026   0.661   0.518   6.662
  677SOL    HW2 3027   0.567   0.514   6.680
  677SOL    HW3 3028   0.691   0.427   6.671
  677SOL    MW4 3029   0.652   0.506   6.665
  678SOL     OW 3030   0.407   0.932   6.566
  678SOL    HW2 3031   0.362   0.939   6.482
  678SOL    HW3 3032   0.387   1.015   6.610
  678SOL    MW4 3033   0.399   0.944   6.560
  679SOL     OW 3034   0.104   1.778   6.441
  679SOL    HW2 3035   0.193   1.770   6.476
  679SOL    HW3 3036   0.068   1.690   6.446
  679SOL    MW4 3037   0.111   1.765   6.446
  680SOL     OW 3038   1.369   1.170   5.810
  680SOL    HW2 3039   1.287   1.206   5.776
  680SOL    HW3 3040   1.437   1.213   5.759
  680SOL    MW4 3041   1.367   1.180   5.798
  681SOL     OW 3042   0.368   1.305   6.476
  681SOL    HW2 3043   0.344   1.358   6.552
  681SOL    HW3 3044   0.424   1.363   6.424
  681SOL    MW4 3045   0.372   1.320   6.479
  682SOL     OW 3046   0.930   0.949   6.286
  682SOL    HW2 3047   0.844   0.936   6.326
  682SOL    HW3 3048   0.983   0.876   6.318
  682SOL    MW4 3049   0.926   0.938   6.295
  683SOL     OW 3050   0.921   1.311   6.003
  683SOL    HW2 3051   0.898   1.373   6.071
  683SOL    HW3 3052   0.878   1.229   6.029
  683SOL    MW4 3053   0.913   1.307   6.014
  684SOL     OW 3054   1.794   0.312   6.459
  684SOL    HW2 3055   1.731   0.292   6.528
  684SOL    HW3 3056   1.784   0.241   6.396
  684SOL    MW4 3057   1.784   0.299   6.460
  685SOL     OW 3058   0.418   0.284   5.971
  685SOL    HW2 3059   0.392   0.246   5.887
  685SOL    HW3 3060   0.355   0.354   5.987
  685SOL    MW4 3061   0.407   0.287   5.962
  686SOL     OW 3062   0.253   1.245   6.008
  686SOL    HW2 3063   0.201   1.313   5.964
  686SOL    HW3 3064   0.250   1.171   5.948
  686SOL    MW4 3065   0.245   1.244   5.995
  687SOL     OW 3066   0.915   1.708   5.786
  687SOL    HW2 3067   0.870   1.724   5.869
  687SOL    HW3 3068   0.846   1.673   5.728
  687SOL    MW4 3069   0.901   1.705   5.788
  688SOL     OW 3070   1.850   0.481   5.761
  688SOL    HW2 3071   1.759   0.483   5.789
  688SOL    HW3 3072   1.895   0.543   5.819
  688SOL    MW4 3073   1.843   0.489   5.771
  689SOL     OW 3074   1.595   1.084   6.111
  689SOL    HW2 3075   1.505   1.084   6.146
  689SOL    HW3 3076   1.588   1.130   6.028
  689SOL    MW4 3077   1.582   1.090   6.105
  690SOL     OW 3078   0.136   1.599   6.735
  690SOL    HW2 3079   0.119   1.545   6.812
  690SOL    HW3 3080   0.124   1.689   6.765
  690SOL    MW4 3081   0.133   1.603   6.749
  691SOL     OW 3082   1.502   1.062   6.503
  691SOL    HW2 3083   1.505   0.996   6.434
  691SOL    HW3 3084   1.587   1.105   6.499
  691SOL    MW4 3085   1.514   1.058   6.494
  692SOL     OW 3086   1.122   0.665   6.072
  692SOL    HW2 3087   1.148   0.689   5.983
  692SOL    HW3 3088   1.104   0.572   6.068
  692SOL    MW4 3089   1.124   0.657   6.059
  693SOL     OW 3090   1.787   1.285   5.923
  693SOL    HW2 3091   1.743   1.326   5.998
  693SOL    HW3 3092   1.844   1.353   5.888
  693SOL    MW4 3093   1.789   1.299   5.928
  694SOL     OW 3094   0.443   1.701   6.241
  694SOL    HW2 3095   0.475   1.789   6.219
  694SOL    HW3 3096   0.396   1.673   6.163
  694SOL    MW4 3097   0.442   1.709   6.228
  695SOL     OW 3098   1.827   0.063   6.290
  695SOL    HW2 3099   1.881   0.014   6.352
  695SOL    HW3 3100   1.770  -0.003   6.251
  695SOL    MW4 3101   1.827   0.047   6.292
  696SOL     OW 3102   0.159   1.761   5.818
  696SOL    HW2 3103   0.188   1.851   5.810
  696SOL    HW3 3104   0.109   1.744   5.739
  696SOL    MW4 3105   0.157   1.769   5.807
  697SOL     OW 3106   0.946   0.016   6.703
  697SOL    HW2 3107   0.905   0.094   6.665
  697SOL    HW3 3108   1.040   0.034   6.698
  697SOL    MW4 3109   0.952   0.028   6.698
  698SOL     OW 3110   1.563   1.569   5.789
  698SOL    HW2 3111   1.611   1.638   5.835
  698SOL    HW3 3112   1.484   1.613   5.758
  698SOL    MW4 3113   1.558   1.583   5.792
  699SOL     OW 3114   0.961   0.694   5.733
  699SOL    HW2 3115   0.963   0.641   5.654
  699SOL    HW3 3116   1.049   0.731   5.739
  699SOL    MW4 3117   0.973   0.693   5.722
  700SOL     OW 3118   1.575   0.620   6.069
  700SOL    HW2 3119   1.614   0.620   6.156
  700SOL    HW3 3120   1.516   0.696   6.069
  700SOL    MW4 3121   1.572   0.631   6.080
  701SOL     OW 3122   1.061   0.613   6.792
  701SOL    HW2 3123   1.136   0.642   6.739
  701SOL    HW3 3124   0.993   0.678   6.776
  701SOL    MW4 3125   1.062   0.625   6.782
  702SOL     OW 3126   1.762   0.506   6.235
  702SOL    HW2 3127   1.851   0.475   6.252
  702SOL    HW3 3128   1.705   0.446   6.283
  702SOL    MW4 3129   1.765   0.494   6.244
  703SOL     OW 3130   0.188   0.220   6.264
  703SOL    HW2 3131   0.179   0.160   6.190
  703SOL    HW3 3132   0.121   0.191   6.327
  703SOL    MW4 3133   0.178   0.207   6.262
  704SOL     OW 3134   1.131   1.313   5.825
  704SOL    HW2 3135   1.081   1.315   5.907
  704SOL    HW3 3136   1.065   1.331   5.757
  704SOL    MW4 3137   1.117   1.315   5.827
  705SOL     OW 3138   0.135   0.393   6.627
  705SOL    HW2 3139   0.107   0.484   6.636
  705SOL    HW3 3140   0.072   0.354   6.566
  705SOL    MW4 3141   0.122   0.399   6.621
  706SOL     OW 3142   0.594   1.731   5.933
  706SOL    HW2 3143   0.515   1.689   5.966
  706SOL    HW3 3144   0.660   1.714   6.000
  706SOL    MW4 3145   0.593   1.723   5.946
  707SOL     OW 3146   0.730   1.146   5.640
  707SOL    HW2 3147   0.652   1.092   5.627
  707SOL    HW3 3148   0.701   1.219   5.693
  707SOL    MW4 3149   0.716   1.148   5.645
  708SOL     OW 3150   1.856   0.886   6.832
  708SOL    HW2 3151   1.872   0.924   6.745
  708SOL    HW3 3152   1.890   0.952   6.893
  708SOL    MW4 3153   1.863   0.899   6.828
  709SOL     OW 3154   1.648   1.595   6.501
  709SOL    HW2 3155   1.677   1.662   6.562
  709SOL    HW3 3156   1.629   1.519   6.556
  709SOL    MW4 3157   1.650   1.595   6.516
  710SOL     OW 3158   1.311   1.662   5.708
  710SOL    HW2 3159   1.237   1.625   5.758
  710SOL    HW3 3160   1.319   1.752   5.741
  710SOL    MW4 3161   1.302   1.669   5.720
  711SOL     OW 3162   1.535   1.336   5.650
  711SOL    HW2 3163   1.482   1.385   5.586
  711SOL    HW3 3164   1.566   1.402   5.711
  711SOL    MW4 3165   1.533   1.350   5.648
  712SOL     OW 3166   0.760   0.225   5.705
  712SOL    HW2 3167   0.708   0.145   5.693
  712SOL    HW3 3168   0.847   0.202   5.673
  712SOL    MW4 3169   0.763   0.211   5.699
  713SOL     OW 3170   0.266   1.096   6.756
  713SOL    HW2 3171   0.319   1.171   6.781
  713SOL    HW3 3172   0.185   1.134   6.722
  713SOL    MW4 3173   0.262   1.111   6.756
  714SOL     OW 3174   0.806   1.000   6.744
  714SOL    HW2 3175   0.834   0.909   6.756
  714SOL    HW3 3176   0.735   0.994   6.680
  714SOL    MW4 3177   0.799   0.988   6.739
  715SOL     OW 3178   0.121   0.865   6.162
  715SOL    HW2 3179   0.212   0.880   6.189
  715SOL    HW3 3180   0.124   0.786   6.108
  715SOL    MW4 3181   0.133   0.857   6.160
  716SOL     OW 3182   0.748   1.797   6.536
  716SOL    HW2 3183   0.837   1.812   6.566
  716SOL    HW3 3184   0.743   1.844   6.452
  716SOL    MW4 3185   0.758   1.805   6.529
  717SOL     OW 3186   0.129   1.477   6.201
  717SOL    HW2 3187   0.101   1.516   6.283
  717SOL    HW3 3188   0.149   1.386   6.223
  717SOL    MW4 3189   0.127   1.469   6.214
  718SOL     OW 3190   0.962   1.520   6.236
  718SOL    HW2 3191   1.045   1.474   6.220
  718SOL    HW3 3192   0.952   1.519   6.332
  718SOL    MW4 3193   0.972   1.513   6.246
  719SOL     OW 3194   1.794   0.665   6.550
  719SOL    HW2 3195   1.883   0.695   6.532
  719SOL    HW3 3196   1.774   0.605   6.479
  719SOL    MW4 3197   1.803   0.662   6.539
  720SOL     OW 3198   0.695   1.577   5.641
  720SOL    HW2 3199   0.635   1.646   5.611
  720SOL    HW3 3200   0.640   1.519   5.694
  720SOL    MW4 3201   0.679   1.579   5.643
  721SOL     OW 3202   1.133   0.222   5.864
  721SOL    HW2 3203   1.066   0.198   5.801
  721SOL    HW3 3204   1.198   0.271   5.813
  721SOL    MW4 3205   1.133   0.224   5.849
  722SOL     OW 3206   1.200   0.744   6.572
  722SOL    HW2 3207   1.213   0.838   6.582
  722SOL    HW3 3208   1.161   0.734   6.486
  722SOL    MW4 3209   1.196   0.755   6.562
  723SOL     OW 3210   0.652   0.939   6.376
  723SOL    HW2 3211   0.563   0.930   6.409
  723SOL    HW3 3212   0.656   1.029   6.344
  723SOL    MW4 3213   0.641   0.950   6.376
  724SOL     OW 3214   1.451   0.522   6.371
  724SOL    HW2 3215   1.396   0.443   6.370
  724SOL    HW3 3216   1.433   0.563   6.455
  724SOL    MW4 3217   1.441   0.517   6.380
  725SOL     OW 3218   1.070   0.726   6.328
  725SOL    HW2 3219   1.007   0.658   6.352
  725SOL    HW3 3220   1.090   0.707   6.236
  725SOL    MW4 3221   1.064   0.713   6.320
  726SOL     OW 3222   0.326   1.621   6.030
  726SOL    HW2 3223   0.287   1.668   5.956
  726SOL    HW3 3224   0.260   1.556   6.055
  726SOL    MW4 3225   0.313   1.619   6.024
  727SOL     OW 3226   0.818   1.030   6.054
  727SOL    HW2 3227   0.820   1.004   5.961
  727SOL    HW3 3228   0.876   0.967   6.097
  727SOL    MW4 3229   0.826   1.019   6.048
  728SOL     OW 3230   1.375   1.798   6.256
  728SOL    HW2 3231   1.318   1.751   6.195
  728SOL    HW3 3232   1.461   1.759   6.243
  728SOL    MW4 3233   1.378   1.789   6.246
  729SOL     OW 3234   1.328   0.274   6.387
  729SOL    HW2 3235   1.356   0.206   6.448
  729SOL    HW3 3236   1.242   0.245   6.357
  729SOL    MW4 3237   1.321   0.261   6.391
  730SOL     OW 3238   0.133   1.208   6.321
  730SOL    HW2 3239   0.197   1.240   6.384
  730SOL    HW3 3240   0.182   1.144   6.269
  730SOL    MW4 3241   0.148   1.204   6.322
  731SOL     OW 3242   1.308   0.378   5.722
  731SOL    HW2 3243   1.281   0.444   5.658
  731SOL    HW3 3244   1.378   0.421   5.772
  731SOL    MW4 3245   1.313   0.391   5.719
  732SOL     OW 3246   0.976   0.083   5.659
  732SOL    HW2 3247   1.032   0.075   5.581
  732SOL    HW3 3248   0.953  -0.007   5.681
  732SOL    MW4 3249   0.981   0.070   5.652
  733SOL     OW 3250   1.481   0.934   5.864
  733SOL    HW2 3251   1.448   1.023   5.854
  733SOL    HW3 3252   1.446   0.905   5.949
  733SOL    MW4 3253   1.471   0.943   5.875
  734SOL     OW 3254   0.411   1.521   6.693
  734SOL    HW2 3255   0.456   1.583   6.750
  734SOL    HW3 3256   0.318   1.540   6.706
  734SOL    MW4 3257   0.404   1.531   6.700
  735SOL     OW 3258   0.833   1.589   6.801
  735SOL    HW2 3259   0.857   1.578   6.710
  735SOL    HW3 3260   0.756   1.646   6.799
  735SOL    MW4 3261   0.825   1.594   6.790
  736SOL     OW 3262   0.475   0.972   5.656
  736SOL    HW2 3263   0.398   0.985   5.712
  736SOL    HW3 3264   0.439   0.936   5.575
  736SOL    MW4 3265   0.461   0.968   5.653
  737SOL     OW 3266   1.128   0.945   5.899
  737SOL    HW2 3267   1.038   0.966   5.874
  737SOL    HW3 3268   1.155   1.018   5.955
  737SOL    MW4 3269   1.120   0.957   5.902
  738SOL     OW 3270   0.628   1.294   6.591
  738SOL    HW2 3271   0.621   1.273   6.685
  738SOL    HW3 3272   0.546   1.262   6.554
  738SOL    MW4 3273   0.616   1.288   6.598
  739SOL     OW 3274   0.757   0.061   6.306
  739SOL    HW2 3275   0.686   0.122   6.288
  739SOL    HW3 3276   0.808   0.058   6.225
  739SOL    MW4 3277   0.753   0.067   6.293
  740SOL     OW 3278   0.515   1.301   6.055
  740SOL    HW2 3279   0.508   1.333   6.145
  740SOL    HW3 3280   0.425   1.285   6.027
  740SOL    MW4 3281   0.503   1.303   6.062
  741SOL     OW 3282   1.224   1.659   6.454
  741SOL    HW2 3283   1.271   1.732   6.413
  741SOL    HW3 3284   1.145   1.698   6.490
  741SOL    MW4 3285   1.219   1.674   6.453
  742SOL     OW 3286   1.632   1.754   6.729
  742SOL    HW2 3287   1.675   1.724   6.809
  742SOL    HW3 3288   1.551   1.702   6.726
  742SOL    MW4 3289   1.627   1.743   6.739
  743SOL     OW 3290   0.518   0.585   5.769
  743SOL    HW2 3291   0.484   0.641   5.839
  743SOL    HW3 3292   0.589   0.535   5.809
  743SOL    MW4 3293   0.524   0.586   5.783
  744SOL     OW 3294   1.614   1.336   6.591
  744SOL    HW2 3295   1.649   1.318   6.504
  744SOL    HW3 3296   1.519   1.337   6.578
  744SOL    MW4 3297   1.606   1.333   6.578
  745SOL     OW 3298   1.574   0.471   5.833
  745SOL    HW2 3299   1.566   0.542   5.770
  745SOL    HW3 3300   1.592   0.515   5.916
  745SOL    MW4 3301   1.575   0.485   5.835
  746SOL     OW 3302   0.434   0.126   6.262
  746SOL    HW2 3303   0.484   0.169   6.193
  746SOL    HW3 3304   0.349   0.170   6.262
  746SOL    MW4 3305   0.431   0.139   6.253
  747SOL     OW 3306   1.243   0.733   5.808
  747SOL    HW2 3307   1.290   0.751   5.727
  747SOL    HW3 3308   1.209   0.817   5.836
  747SOL    MW4 3309   1.245   0.747   5.801
  748SOL     OW 3310   0.356   0.911   6.302
  748SOL    HW2 3311   0.414   0.967   6.250
  748SOL    HW3 3312   0.400   0.826   6.304
  748SOL    MW4 3313   0.369   0.908   6.295
  749SOL     OW 3314   1.496   0.263   6.139
  749SOL    HW2 3315   1.418   0.213   6.164
  749SOL    HW3 3316   1.467   0.354   6.139
  749SOL    MW4 3317   1.482   0.267   6.142
  750SOL     OW 3318   1.082   0.225   6.298
  750SOL    HW2 3319   1.102   0.300   6.242
  750SOL    HW3 3320   1.062   0.264   6.383
  750SOL    MW4 3321   1.083   0.241   6.302
  751SOL     OW 3322   0.978   1.475   5.630
  751SOL    HW2 3323   1.005   1.553   5.582
  751SOL    HW3 3324   0.885   1.490   5.649
  751SOL    MW4 3325   0.969   1.488   5.626
  752SOL     OW 3326   0.063   1.511   6.474
  752SOL    HW2 3327   0.095   1.515   6.565
  752SOL    HW3 3328  -0.032   1.519   6.482
  752SOL    MW4 3329   0.055   1.514   6.487
  753SOL     OW 3330   0.018   0.637   6.021
  753SOL    HW2 3331  -0.042   0.609   6.091
  753SOL    HW3 3332   0.092   0.577   6.027
  753SOL    MW4 3333   0.020   0.626   6.030
  754SOL     OW 3334   1.186   1.368   6.181
  754SOL    HW2 3335   1.209   1.319   6.259
  754SOL    HW3 3336   1.267   1.410   6.153
  754SOL    MW4 3337   1.199   1.368   6.188
  755SOL     OW 3338   0.398   0.343   6.646
  755SOL    HW2 3339   0.428   0.257   6.617
  755SOL    HW3 3340   0.303   0.336   6.649
  755SOL    MW4 3341   0.390   0.332   6.644
  756SOL     OW 3342   0.541   0.121   6.537
  756SOL    HW2 3343   0.551   0.030   6.563
  756SOL    HW3 3344   0.497   0.117   6.452
  756SOL    MW4 3345   0.537   0.109   6.529
  757SOL     OW 3346   1.692   0.443   6.708
  757SOL    HW2 3347   1.625   0.476   6.768
  757SOL    HW3 3348   1.735   0.521   6.674
  757SOL    MW4 3349   1.690   0.458   6.712
  758SOL     OW 3350   1.870   1.163   6.678
  758SOL    HW2 3351   1.863   1.103   6.603
  758SOL    HW3 3352   1.796   1.223   6.667
  758SOL    MW4 3353   1.860   1.163   6.667
  759SOL     OW 3354   1.252   1.025   6.596
  759SOL    HW2 3355   1.266   0.997   6.687
  759SOL    HW3 3356   1.338   1.056   6.568
  759SOL    MW4 3357   1.265   1.026   6.605
  760SOL     OW 3358   1.326   0.035   5.817
  760SOL    HW2 3359   1.400   0.079   5.860
  760SOL    HW3 3360   1.250   0.089   5.839
  760SOL    MW4 3361   1.326   0.047   5.825
  761SOL     OW 3362   1.386   0.810   6.095
  761SOL    HW2 3363   1.301   0.780   6.065
  761SOL    HW3 3364   1.378   0.817   6.190
  761SOL    MW4 3365   1.374   0.808   6.104
  762SOL     OW 3366   0.746   0.253   6.649
  762SOL    HW2 3367   0.719   0.255   6.740
  762SOL    HW3 3368   0.676   0.205   6.604
  762SOL    MW4 3369   0.734   0.249   6.656
  763SOL     OW 3370   0.759   0.476   5.821
  763SOL    HW2 3371   0.832   0.525   5.784
  763SOL    HW3 3372   0.775   0.385   5.795
  763SOL    MW4 3373   0.771   0.471   5.814
  764SOL     OW 3374   1.227   0.072   6.735
  764SOL    HW2 3375   1.282   0.081   6.657
  764SOL    HW3 3376   1.282   0.106   6.806
  764SOL    MW4 3377   1.241   0.077   6.734
  765SOL     OW 3378   0.234   0.985   5.919
  765SOL    HW2 3379   0.171   1.001   5.848
  765SOL    HW3 3380   0.181   0.948   5.990
  765SOL    MW4 3381   0.219   0.982   5.919
  766SOL     OW 3382   0.590   1.339   5.778
  766SOL    HW2 3383   0.605   1.315   5.870
  766SOL    HW3 3384   0.498   1.317   5.762
  766SOL    MW4 3385   0.580   1.332   5.788
  767SOL     OW 3386   1.129   1.570   5.930
  767SOL    HW2 3387   1.137   1.488   5.881
  767SOL    HW3 3388   1.048   1.609   5.897
  767SOL    MW4 3389   1.119   1.565   5.920
  768SOL     OW 3390   0.388   1.728   6.499
  768SOL    HW2 3391   0.392   1.639   6.534
  768SOL    HW3 3392   0.414   1.719   6.408
  768SOL    MW4 3393   0.391   1.716   6.491
  769SOL     OW 3394   1.005   1.206   6.742
  769SOL    HW2 3395   0.937   1.140   6.758
  769SOL    HW3 3396   1.023   1.200   6.649
  769SOL    MW4 3397   0.998   1.197   6.733
  770SOL     OW 3398   0.998   0.345   6.563
  770SOL    HW2 3399   0.928   0.297   6.608
  770SOL    HW3 3400   1.030   0.408   6.627
  770SOL    MW4 3401   0.993   0.347   6.577
  771SOL     OW 3402   0.465   0.451   6.376
  771SOL    HW2 3403   0.536   0.399   6.339
  771SOL    HW3 3404   0.451   0.416   6.463
  771SOL    MW4 3405   0.473   0.440   6.383
  772SOL     OW 3406   0.781   1.544   6.452
  772SOL    HW2 3407   0.709   1.481   6.465
  772SOL    HW3 3408   0.742   1.629   6.470
  772SOL    MW4 3409   0.765   1.547   6.455
  773SOL     OW 3410   1.101   0.392   6.100
  773SOL    HW2 3411   1.123   0.329   6.032
  773SOL    HW3 3412   1.006   0.384   6.111
  773SOL    MW4 3413   1.091   0.383   6.092
  774SOL     OW 3414   0.186   0.082   6.032
  774SOL    HW2 3415   0.257   0.103   5.971
  774SOL    HW3 3416   0.140   0.010   5.990
  774SOL    MW4 3417   0.190   0.076   6.018
  775SOL     OW 3418   1.755   1.456   6.132
  775SOL    HW2 3419   1.725   1.389   6.193
  775SOL    HW3 3420   1.849   1.462   6.146
  775SOL    MW4 3421   1.763   1.448   6.142
  776SOL     OW 3422   1.311   1.133   6.062
  776SOL    HW2 3423   1.283   1.219   6.095
  776SOL    HW3 3424   1.339   1.149   5.972
  776SOL    MW4 3425   1.311   1.147   6.054
  777SOL     OW 3426   0.973   0.053   6.115
  777SOL    HW2 3427   1.010   0.112   6.180
  777SOL    HW3 3428   0.950   0.109   6.041
  777SOL    MW4 3429   0.974   0.068   6.114
  778SOL     OW 3430   1.826   0.935   6.537
  778SOL    HW2 3431   1.817   0.967   6.448
  778SOL    HW3 3432   1.779   0.851   6.537
  778SOL    MW4 3433   1.819   0.928   6.527
  779SOL     OW 3434   1.738   0.866   6.238
  779SOL    HW2 3435   1.832   0.855   6.226
  779SOL    HW3 3436   1.714   0.938   6.179
  779SOL    MW4 3437   1.748   0.874   6.229
  780SOL     OW 3438   0.394   0.744   6.011
  780SOL    HW2 3439   0.394   0.839   5.996
  780SOL    HW3 3440   0.471   0.728   6.065
  780SOL    MW4 3441   0.404   0.755   6.016
  781SOL     OW 3442   0.153   0.475   6.300
  781SOL    HW2 3443   0.215   0.482   6.373
  781SOL    HW3 3444   0.153   0.382   6.277
  781SOL    MW4 3445   0.161   0.464   6.307
  782SOL     OW 3446   1.700   1.815   5.832
  782SOL    HW2 3447   1.767   1.848   5.772
  782SOL    HW3 3448   1.657   1.894   5.866
  782SOL    MW4 3449   1.702   1.830   5.828
  783SOL     OW 3450   0.835   0.736   6.784
  783SOL    HW2 3451   0.793   0.654   6.760
  783SOL    HW3 3452   0.836   0.735   6.880
  783SOL    MW4 3453   0.828   0.725   6.793
  784SOL     OW 3454   0.022   1.047   5.758
  784SOL    HW2 3455  -0.009   1.112   5.821
  784SOL    HW3 3456  -0.029   0.969   5.777
  784SOL    MW4 3457   0.012   1.044   5.768
  785SOL     OW 3458   1.434   0.059   6.506
  785SOL    HW2 3459   1.522   0.068   6.543
  785SOL    HW3 3460   1.444   0.000   6.432
  785SOL    MW4 3461   1.448   0.053   6.500
  786SOL     OW 3462   1.466   0.798   6.350
  786SOL    HW2 3463   1.546   0.813   6.299
  786SOL    HW3 3464   1.459   0.703   6.356
  786SOL    MW4 3465   1.475   0.787   6.345
  787SOL     OW 3466   0.606   1.847   5.700
  787SOL    HW2 3467   0.511   1.847   5.692
  787SOL    HW3 3468   0.622   1.793   5.778
  787SOL    MW4 3469   0.596   1.841   5.709
  788SOL     OW 3470   1.451   0.667   5.615
  788SOL    HW2 3471   1.379   0.643   5.557
  788SOL    HW3 3472   1.517   0.704   5.557
  788SOL    MW4 3473   1.450   0.669   5.600
  789SOL     OW 3474   0.585   1.399   6.296
  789SOL    HW2 3475   0.650   1.332   6.317
  789SOL    HW3 3476   0.637   1.476   6.273
  789SOL    MW4 3477   0.600   1.401   6.295
  790SOL     OW 3478   0.846   0.564   6.426
  790SOL    HW2 3479   0.786   0.582   6.498
  790SOL    HW3 3480   0.880   0.476   6.445
  790SOL    MW4 3481   0.842   0.554   6.439
  791SOL     OW 3482   1.071   1.147   6.445
  791SOL    HW2 3483   1.163   1.128   6.463
  791SOL    HW3 3484   1.044   1.077   6.385
  791SOL    MW4 3485   1.079   1.135   6.439
  792SOL     OW 3486   0.864   0.967   5.800
  792SOL    HW2 3487   0.850   0.879   5.765
  792SOL    HW3 3488   0.815   1.024   5.741
  792SOL    MW4 3489   0.856   0.962   5.788
  793SOL     OW 3490   1.345   1.385   6.541
  793SOL    HW2 3491   1.318   1.469   6.506
  793SOL    HW3 3492   1.305   1.380   6.628
  793SOL    MW4 3493   1.338   1.394   6.547
  794SOL     OW 3494   0.277   0.691   6.579
  794SOL    HW2 3495   0.227   0.690   6.660
  794SOL    HW3 3496   0.297   0.783   6.563
  794SOL    MW4 3497   0.273   0.703   6.587
  795SOL     OW 3498   1.583   0.173   5.902
  795SOL    HW2 3499   1.576   0.177   5.997
  795SOL    HW3 3500   1.595   0.264   5.875
  795SOL    MW4 3501   1.584   0.186   5.910
  796SOL     OW 3502   0.872   0.736   6.016
  796SOL    HW2 3503   0.852   0.722   5.923
  796SOL    HW3 3504   0.965   0.715   6.023
  796SOL    MW4 3505   0.882   0.731   6.005
  797SOL     OW 3506   0.855   1.694   6.054
  797SOL    HW2 3507   0.913   1.765   6.081
  797SOL    HW3 3508   0.878   1.622   6.112
  797SOL    MW4 3509   0.866   1.694   6.065
  798SOL     OW 3510   1.650   0.156   6.644
  798SOL    HW2 3511   1.695   0.074   6.663
  798SOL    HW3 3512   1.670   0.212   6.720
  798SOL    MW4 3513   1.660   0.152   6.656
  799SOL     OW 3514   0.098  -0.001   6.743
  799SOL    HW2 3515   0.089   0.000   6.648
  799SOL    HW3 3516   0.192   0.011   6.758
  799SOL    MW4 3517   0.110   0.002   6.734
  800SOL     OW 3518   1.735   1.192   6.363
  800SOL    HW2 3519   1.714   1.138   6.286
  800SOL    HW3 3520   1.831   1.190   6.367
  800SOL    MW4 3521   1.744   1.185   6.352
  801SOL     OW 3522   0.311   0.126   5.789
  801SOL    HW2 3523   0.240   0.181   5.757
  801SOL    HW3 3524   0.353   0.092   5.710
  801SOL    MW4 3525   0.307   0.128   5.775
  802SOL     OW 3526   1.435   0.623   6.625
  802SOL    HW2 3527   1.358   0.669   6.591
  802SOL    HW3 3528   1.492   0.692   6.659
  802SOL    MW4 3529   1.432   0.638   6.625
  803SOL     OW 3530   0.067   0.225   5.638
  803SOL    HW2 3531   0.034   0.304   5.682
  803SOL    HW3 3532   0.122   0.258   5.567
  803SOL    MW4 3533   0.070   0.239   5.635
  804SOL     OW 3534   0.101   1.482   5.827
  804SOL    HW2 3535   0.118   1.566   5.869
  804SOL    HW3 3536   0.136   1.491   5.739
  804SOL    MW4 3537   0.106   1.495   5.821
  805SOL     OW 3538   1.373   1.571   6.044
  805SOL    HW2 3539   1.436   1.561   5.973
  805SOL    HW3 3540   1.290   1.591   5.999
  805SOL    MW4 3541   1.370   1.572   6.029
  806SOL     OW 3542   1.736   2.707   0.257
  806SOL    HW2 3543   1.777   2.649   0.322
  806SOL    HW3 3544   1.643   2.699   0.274
  806SOL    MW4 3545   1.730   2.699   0.267
  807SOL     OW 3546   1.602   2.639   1.252
  807SOL    HW2 3547   1.557   2.706   1.303
  807SOL    HW3 3548   1.690   2.675   1.238
  807SOL    MW4 3549   1.608   2.652   1.256
  808SOL     OW 3550   0.530   2.890   0.486
  808SOL    HW2 3551   0.620   2.865   0.470
  808SOL    HW3 3552   0.526   2.983   0.463
  808SOL    MW4 3553   0.542   2.899   0.481
  809SOL     OW 3554   1.646   3.593   0.628
  809SOL    HW2 3555   1.658   3.539   0.706
  809SOL    HW3 3556   1.683   3.541   0.557
  809SOL    MW4 3557   1.652   3.578   0.629
  810SOL     OW 3558   1.025   3.478   1.629
  810SOL    HW2 3559   1.066   3.514   1.550
  810SOL    HW3 3560   1.060   3.389   1.636
  810SOL    MW4 3561   1.036   3.471   1.620
  811SOL     OW 3562   1.582   3.033   1.233
  811SOL    HW2 3563   1.503   2.998   1.191
  811SOL    HW3 3564   1.609   3.105   1.177
  811SOL    MW4 3565   1.575   3.038   1.220
  812SOL     OW 3566   0.814   2.346   0.499
  812SOL    HW2 3567   0.789   2.434   0.527
  812SOL    HW3 3568   0.811   2.349   0.403
  812SOL    MW4 3569   0.810   2.358   0.491
  813SOL     OW 3570   0.256   2.374   0.427
  813SOL    HW2 3571   0.288   2.462   0.409
  813SOL    HW3 3572   0.244   2.372   0.522
  813SOL    MW4 3573   0.259   2.386   0.439
  814SOL     OW 3574   0.334   2.787   1.328
  814SOL    HW2 3575   0.397   2.734   1.279
  814SOL    HW3 3576   0.315   2.861   1.271
  814SOL    MW4 3577   0.340   2.789   1.315
  815SOL     OW 3578   0.655   2.129   0.514
  815SOL    HW2 3579   0.713   2.205   0.516
  815SOL    HW3 3580   0.590   2.150   0.447
  815SOL    MW4 3581   0.654   2.141   0.505
  816SOL     OW 3582   0.742   3.056   0.689
  816SOL    HW2 3583   0.822   3.059   0.741
  816SOL    HW3 3584   0.770   3.023   0.603
  816SOL    MW4 3585   0.756   3.052   0.684
  817SOL     OW 3586   0.767   3.397   1.592
  817SOL    HW2 3587   0.851   3.423   1.631
  817SOL    HW3 3588   0.791   3.341   1.518
  817SOL    MW4 3589   0.781   3.393   1.587
  818SOL     OW 3590   0.519   2.560   0.680
  818SOL    HW2 3591   0.504   2.480   0.731
  818SOL    HW3 3592   0.601   2.595   0.714
  818SOL    MW4 3593   0.527   2.552   0.692
  819SOL     OW 3594   0.856   3.246   1.365
  819SOL    HW2 3595   0.820   3.312   1.305
  819SOL    HW3 3596   0.784   3.184   1.378
  819SOL    MW4 3597   0.842   3.246   1.359
  820SOL     OW 3598   0.661   2.386   1.057
  820SOL    HW2 3599   0.567   2.382   1.075
  820SOL    HW3 3600   0.691   2.295   1.066
  820SOL    MW4 3601   0.652   2.374   1.060
  821SOL     OW 3602   0.407   2.800   0.961
  821SOL    HW2 3603   0.362   2.807   0.877
  821SOL    HW3 3604   0.387   2.883   1.005
  821SOL    MW4 3605   0.399   2.812   0.955
  822SOL     OW 3606   0.104   3.646   0.836
  822SOL    HW2 3607   0.193   3.638   0.871
  822SOL    HW3 3608   0.068   3.558   0.841
  822SOL    MW4 3609   0.111   3.633   0.841
  823SOL     OW 3610   1.369   3.038   0.205
  823SOL    HW2 3611   1.287   3.074   0.171
  823SOL    HW3 3612   1.437   3.081   0.154
  823SOL    MW4 3613   1.367   3.048   0.193
  824SOL     OW 3614   0.368   3.173   0.871
  824SOL    HW2 3615   0.344   3.226   0.947
  824SOL    HW3 3616   0.424   3.231   0.819
  824SOL    MW4 3617   0.372   3.188   0.874
  825SOL     OW 3618   0.930   2.817   0.681
  825SOL    HW2 3619   0.844   2.804   0.721
  825SOL    HW3 3620   0.983   2.744   0.713
  825SOL    MW4 3621   0.926   2.806   0.690
  826SOL     OW 3622   0.338   3.469   1.466
  826SOL    HW2 3623   0.246   3.445   1.451
  826SOL    HW3 3624   0.382   3.386   1.483
  826SOL    MW4 3625   0.332   3.454   1.465
  827SOL     OW 3626   0.921   3.179   0.398
  827SOL    HW2 3627   0.898   3.241   0.466
  827SOL    HW3 3628   0.878   3.097   0.424
  827SOL    MW4 3629   0.913   3.175   0.409
  828SOL     OW 3630   1.794   2.180   0.854
  828SOL    HW2 3631   1.731   2.160   0.923
  828SOL    HW3 3632   1.784   2.109   0.791
  828SOL    MW4 3633   1.784   2.167   0.855
  829SOL     OW 3634   0.418   2.152   0.366
  829SOL    HW2 3635   0.392   2.114   0.282
  829SOL    HW3 3636   0.355   2.222   0.382
  829SOL    MW4 3637   0.407   2.155   0.357
  830SOL     OW 3638   0.253   3.113   0.403
  830SOL    HW2 3639   0.201   3.181   0.359
  830SOL    HW3 3640   0.250   3.039   0.343
  830SOL    MW4 3641   0.245   3.112   0.390
  831SOL     OW 3642   0.915   3.576   0.181
  831SOL    HW2 3643   0.870   3.592   0.264
  831SOL    HW3 3644   0.846   3.541   0.123
  831SOL    MW4 3645   0.901   3.573   0.183
  832SOL     OW 3646   1.850   2.349   0.156
  832SOL    HW2 3647   1.759   2.351   0.184
  832SOL    HW3 3648   1.895   2.411   0.214
  832SOL    MW4 3649   1.843   2.357   0.166
  833SOL     OW 3650   1.595   2.952   0.506
  833SOL    HW2 3651   1.505   2.952   0.541
  833SOL    HW3 3652   1.588   2.998   0.423
  833SOL    MW4 3653   1.582   2.958   0.500
  834SOL     OW 3654   1.395   2.587   1.578
  834SOL    HW2 3655   1.464   2.525   1.555
  834SOL    HW3 3656   1.320   2.561   1.525
  834SOL    MW4 3657   1.395   2.574   1.569
  835SOL     OW 3658   0.136   3.467   1.130
  835SOL    HW2 3659   0.119   3.413   1.207
  835SOL    HW3 3660   0.124   3.557   1.160
  835SOL    MW4 3661   0.133   3.471   1.144
  836SOL     OW 3662   1.131   2.974   1.570
  836SOL    HW2 3663   1.116   3.067   1.555
  836SOL    HW3 3664   1.226   2.964   1.570
  836SOL    MW4 3665   1.140   2.984   1.567
  837SOL     OW 3666   0.927   2.398   1.771
  837SOL    HW2 3667   1.017   2.399   1.738
  837SOL    HW3 3668   0.886   2.323   1.729
  837SOL    MW4 3669   0.933   2.388   1.762
  838SOL     OW 3670   1.502   2.930   0.898
  838SOL    HW2 3671   1.505   2.864   0.829
  838SOL    HW3 3672   1.587   2.973   0.894
  838SOL    MW4 3673   1.514   2.926   0.889
  839SOL     OW 3674   1.122   2.533   0.467
  839SOL    HW2 3675   1.148   2.557   0.378
  839SOL    HW3 3676   1.104   2.440   0.463
  839SOL    MW4 3677   1.124   2.525   0.454
  840SOL     OW 3678   1.787   3.153   0.318
  840SOL    HW2 3679   1.743   3.194   0.393
  840SOL    HW3 3680   1.844   3.221   0.283
  840SOL    MW4 3681   1.789   3.167   0.323
  841SOL     OW 3682   0.707   2.202   1.721
  841SOL    HW2 3683   0.717   2.128   1.661
  841SOL    HW3 3684   0.743   2.171   1.804
  841SOL    MW4 3685   0.713   2.188   1.723
  842SOL     OW 3686   0.443   3.569   0.636
  842SOL    HW2 3687   0.475   3.657   0.614
  842SOL    HW3 3688   0.396   3.541   0.558
  842SOL    MW4 3689   0.442   3.577   0.623
  843SOL     OW 3690   1.827   1.931   0.685
  843SOL    HW2 3691   1.881   1.882   0.747
  843SOL    HW3 3692   1.770   1.865   0.646
  843SOL    MW4 3693   1.827   1.915   0.687
  844SOL     OW 3694   0.159   3.629   0.213
  844SOL    HW2 3695   0.188   3.719   0.205
  844SOL    HW3 3696   0.109   3.612   0.134
  844SOL    MW4 3697   0.157   3.637   0.202
  845SOL     OW 3698   0.946   1.884   1.098
  845SOL    HW2 3699   0.905   1.962   1.060
  845SOL    HW3 3700   1.040   1.902   1.093
  845SOL    MW4 3701   0.952   1.896   1.093
  846SOL     OW 3702   1.563   3.437   0.184
  846SOL    HW2 3703   1.611   3.506   0.230
  846SOL    HW3 3704   1.484   3.481   0.153
  846SOL    MW4 3705   1.558   3.451   0.187
  847SOL     OW 3706   0.961   2.562   0.128
  847SOL    HW2 3707   0.963   2.509   0.049
  847SOL    HW3 3708   1.049   2.599   0.134
  847SOL    MW4 3709   0.973   2.561   0.117
  848SOL     OW 3710   1.575   2.488   0.464
  848SOL    HW2 3711   1.614   2.488   0.551
  848SOL    HW3 3712   1.516   2.564   0.464
  848SOL    MW4 3713   1.572   2.499   0.475
  849SOL     OW 3714   0.892   2.855   1.593
  849SOL    HW2 3715   0.869   2.835   1.683
  849SOL    HW3 3716   0.977   2.899   1.598
  849SOL    MW4 3717   0.899   2.858   1.605
  850SOL     OW 3718   0.972   1.992   1.353
  850SOL    HW2 3719   0.978   1.954   1.266
  850SOL    HW3 3720   0.961   2.086   1.338
  850SOL    MW4 3721   0.973   2.000   1.341
  851SOL     OW 3722   1.061   2.481   1.187
  851SOL    HW2 3723   1.136   2.510   1.134
  851SOL    HW3 3724   0.993   2.546   1.171
  851SOL    MW4 3725   1.062   2.493   1.177
  852SOL     OW 3726   1.611   2.449   1.464
  852SOL    HW2 3727   1.592   2.358   1.443
  852SOL    HW3 3728   1.589   2.498   1.385
  852SOL    MW4 3729   1.606   2.442   1.451
  853SOL     OW 3730   1.753   3.543   1.368
  853SOL    HW2 3731   1.681   3.505   1.419
  853SOL    HW3 3732   1.770   3.628   1.409
  853SOL    MW4 3733   1.747   3.548   1.380
  854SOL     OW 3734   1.058   2.187   1.570
  854SOL    HW2 3735   1.024   2.226   1.489
  854SOL    HW3 3736   1.036   2.095   1.563
  854SOL    MW4 3737   1.051   2.180   1.560
  855SOL     OW 3738   1.467   3.001   1.646
  855SOL    HW2 3739   1.549   3.042   1.676
  855SOL    HW3 3740   1.430   2.963   1.726
  855SOL    MW4 3741   1.473   3.002   1.661
  856SOL     OW 3742   1.762   2.374   0.630
  856SOL    HW2 3743   1.851   2.343   0.647
  856SOL    HW3 3744   1.705   2.314   0.678
  856SOL    MW4 3745   1.765   2.362   0.639
  857SOL     OW 3746   0.188   2.088   0.659
  857SOL    HW2 3747   0.179   2.028   0.585
  857SOL    HW3 3748   0.121   2.059   0.722
  857SOL    MW4 3749   0.178   2.075   0.657
  858SOL     OW 3750   1.131   3.181   0.220
  858SOL    HW2 3751   1.081   3.183   0.302
  858SOL    HW3 3752   1.065   3.199   0.152
  858SOL    MW4 3753   1.117   3.183   0.222
  859SOL     OW 3754   0.135   2.261   1.022
  859SOL    HW2 3755   0.107   2.352   1.031
  859SOL    HW3 3756   0.072   2.222   0.961
  859SOL    MW4 3757   0.122   2.267   1.016
  860SOL     OW 3758   0.594   3.599   0.328
  860SOL    HW2 3759   0.515   3.557   0.361
  860SOL    HW3 3760   0.660   3.582   0.395
  860SOL    MW4 3761   0.593   3.591   0.341
  861SOL     OW 3762   1.722   3.119   1.725
  861SOL    HW2 3763   1.772   3.045   1.757
  861SOL    HW3 3764   1.668   3.146   1.800
  861SOL    MW4 3765   1.722   3.113   1.738
  862SOL     OW 3766   0.730   3.014   0.035
  862SOL    HW2 3767   0.652   2.960   0.022
  862SOL    HW3 3768   0.701   3.087   0.088
  862SOL    MW4 3769   0.716   3.016   0.040
  863SOL     OW 3770   1.856   2.754   1.227
  863SOL    HW2 3771   1.872   2.792   1.140
  863SOL    HW3 3772   1.890   2.820   1.288
  863SOL    MW4 3773   1.863   2.767   1.223
  864SOL     OW 3774   1.648   3.463   0.896
  864SOL    HW2 3775   1.677   3.530   0.957
  864SOL    HW3 3776   1.629   3.387   0.951
  864SOL    MW4 3777   1.650   3.463   0.911
  865SOL     OW 3778   1.311   3.530   0.103
  865SOL    HW2 3779   1.237   3.493   0.153
  865SOL    HW3 3780   1.319   3.620   0.136
  865SOL    MW4 3781   1.302   3.537   0.115
  866SOL     OW 3782   0.119   2.536   1.192
  866SOL    HW2 3783   0.181   2.566   1.258
  866SOL    HW3 3784   0.053   2.605   1.186
  866SOL    MW4 3785   0.118   2.549   1.199
  867SOL     OW 3786   1.535   3.204   0.045
  867SOL    HW2 3787   1.482   3.253  -0.019
  867SOL    HW3 3788   1.566   3.270   0.106
  867SOL    MW4 3789   1.533   3.218   0.043
  868SOL     OW 3790   0.760   2.093   0.100
  868SOL    HW2 3791   0.708   2.013   0.088
  868SOL    HW3 3792   0.847   2.070   0.068
  868SOL    MW4 3793   0.763   2.079   0.094
  869SOL     OW 3794   0.214   3.645   1.644
  869SOL    HW2 3795   0.188   3.713   1.582
  869SOL    HW3 3796   0.262   3.582   1.592
  869SOL    MW4 3797   0.216   3.645   1.630
  870SOL     OW 3798   0.266   2.964   1.151
  870SOL    HW2 3799   0.319   3.039   1.176
  870SOL    HW3 3800   0.185   3.002   1.117
  870SOL    MW4 3801   0.262   2.979   1.151
  871SOL     OW 3802   0.806   2.868   1.139
  871SOL    HW2 3803   0.834   2.777   1.151
  871SOL    HW3 3804   0.735   2.862   1.075
  871SOL    MW4 3805   0.799   2.856   1.134
  872SOL     OW 3806   0.121   2.733   0.557
  872SOL    HW2 3807   0.212   2.748   0.584
  872SOL    HW3 3808   0.124   2.654   0.503
  872SOL    MW4 3809   0.133   2.725   0.555
  873SOL     OW 3810   0.357   2.441   1.811
  873SOL    HW2 3811   0.304   2.521   1.818
  873SOL    HW3 3812   0.427   2.453   1.876
  873SOL    MW4 3813   0.359   2.454   1.819
  874SOL     OW 3814   0.743   1.991   1.518
  874SOL    HW2 3815   0.720   1.899   1.520
  874SOL    HW3 3816   0.829   1.993   1.475
  874SOL    MW4 3817   0.750   1.981   1.514
  875SOL     OW 3818   0.427   2.515   1.557
  875SOL    HW2 3819   0.507   2.565   1.543
  875SOL    HW3 3820   0.418   2.509   1.652
  875SOL    MW4 3821   0.436   2.521   1.567
  876SOL     OW 3822   0.748   3.665   0.931
  876SOL    HW2 3823   0.837   3.680   0.961
  876SOL    HW3 3824   0.743   3.712   0.847
  876SOL    MW4 3825   0.758   3.673   0.924
  877SOL     OW 3826   1.404   2.040   1.828
  877SOL    HW2 3827   1.460   1.967   1.854
  877SOL    HW3 3828   1.374   2.078   1.910
  877SOL    MW4 3829   1.408   2.035   1.841
  878SOL     OW 3830   0.129   3.345   0.596
  878SOL    HW2 3831   0.101   3.384   0.678
  878SOL    HW3 3832   0.149   3.254   0.618
  878SOL    MW4 3833   0.127   3.337   0.609
  879SOL     OW 3834   0.962   3.388   0.631
  879SOL    HW2 3835   1.045   3.342   0.615
  879SOL    HW3 3836   0.952   3.387   0.727
  879SOL    MW4 3837   0.972   3.381   0.641
  880SOL     OW 3838   1.794   2.533   0.945
  880SOL    HW2 3839   1.883   2.563   0.927
  880SOL    HW3 3840   1.774   2.473   0.874
  880SOL    MW4 3841   1.803   2.530   0.934
  881SOL     OW 3842   1.645   2.712   1.825
  881SOL    HW2 3843   1.700   2.636   1.806
  881SOL    HW3 3844   1.647   2.720   1.920
  881SOL    MW4 3845   1.653   2.703   1.833
  882SOL     OW 3846   0.695   3.445   0.036
  882SOL    HW2 3847   0.635   3.514   0.006
  882SOL    HW3 3848   0.640   3.387   0.089
  882SOL    MW4 3849   0.679   3.447   0.038
  883SOL     OW 3850   1.133   2.090   0.259
  883SOL    HW2 3851   1.066   2.066   0.196
  883SOL    HW3 3852   1.198   2.139   0.208
  883SOL    MW4 3853   1.133   2.092   0.244
  884SOL     OW 3854   0.940   2.274   1.344
  884SOL    HW2 3855   0.859   2.315   1.372
  884SOL    HW3 3856   0.987   2.342   1.296
  884SOL    MW4 3857   0.935   2.289   1.342
  885SOL     OW 3858   1.200   2.612   0.967
  885SOL    HW2 3859   1.213   2.706   0.977
  885SOL    HW3 3860   1.161   2.602   0.881
  885SOL    MW4 3861   1.196   2.623   0.957
  886SOL     OW 3862   0.652   2.807   0.771
  886SOL    HW2 3863   0.563   2.798   0.804
  886SOL    HW3 3864   0.656   2.897   0.739
  886SOL    MW4 3865   0.641   2.818   0.771
  887SOL     OW 3866   1.451   2.390   0.766
  887SOL    HW2 3867   1.396   2.311   0.765
  887SOL    HW3 3868   1.433   2.431   0.850
  887SOL    MW4 3869   1.441   2.385   0.775
  888SOL     OW 3870   0.422   2.077   1.583
  888SOL    HW2 3871   0.343   2.095   1.635
  888SOL    HW3 3872   0.417   2.139   1.510
  888SOL    MW4 3873   0.412   2.087   1.580
  889SOL     OW 3874   1.070   2.594   0.723
  889SOL    HW2 3875   1.007   2.526   0.747
  889SOL    HW3 3876   1.090   2.575   0.631
  889SOL    MW4 3877   1.064   2.581   0.715
  890SOL     OW 3878   0.326   3.489   0.425
  890SOL    HW2 3879   0.287   3.536   0.351
  890SOL    HW3 3880   0.260   3.424   0.450
  890SOL    MW4 3881   0.313   3.487   0.419
  891SOL     OW 3882   0.818   2.898   0.449
  891SOL    HW2 3883   0.820   2.872   0.356
  891SOL    HW3 3884   0.876   2.835   0.492
  891SOL    MW4 3885   0.826   2.887   0.443
  892SOL     OW 3886   1.371   3.458   1.221
  892SOL    HW2 3887   1.296   3.504   1.259
  892SOL    HW3 3888   1.353   3.365   1.238
  892SOL    MW4 3889   1.360   3.452   1.229
  893SOL     OW 3890   1.375   3.666   0.651
  893SOL    HW2 3891   1.318   3.619   0.590
  893SOL    HW3 3892   1.461   3.627   0.638
  893SOL    MW4 3893   1.378   3.657   0.641
  894SOL     OW 3894   1.328   2.142   0.782
  894SOL    HW2 3895   1.356   2.074   0.843
  894SOL    HW3 3896   1.242   2.113   0.752
  894SOL    MW4 3897   1.321   2.129   0.786
  895SOL     OW 3898   0.133   3.076   0.716
  895SOL    HW2 3899   0.197   3.108   0.779
  895SOL    HW3 3900   0.182   3.012   0.664
  895SOL    MW4 3901   0.148   3.072   0.717
  896SOL     OW 3902   0.633   3.152   1.698
  896SOL    HW2 3903   0.681   3.235   1.685
  896SOL    HW3 3904   0.690   3.100   1.754
  896SOL    MW4 3905   0.647   3.156   1.704
  897SOL     OW 3906   0.209   3.394   1.838
  897SOL    HW2 3907   0.265   3.318   1.853
  897SOL    HW3 3908   0.158   3.372   1.760
  897SOL    MW4 3909   0.209   3.381   1.829
  898SOL     OW 3910   1.308   2.246   0.117
  898SOL    HW2 3911   1.281   2.312   0.053
  898SOL    HW3 3912   1.378   2.289   0.167
  898SOL    MW4 3913   1.313   2.259   0.114
  899SOL     OW 3914   0.976   1.951   0.054
  899SOL    HW2 3915   1.032   1.943  -0.024
  899SOL    HW3 3916   0.953   1.861   0.076
  899SOL    MW4 3917   0.981   1.938   0.047
  900SOL     OW 3918   1.481   2.802   0.259
  900SOL    HW2 3919   1.448   2.891   0.249
  900SOL    HW3 3920   1.446   2.773   0.344
  900SOL    MW4 3921   1.471   2.811   0.270
  901SOL     OW 3922   1.094   3.231   1.447
  901SOL    HW2 3923   1.005   3.237   1.415
  901SOL    HW3 3924   1.138   3.310   1.415
  901SOL    MW4 3925   1.089   3.241   1.439
  902SOL     OW 3926   0.387   1.899   1.789
  902SOL    HW2 3927   0.315   1.864   1.737
  902SOL    HW3 3928   0.445   1.940   1.724
  902SOL    MW4 3929   0.385   1.900   1.774
  903SOL     OW 3930   0.411   3.389   1.088
  903SOL    HW2 3931   0.456   3.451   1.145
  903SOL    HW3 3932   0.318   3.408   1.101
  903SOL    MW4 3933   0.404   3.399   1.095
  904SOL     OW 3934   1.851   2.918   1.442
  904SOL    HW2 3935   1.766   2.931   1.401
  904SOL    HW3 3936   1.831   2.882   1.529
  904SOL    MW4 3937   1.838   2.914   1.447
  905SOL     OW 3938   0.833   3.457   1.196
  905SOL    HW2 3939   0.857   3.446   1.105
  905SOL    HW3 3940   0.756   3.514   1.194
  905SOL    MW4 3941   0.825   3.462   1.185
  906SOL     OW 3942   0.475   2.840   0.051
  906SOL    HW2 3943   0.398   2.853   0.107
  906SOL    HW3 3944   0.439   2.804  -0.030
  906SOL    MW4 3945   0.461   2.836   0.048
  907SOL     OW 3946   1.128   2.813   0.294
  907SOL    HW2 3947   1.038   2.834   0.269
  907SOL    HW3 3948   1.155   2.886   0.350
  907SOL    MW4 3949   1.120   2.825   0.297
  908SOL     OW 3950   0.628   3.162   0.986
  908SOL    HW2 3951   0.621   3.141   1.080
  908SOL    HW3 3952   0.546   3.130   0.949
  908SOL    MW4 3953   0.616   3.156   0.993
  909SOL     OW 3954   1.492   2.172   1.388
  909SOL    HW2 3955   1.439   2.174   1.468
  909SOL    HW3 3956   1.477   2.085   1.351
  909SOL    MW4 3957   1.484   2.162   1.393
  910SOL     OW 3958   1.828   2.096   1.261
  910SOL    HW2 3959   1.809   2.163   1.196
  910SOL    HW3 3960   1.885   2.034   1.216
  910SOL    MW4 3961   1.832   2.097   1.247
  911SOL     OW 3962   0.074   3.254   1.649
  911SOL    HW2 3963   0.118   3.187   1.595
  911SOL    HW3 3964  -0.011   3.216   1.669
  911SOL    MW4 3965   0.069   3.240   1.645
  912SOL     OW 3966   0.757   1.929   0.701
  912SOL    HW2 3967   0.686   1.990   0.683
  912SOL    HW3 3968   0.808   1.926   0.620
  912SOL    MW4 3969   0.753   1.935   0.688
  913SOL     OW 3970   0.515   3.169   0.450
  913SOL    HW2 3971   0.508   3.201   0.540
  913SOL    HW3 3972   0.425   3.153   0.422
  913SOL    MW4 3973   0.503   3.171   0.457
  914SOL     OW 3974   1.110   3.562   1.359
  914SOL    HW2 3975   1.030   3.547   1.309
  914SOL    HW3 3976   1.117   3.657   1.366
  914SOL    MW4 3977   1.101   3.573   1.353
  915SOL     OW 3978   1.224   3.527   0.849
  915SOL    HW2 3979   1.271   3.600   0.808
  915SOL    HW3 3980   1.145   3.566   0.885
  915SOL    MW4 3981   1.219   3.542   0.848
  916SOL     OW 3982   1.632   3.622   1.124
  916SOL    HW2 3983   1.675   3.592   1.204
  916SOL    HW3 3984   1.551   3.570   1.121
  916SOL    MW4 3985   1.627   3.611   1.134
  917SOL     OW 3986   0.717   2.586   1.831
  917SOL    HW2 3987   0.787   2.528   1.803
  917SOL    HW3 3988   0.660   2.531   1.886
  917SOL    MW4 3989   0.719   2.573   1.835
  918SOL     OW 3990   1.504   2.798   1.464
  918SOL    HW2 3991   1.509   2.851   1.544
  918SOL    HW3 3992   1.466   2.715   1.492
  918SOL    MW4 3993   1.500   2.793   1.479
  919SOL     OW 3994   1.144   1.933   1.710
  919SOL    HW2 3995   1.139   1.840   1.691
  919SOL    HW3 3996   1.227   1.944   1.756
  919SOL    MW4 3997   1.152   1.922   1.714
  920SOL     OW 3998   0.518   2.453   0.164
  920SOL    HW2 3999   0.484   2.509   0.234
  920SOL    HW3 4000   0.589   2.403   0.204
  920SOL    MW4 4001   0.524   2.454   0.178
  921SOL     OW 4002   1.614   3.204   0.986
  921SOL    HW2 4003   1.649   3.186   0.899
  921SOL    HW3 4004   1.519   3.205   0.973
  921SOL    MW4 4005   1.606   3.201   0.973
  922SOL     OW 4006   1.043   2.852   1.355
  922SOL    HW2 4007   1.086   2.887   1.433
  922SOL    HW3 4008   1.026   2.929   1.301
  922SOL    MW4 4009   1.046   2.867   1.358
  923SOL     OW 4010   1.574   2.339   0.228
  923SOL    HW2 4011   1.566   2.410   0.165
  923SOL    HW3 4012   1.592   2.383   0.311
  923SOL    MW4 4013   1.575   2.353   0.230
  924SOL     OW 4014   0.434   1.994   0.657
  924SOL    HW2 4015   0.484   2.037   0.588
  924SOL    HW3 4016   0.349   2.038   0.657
  924SOL    MW4 4017   0.431   2.007   0.648
  925SOL     OW 4018   0.193   3.056   1.517
  925SOL    HW2 4019   0.221   3.009   1.595
  925SOL    HW3 4020   0.114   3.011   1.488
  925SOL    MW4 4021   0.186   3.045   1.523
  926SOL     OW 4022   0.701   2.383   1.484
  926SOL    HW2 4023   0.673   2.471   1.508
  926SOL    HW3 4024   0.670   2.327   1.555
  926SOL    MW4 4025   0.693   2.386   1.496
  927SOL     OW 4026   1.243   2.601   0.203
  927SOL    HW2 4027   1.290   2.619   0.122
  927SOL    HW3 4028   1.209   2.685   0.231
  927SOL    MW4 4029   1.245   2.615   0.196
  928SOL     OW 4030   0.356   2.779   0.697
  928SOL    HW2 4031   0.414   2.835   0.645
  928SOL    HW3 4032   0.400   2.694   0.699
  928SOL    MW4 4033   0.369   2.776   0.690
  929SOL     OW 4034   1.496   2.131   0.534
  929SOL    HW2 4035   1.418   2.081   0.559
  929SOL    HW3 4036   1.467   2.222   0.534
  929SOL    MW4 4037   1.482   2.135   0.537
  930SOL     OW 4038   1.082   2.093   0.693
  930SOL    HW2 4039   1.102   2.168   0.637
  930SOL    HW3 4040   1.062   2.132   0.778
  930SOL    MW4 4041   1.083   2.109   0.697
  931SOL     OW 4042   0.978   3.343   0.025
  931SOL    HW2 4043   1.005   3.421  -0.023
  931SOL    HW3 4044   0.885   3.358   0.044
  931SOL    MW4 4045   0.969   3.356   0.021
  932SOL     OW 4046   1.842   2.866   1.712
  932SOL    HW2 4047   1.755   2.846   1.748
  932SOL    HW3 4048   1.896   2.792   1.737
  932SOL    MW4 4049   1.837   2.855   1.720
  933SOL     OW 4050   0.063   3.379   0.869
  933SOL    HW2 4051   0.095   3.383   0.960
  933SOL    HW3 4052  -0.032   3.387   0.877
  933SOL    MW4 4053   0.055   3.382   0.882
  934SOL     OW 4054   0.018   2.505   0.416
  934SOL    HW2 4055  -0.042   2.477   0.486
  934SOL    HW3 4056   0.092   2.445   0.422
  934SOL    MW4 4057   0.020   2.494   0.425
  935SOL     OW 4058   1.586   3.717   1.850
  935SOL    HW2 4059   1.631   3.641   1.815
  935SOL    HW3 4060   1.624   3.730   1.937
  935SOL    MW4 4061   1.596   3.710   1.856
  936SOL     OW 4062   1.186   3.236   0.576
  936SOL    HW2 4063   1.209   3.187   0.654
  936SOL    HW3 4064   1.267   3.278   0.548
  936SOL    MW4 4065   1.199   3.236   0.583
  937SOL     OW 4066   0.444   2.244   1.305
  937SOL    HW2 4067   0.477   2.325   1.345
  937SOL    HW3 4068   0.417   2.270   1.217
  937SOL    MW4 4069   0.443   2.258   1.299
  938SOL     OW 4070   0.398   2.211   1.041
  938SOL    HW2 4071   0.428   2.125   1.012
  938SOL    HW3 4072   0.303   2.204   1.044
  938SOL    MW4 4073   0.390   2.200   1.039
  939SOL     OW 4074   1.227   2.420   1.732
  939SOL    HW2 4075   1.279   2.355   1.685
  939SOL    HW3 4076   1.185   2.471   1.662
  939SOL    MW4 4077   1.228   2.417   1.715
  940SOL     OW 4078   1.326   2.215   1.593
  940SOL    HW2 4079   1.233   2.199   1.580
  940SOL    HW3 4080   1.352   2.153   1.661
  940SOL    MW4 4081   1.316   2.205   1.600
  941SOL     OW 4082   0.541   1.989   0.932
  941SOL    HW2 4083   0.551   1.898   0.958
  941SOL    HW3 4084   0.497   1.985   0.847
  941SOL    MW4 4085   0.537   1.977   0.924
  942SOL     OW 4086   0.635   3.604   1.478
  942SOL    HW2 4087   0.552   3.589   1.523
  942SOL    HW3 4088   0.694   3.537   1.513
  942SOL    MW4 4089   0.633   3.594   1.488
  943SOL     OW 4090   1.692   2.311   1.103
  943SOL    HW2 4091   1.625   2.344   1.163
  943SOL    HW3 4092   1.735   2.389   1.069
  943SOL    MW4 4093   1.690   2.326   1.107
  944SOL     OW 4094   1.870   3.031   1.073
  944SOL    HW2 4095   1.863   2.971   0.998
  944SOL    HW3 4096   1.796   3.091   1.062
  944SOL    MW4 4097   1.860   3.031   1.062
  945SOL     OW 4098   1.252   2.893   0.991
  945SOL    HW2 4099   1.266   2.865   1.082
  945SOL    HW3 4100   1.338   2.924   0.963
  945SOL    MW4 4101   1.265   2.894   1.000
  946SOL     OW 4102   1.335   2.388   1.270
  946SOL    HW2 4103   1.356   2.389   1.177
  946SOL    HW3 4104   1.380   2.310   1.303
  946SOL    MW4 4105   1.342   2.378   1.262
  947SOL     OW 4106   1.828   2.519   1.812
  947SOL    HW2 4107   1.865   2.464   1.881
  947SOL    HW3 4108   1.853   2.476   1.730
  947SOL    MW4 4109   1.835   2.507   1.811
  948SOL     OW 4110   1.375   2.817   1.863
  948SOL    HW2 4111   1.441   2.765   1.817
  948SOL    HW3 4112   1.395   2.804   1.956
  948SOL    MW4 4113   1.386   2.808   1.870
  949SOL     OW 4114   1.326   1.903   0.212
  949SOL    HW2 4115   1.400   1.947   0.255
  949SOL    HW3 4116   1.250   1.957   0.234
  949SOL    MW4 4117   1.326   1.915   0.220
  950SOL     OW 4118   1.386   2.678   0.490
  950SOL    HW2 4119   1.301   2.648   0.460
  950SOL    HW3 4120   1.378   2.685   0.585
  950SOL    MW4 4121   1.374   2.676   0.499
  951SOL     OW 4122   0.462   3.141   1.221
  951SOL    HW2 4123   0.474   3.168   1.312
  951SOL    HW3 4124   0.443   3.222   1.174
  951SOL    MW4 4125   0.461   3.156   1.226
  952SOL     OW 4126   0.746   2.121   1.044
  952SOL    HW2 4127   0.719   2.123   1.135
  952SOL    HW3 4128   0.676   2.073   0.999
  952SOL    MW4 4129   0.734   2.117   1.051
  953SOL     OW 4130   0.600   3.613   1.206
  953SOL    HW2 4131   0.652   3.690   1.183
  953SOL    HW3 4132   0.609   3.605   1.301
  953SOL    MW4 4133   0.609   3.620   1.217
  954SOL     OW 4134   1.502   3.198   1.438
  954SOL    HW2 4135   1.487   3.127   1.501
  954SOL    HW3 4136   1.548   3.156   1.366
  954SOL    MW4 4137   1.508   3.182   1.438
  955SOL     OW 4138   0.576   2.929   1.555
  955SOL    HW2 4139   0.613   2.934   1.467
  955SOL    HW3 4140   0.615   3.002   1.602
  955SOL    MW4 4141   0.586   2.939   1.550
  956SOL     OW 4142   0.756   2.972   1.367
  956SOL    HW2 4143   0.815   2.918   1.420
  956SOL    HW3 4144   0.771   2.944   1.277
  956SOL    MW4 4145   0.766   2.961   1.363
  957SOL     OW 4146   0.759   2.344   0.216
  957SOL    HW2 4147   0.832   2.393   0.179
  957SOL    HW3 4148   0.775   2.253   0.190
  957SOL    MW4 4149   0.771   2.339   0.209
  958SOL     OW 4150   1.567   3.461   1.539
  958SOL    HW2 4151   1.609   3.446   1.624
  958SOL    HW3 4152   1.558   3.374   1.501
  958SOL    MW4 4153   1.571   3.449   1.546
  959SOL     OW 4154   1.227   1.940   1.130
  959SOL    HW2 4155   1.282   1.949   1.052
  959SOL    HW3 4156   1.282   1.974   1.201
  959SOL    MW4 4157   1.241   1.945   1.129
  960SOL     OW 4158   0.234   2.853   0.314
  960SOL    HW2 4159   0.171   2.869   0.243
  960SOL    HW3 4160   0.181   2.816   0.385
  960SOL    MW4 4161   0.219   2.850   0.314
  961SOL     OW 4162   0.590   3.207   0.173
  961SOL    HW2 4163   0.605   3.183   0.265
  961SOL    HW3 4164   0.498   3.185   0.157
  961SOL    MW4 4165   0.580   3.200   0.183
  962SOL     OW 4166   1.129   3.438   0.325
  962SOL    HW2 4167   1.137   3.356   0.276
  962SOL    HW3 4168   1.048   3.477   0.292
  962SOL    MW4 4169   1.119   3.433   0.315
  963SOL     OW 4170   0.388   3.596   0.894
  963SOL    HW2 4171   0.392   3.507   0.929
  963SOL    HW3 4172   0.414   3.587   0.803
  963SOL    MW4 4173   0.391   3.584   0.886
  964SOL     OW 4174   1.005   3.074   1.137
  964SOL    HW2 4175   0.937   3.008   1.153
  964SOL    HW3 4176   1.023   3.068   1.044
  964SOL    MW4 4177   0.998   3.065   1.128
  965SOL     OW 4178   0.094   3.349   1.388
  965SOL    HW2 4179   0.084   3.307   1.474
  965SOL    HW3 4180   0.015   3.402   1.378
  965SOL    MW4 4181   0.083   3.350   1.399
  966SOL     OW 4182   0.998   2.213   0.958
  966SOL    HW2 4183   0.928   2.165   1.003
  966SOL    HW3 4184   1.030   2.276   1.022
  966SOL    MW4 4185   0.993   2.215   0.972
  967SOL     OW 4186   0.649   2.649   1.578
  967SOL    HW2 4187   0.642   2.744   1.566
  967SOL    HW3 4188   0.658   2.638   1.673
  967SOL    MW4 4189   0.650   2.661   1.588
  968SOL     OW 4190   0.370   3.164   1.836
  968SOL    HW2 4191   0.442   3.166   1.773
  968SOL    HW3 4192   0.340   3.073   1.835
  968SOL    MW4 4193   0.375   3.153   1.828
  969SOL     OW 4194   1.454   1.927   1.303
  969SOL    HW2 4195   1.525   1.873   1.267
  969SOL    HW3 4196   1.453   1.906   1.396
  969SOL    MW4 4197   1.463   1.918   1.311
  970SOL     OW 4198   1.654   3.457   1.787
  970SOL    HW2 4199   1.627   3.454   1.878
  970SOL    HW3 4200   1.750   3.461   1.790
  970SOL    MW4 4201   1.664   3.457   1.799
  971SOL     OW 4202   0.465   2.319   0.771
  971SOL    HW2 4203   0.536   2.267   0.734
  971SOL    HW3 4204   0.451   2.284   0.858
  971SOL    MW4 4205   0.473   2.308   0.778
  972SOL     OW 4206   0.020   3.654   1.843
  972SOL    HW2 4207   0.070   3.632   1.765
  972SOL    HW3 4208   0.028   3.749   1.851
  972SOL    MW4 4209   0.028   3.663   1.834
  973SOL     OW 4210   0.781   3.412   0.847
  973SOL    HW2 4211   0.709   3.349   0.860
  973SOL    HW3 4212   0.742   3.497   0.865
  973SOL    MW4 4213   0.765   3.415   0.850
  974SOL     OW 4214   1.101   2.260   0.495
  974SOL    HW2 4215   1.123   2.197   0.427
  974SOL    HW3 4216   1.006   2.252   0.506
  974SOL    MW4 4217   1.091   2.251   0.487
  975SOL     OW 4218   0.186   1.950   0.427
  975SOL    HW2 4219   0.257   1.971   0.366
  975SOL    HW3 4220   0.140   1.878   0.385
  975SOL    MW4 4221   0.190   1.944   0.413
  976SOL     OW 4222   0.017   2.417   1.570
  976SOL    HW2 4223   0.081   2.483   1.545
  976SOL    HW3 4224  -0.064   2.444   1.527
  976SOL    MW4 4225   0.015   2.429   1.562
  977SOL     OW 4226   1.755   3.324   0.527
  977SOL    HW2 4227   1.725   3.257   0.588
  977SOL    HW3 4228   1.849   3.330   0.541
  977SOL    MW4 4229   1.763   3.316   0.537
  978SOL     OW 4230   1.311   3.001   0.457
  978SOL    HW2 4231   1.283   3.087   0.490
  978SOL    HW3 4232   1.339   3.017   0.367
  978SOL    MW4 4233   1.311   3.015   0.449
  979SOL     OW 4234   0.973   1.921   0.510
  979SOL    HW2 4235   1.010   1.980   0.575
  979SOL    HW3 4236   0.950   1.977   0.436
  979SOL    MW4 4237   0.974   1.936   0.509
  980SOL     OW 4238   1.826   2.803   0.932
  980SOL    HW2 4239   1.817   2.835   0.843
  980SOL    HW3 4240   1.779   2.719   0.932
  980SOL    MW4 4241   1.819   2.796   0.922
  981SOL     OW 4242   0.202   2.643   1.511
  981SOL    HW2 4243   0.223   2.712   1.449
  981SOL    HW3 4244   0.282   2.590   1.516
  981SOL    MW4 4245   0.215   2.644   1.505
  982SOL     OW 4246   1.738   2.734   0.633
  982SOL    HW2 4247   1.832   2.723   0.621
  982SOL    HW3 4248   1.714   2.806   0.574
  982SOL    MW4 4249   1.748   2.742   0.624
  983SOL     OW 4250   0.187   2.658   1.778
  983SOL    HW2 4251   0.113   2.602   1.804
  983SOL    HW3 4252   0.182   2.661   1.683
  983SOL    MW4 4253   0.176   2.651   1.768
  984SOL     OW 4254   0.353   1.945   1.228
  984SOL    HW2 4255   0.396   2.029   1.248
  984SOL    HW3 4256   0.426   1.883   1.221
  984SOL    MW4 4257   0.368   1.948   1.229
  985SOL     OW 4258   0.394   2.612   0.406
  985SOL    HW2 4259   0.394   2.707   0.391
  985SOL    HW3 4260   0.471   2.596   0.460
  985SOL    MW4 4261   0.404   2.623   0.411
  986SOL     OW 4262   1.170   2.471   1.470
  986SOL    HW2 4263   1.206   2.444   1.386
  986SOL    HW3 4264   1.083   2.505   1.449
  986SOL    MW4 4265   1.164   2.472   1.457
  987SOL     OW 4266   0.153   2.343   0.695
  987SOL    HW2 4267   0.215   2.350   0.768
  987SOL    HW3 4268   0.153   2.250   0.672
  987SOL    MW4 4269   0.161   2.332   0.702
  988SOL     OW 4270   1.700   3.683   0.227
  988SOL    HW2 4271   1.767   3.716   0.167
  988SOL    HW3 4272   1.657   3.762   0.261
  988SOL    MW4 4273   1.702   3.698   0.223
  989SOL     OW 4274   0.835   2.604   1.179
  989SOL    HW2 4275   0.793   2.522   1.155
  989SOL    HW3 4276   0.836   2.603   1.275
  989SOL    MW4 4277   0.828   2.593   1.188
  990SOL     OW 4278   1.506   3.737   1.578
  990SOL    HW2 4279   1.509   3.643   1.561
  990SOL    HW3 4280   1.529   3.745   1.670
  990SOL    MW4 4281   1.509   3.725   1.588
  991SOL     OW 4282   0.639   2.074   1.284
  991SOL    HW2 4283   0.570   2.137   1.305
  991SOL    HW3 4284   0.666   2.038   1.369
  991SOL    MW4 4285   0.633   2.077   1.297
  992SOL     OW 4286   0.022   2.915   0.153
  992SOL    HW2 4287  -0.009   2.980   0.216
  992SOL    HW3 4288  -0.029   2.837   0.172
  992SOL    MW4 4289   0.012   2.912   0.163
  993SOL     OW 4290   1.434   1.927   0.901
  993SOL    HW2 4291   1.522   1.936   0.938
  993SOL    HW3 4292   1.444   1.868   0.827
  993SOL    MW4 4293   1.448   1.921   0.895
  994SOL     OW 4294   1.466   2.666   0.745
  994SOL    HW2 4295   1.546   2.681   0.694
  994SOL    HW3 4296   1.459   2.571   0.751
  994SOL    MW4 4297   1.475   2.655   0.740
  995SOL     OW 4298   0.606   3.715   0.095
  995SOL    HW2 4299   0.511   3.715   0.087
  995SOL    HW3 4300   0.622   3.661   0.173
  995SOL    MW4 4301   0.596   3.709   0.104
  996SOL     OW 4302   0.916   2.592   1.442
  996SOL    HW2 4303   0.985   2.659   1.439
  996SOL    HW3 4304   0.849   2.630   1.498
  996SOL    MW4 4305   0.917   2.605   1.449
  997SOL     OW 4306   0.334   2.892   1.690
  997SOL    HW2 4307   0.288   2.808   1.692
  997SOL    HW3 4308   0.391   2.886   1.614
  997SOL    MW4 4309   0.336   2.880   1.682
  998SOL     OW 4310   1.451   2.535   0.011
  998SOL    HW2 4311   1.379   2.511  -0.047
  998SOL    HW3 4312   1.517   2.572  -0.047
  998SOL    MW4 4313   1.450   2.537  -0.004
  999SOL     OW 4314   0.585   3.267   0.691
  999SOL    HW2 4315   0.650   3.200   0.712
  999SOL    HW3 4316   0.637   3.344   0.668
  999SOL    MW4 4317   0.600   3.269   0.690
 1000SOL     OW 4318   0.846   2.432   0.821
 1000SOL    HW2 4319   0.786   2.450   0.893
 1000SOL    HW3 4320   0.880   2.344   0.840
 1000SOL    MW4 4321   0.842   2.422   0.834
 1001SOL     OW 4322   1.787   1.931   1.490
 1001SOL    HW2 4323   1.708   1.977   1.518
 1001SOL    HW3 4324   1.822   1.985   1.419
 1001SOL    MW4 4325   1.781   1.944   1.484
 1002SOL     OW 4326   1.071   3.015   0.840
 1002SOL    HW2 4327   1.163   2.996   0.858
 1002SOL    HW3 4328   1.044   2.945   0.780
 1002SOL    MW4 4329   1.079   3.003   0.834
 1003SOL     OW 4330   0.864   2.835   0.195
 1003SOL    HW2 4331   0.850   2.747   0.160
 1003SOL    HW3 4332   0.815   2.892   0.136
 1003SOL    MW4 4333   0.856   2.830   0.183
 1004SOL     OW 4334   1.345   3.253   0.936
 1004SOL    HW2 4335   1.318   3.337   0.901
 1004SOL    HW3 4336   1.305   3.248   1.023
 1004SOL    MW4 4337   1.338   3.262   0.942
 1005SOL     OW 4338   1.264   3.201   1.204
 1005SOL    HW2 4339   1.275   3.168   1.293
 1005SOL    HW3 4340   1.183   3.160   1.173
 1005SOL    MW4 4341   1.254   3.193   1.210
 1006SOL     OW 4342   0.277   2.559   0.974
 1006SOL    HW2 4343   0.227   2.558   1.055
 1006SOL    HW3 4344   0.297   2.651   0.958
 1006SOL    MW4 4345   0.273   2.571   0.982
 1007SOL     OW 4346   1.344   3.323   1.736
 1007SOL    HW2 4347   1.344   3.417   1.752
 1007SOL    HW3 4348   1.389   3.313   1.652
 1007SOL    MW4 4349   1.350   3.333   1.727
 1008SOL     OW 4350   1.583   2.041   0.297
 1008SOL    HW2 4351   1.576   2.045   0.392
 1008SOL    HW3 4352   1.595   2.132   0.270
 1008SOL    MW4 4353   1.584   2.054   0.305
 1009SOL     OW 4354   0.872   2.604   0.411
 1009SOL    HW2 4355   0.852   2.590   0.318
 1009SOL    HW3 4356   0.965   2.583   0.418
 1009SOL    MW4 4357   0.882   2.599   0.400
 1010SOL     OW 4358   0.199   2.227   1.715
 1010SOL    HW2 4359   0.156   2.286   1.652
 1010SOL    HW3 4360   0.267   2.282   1.755
 1010SOL    MW4 4361   0.203   2.242   1.712
 1011SOL     OW 4362   1.311   2.847   1.260
 1011SOL    HW2 4363   1.374   2.844   1.333
 1011SOL    HW3 4364   1.227   2.865   1.302
 1011SOL    MW4 4365   1.307   2.849   1.275
 1012SOL     OW 4366   0.855   3.562   0.449
 1012SOL    HW2 4367   0.913   3.633   0.476
 1012SOL    HW3 4368   0.878   3.490   0.507
 1012SOL    MW4 4369   0.866   3.562   0.460
 1013SOL     OW 4370   1.650   2.024   1.039
 1013SOL    HW2 4371   1.695   1.942   1.058
 1013SOL    HW3 4372   1.670   2.080   1.115
 1013SOL    MW4 4373   1.660   2.020   1.051
 1014SOL     OW 4374   0.098   1.867   1.138
 1014SOL    HW2 4375   0.089   1.868   1.043
 1014SOL    HW3 4376   0.192   1.879   1.153
 1014SOL    MW4 4377   0.110   1.870   1.129
 1015SOL     OW 4378   1.735   3.060   0.758
 1015SOL    HW2 4379   1.714   3.006   0.681
 1015SOL    HW3 4380   1.831   3.058   0.762
 1015SOL    MW4 4381   1.744   3.053   0.747
 1016SOL     OW 4382   0.427   3.205   1.501
 1016SOL    HW2 4383   0.348   3.155   1.524
 1016SOL    HW3 4384   0.497   3.164   1.551
 1016SOL    MW4 4385   0.425   3.193   1.511
 1017SOL     OW 4386   0.311   1.994   0.184
 1017SOL    HW2 4387   0.240   2.049   0.152
 1017SOL    HW3 4388   0.353   1.960   0.105
 1017SOL    MW4 4389   0.307   1.996   0.170
 1018SOL     OW 4390   1.435   2.491   1.020
 1018SOL    HW2 4391   1.358   2.537   0.986
 1018SOL    HW3 4392   1.492   2.560   1.054
 1018SOL    MW4 4393   1.432   2.506   1.020
 1019SOL     OW 4394   0.067   2.093   0.033
 1019SOL    HW2 4395   0.034   2.172   0.077
 1019SOL    HW3 4396   0.122   2.126  -0.038
 1019SOL    MW4 4397   0.070   2.107   0.030
 1020SOL     OW 4398   0.101   3.350   0.222
 1020SOL    HW2 4399   0.118   3.434   0.264
 1020SOL    HW3 4400   0.136   3.359   0.134
 1020SOL    MW4 4401   0.106   3.363   0.216
 1021SOL     OW 4402   1.373   3.439   0.439
 1021SOL    HW2 4403   1.436   3.429   0.368
 1021SOL    HW3 4404   1.290   3.459   0.394
 1021SOL    MW4 4405   1.370   3.440   0.424
 1022SOL     OW 4406   1.736   2.707   2.125
 1022SOL    HW2 4407   1.777   2.649   2.190
 1022SOL    HW3 4408   1.643   2.699   2.142
 1022SOL    MW4 4409   1.730   2.699   2.135
 1023SOL     OW 4410   1.602   2.639   3.120
 1023SOL    HW2 4411   1.557   2.706   3.171
 1023SOL    HW3 4412   1.690   2.675   3.106
 1023SOL    MW4 4413   1.608   2.652   3.124
 1024SOL     OW 4414   0.530   2.890   2.354
 1024SOL    HW2 4415   0.620   2.865   2.338
 1024SOL    HW3 4416   0.526   2.983   2.331
 1024SOL    MW4 4417   0.542   2.899   2.349
 1025SOL     OW 4418   1.646   3.593   2.496
 1025SOL    HW2 4419   1.658   3.539   2.574
 1025SOL    HW3 4420   1.683   3.541   2.425
 1025SOL    MW4 4421   1.652   3.578   2.497
 1026SOL     OW 4422   1.025   3.478   3.497
 1026SOL    HW2 4423   1.066   3.514   3.418
 1026SOL    HW3 4424   1.060   3.389   3.504
 1026SOL    MW4 4425   1.036   3.471   3.488
 1027SOL     OW 4426   1.582   3.033   3.101
 1027SOL    HW2 4427   1.503   2.998   3.059
 1027SOL    HW3 4428   1.609   3.105   3.045
 1027SOL    MW4 4429   1.575   3.038   3.088
 1028SOL     OW 4430   0.814   2.346   2.367
 1028SOL    HW2 4431   0.789   2.434   2.395
 1028SOL    HW3 4432   0.811   2.349   2.271
 1028SOL    MW4 4433   0.810   2.358   2.359
 1029SOL     OW 4434   0.256   2.374   2.295
 1029SOL    HW2 4435   0.288   2.462   2.277
 1029SOL    HW3 4436   0.244   2.372   2.390
 1029SOL    MW4 4437   0.259   2.386   2.307
 1030SOL     OW 4438   0.334   2.787   3.196
 1030SOL    HW2 4439   0.397   2.734   3.147
 1030SOL    HW3 4440   0.315   2.861   3.139
 1030SOL    MW4 4441   0.340   2.789   3.183
 1031SOL     OW 4442   0.655   2.129   2.382
 1031SOL    HW2 4443   0.713   2.205   2.384
 1031SOL    HW3 4444   0.590   2.150   2.315
 1031SOL    MW4 4445   0.654   2.141   2.373
 1032SOL     OW 4446   0.742   3.056   2.557
 1032SOL    HW2 4447   0.822   3.059   2.609
 1032SOL    HW3 4448   0.770   3.023   2.471
 1032SOL    MW4 4449   0.756   3.052   2.552
 1033SOL     OW 4450   0.767   3.397   3.460
 1033SOL    HW2 4451   0.851   3.423   3.499
 1033SOL    HW3 4452   0.791   3.341   3.386
 1033SOL    MW4 4453   0.781   3.393   3.455
 1034SOL     OW 4454   0.519   2.560   2.548
 1034SOL    HW2 4455   0.504   2.480   2.599
 1034SOL    HW3 4456   0.601   2.595   2.582
 1034SOL    MW4 4457   0.527   2.552   2.560
 1035SOL     OW 4458   0.856   3.246   3.233
 1035SOL    HW2 4459   0.820   3.312   3.173
 1035SOL    HW3 4460   0.784   3.184   3.246
 1035SOL    MW4 4461   0.842   3.246   3.227
 1036SOL     OW 4462   0.661   2.386   2.925
 1036SOL    HW2 4463   0.567   2.382   2.943
 1036SOL    HW3 4464   0.691   2.295   2.934
 1036SOL    MW4 4465   0.652   2.374   2.928
 1037SOL     OW 4466   0.407   2.800   2.829
 1037SOL    HW2 4467   0.362   2.807   2.745
 1037SOL    HW3 4468   0.387   2.883   2.873
 1037SOL    MW4 4469   0.399   2.812   2.823
 1038SOL     OW 4470   0.104   3.646   2.704
 1038SOL    HW2 4471   0.193   3.638   2.739
 1038SOL    HW3 4472   0.068   3.558   2.709
 1038SOL    MW4 4473   0.111   3.633   2.709
 1039SOL     OW 4474   1.369   3.038   2.073
 1039SOL    HW2 4475   1.287   3.074   2.039
 1039SOL    HW3 4476   1.437   3.081   2.022
 1039SOL    MW4 4477   1.367   3.048   2.061
 1040SOL     OW 4478   0.368   3.173   2.739
 1040SOL    HW2 4479   0.344   3.226   2.815
 1040SOL    HW3 4480   0.424   3.231   2.687
 1040SOL    MW4 4481   0.372   3.188   2.742
 1041SOL     OW 4482   0.930   2.817   2.549
 1041SOL    HW2 4483   0.844   2.804   2.589
 1041SOL    HW3 4484   0.983   2.744   2.581
 1041SOL    MW4 4485   0.926   2.806   2.558
 1042SOL     OW 4486   0.338   3.469   3.334
 1042SOL    HW2 4487   0.246   3.445   3.319
 1042SOL    HW3 4488   0.382   3.386   3.351
 1042SOL    MW4 4489   0.332   3.454   3.333
 1043SOL     OW 4490   0.921   3.179   2.266
 1043SOL    HW2 4491   0.898   3.241   2.334
 1043SOL    HW3 4492   0.878   3.097   2.292
 1043SOL    MW4 4493   0.913   3.175   2.277
 1044SOL     OW 4494   1.794   2.180   2.722
 1044SOL    HW2 4495   1.731   2.160   2.791
 1044SOL    HW3 4496   1.784   2.109   2.659
 1044SOL    MW4 4497   1.784   2.167   2.723
 1045SOL     OW 4498   0.418   2.152   2.234
 1045SOL    HW2 4499   0.392   2.114   2.150
 1045SOL    HW3 4500   0.355   2.222   2.250
 1045SOL    MW4 4501   0.407   2.155   2.225
 1046SOL     OW 4502   0.253   3.113   2.271
 1046SOL    HW2 4503   0.201   3.181   2.227
 1046SOL    HW3 4504   0.250   3.039   2.211
 1046SOL    MW4 4505   0.245   3.112   2.258
 1047SOL     OW 4506   0.915   3.576   2.049
 1047SOL    HW2 4507   0.870   3.592   2.132
 1047SOL    HW3 4508   0.846   3.541   1.991
 1047SOL    MW4 4509   0.901   3.573   2.051
 1048SOL     OW 4510   1.850   2.349   2.024
 1048SOL    HW2 4511   1.759   2.351   2.052
 1048SOL    HW3 4512   1.895   2.411   2.082
 1048SOL    MW4 4513   1.843   2.357   2.034
 1049SOL     OW 4514   1.595   2.952   2.374
 1049SOL    HW2 4515   1.505   2.952   2.409
 1049SOL    HW3 4516   1.588   2.998   2.291
 1049SOL    MW4 4517   1.582   2.958   2.368
 1050SOL     OW 4518   1.395   2.587   3.446
 1050SOL    HW2 4519   1.464   2.525   3.423
 1050SOL    HW3 4520   1.320   2.561   3.393
 1050SOL    MW4 4521   1.395   2.574   3.437
 1051SOL     OW 4522   0.136   3.467   2.998
 1051SOL    HW2 4523   0.119   3.413   3.075
 1051SOL    HW3 4524   0.124   3.557   3.028
 1051SOL    MW4 4525   0.133   3.471   3.012
 1052SOL     OW 4526   1.131   2.974   3.438
 1052SOL    HW2 4527   1.116   3.067   3.423
 1052SOL    HW3 4528   1.226   2.964   3.438
 1052SOL    MW4 4529   1.140   2.984   3.435
 1053SOL     OW 4530   0.927   2.398   3.639
 1053SOL    HW2 4531   1.017   2.399   3.606
 1053SOL    HW3 4532   0.886   2.323   3.597
 1053SOL    MW4 4533   0.933   2.388   3.630
 1054SOL     OW 4534   1.502   2.930   2.766
 1054SOL    HW2 4535   1.505   2.864   2.697
 1054SOL    HW3 4536   1.587   2.973   2.762
 1054SOL    MW4 4537   1.514   2.926   2.757
 1055SOL     OW 4538   1.122   2.533   2.335
 1055SOL    HW2 4539   1.148   2.557   2.246
 1055SOL    HW3 4540   1.104   2.440   2.331
 1055SOL    MW4 4541   1.124   2.525   2.322
 1056SOL     OW 4542   1.787   3.153   2.186
 1056SOL    HW2 4543   1.743   3.194   2.261
 1056SOL    HW3 4544   1.844   3.221   2.151
 1056SOL    MW4 4545   1.789   3.167   2.191
 1057SOL     OW 4546   0.707   2.202   3.589
 1057SOL    HW2 4547   0.717   2.128   3.529
 1057SOL    HW3 4548   0.743   2.171   3.672
 1057SOL    MW4 4549   0.713   2.188   3.591
 1058SOL     OW 4550   0.443   3.569   2.504
 1058SOL    HW2 4551   0.475   3.657   2.482
 1058SOL    HW3 4552   0.396   3.541   2.426
 1058SOL    MW4 4553   0.442   3.577   2.491
 1059SOL     OW 4554   1.827   1.931   2.553
 1059SOL    HW2 4555   1.881   1.882   2.615
 1059SOL    HW3 4556   1.770   1.865   2.514
 1059SOL    MW4 4557   1.827   1.915   2.555
 1060SOL     OW 4558   0.159   3.629   2.081
 1060SOL    HW2 4559   0.188   3.719   2.073
 1060SOL    HW3 4560   0.109   3.612   2.002
 1060SOL    MW4 4561   0.157   3.637   2.070
 1061SOL     OW 4562   0.946   1.884   2.966
 1061SOL    HW2 4563   0.905   1.962   2.928
 1061SOL    HW3 4564   1.040   1.902   2.961
 1061SOL    MW4 4565   0.952   1.896   2.961
 1062SOL     OW 4566   1.563   3.437   2.052
 1062SOL    HW2 4567   1.611   3.506   2.098
 1062SOL    HW3 4568   1.484   3.481   2.021
 1062SOL    MW4 4569   1.558   3.451   2.055
 1063SOL     OW 4570   0.961   2.562   1.996
 1063SOL    HW2 4571   0.963   2.509   1.917
 1063SOL    HW3 4572   1.049   2.599   2.002
 1063SOL    MW4 4573   0.973   2.561   1.985
 1064SOL     OW 4574   1.575   2.488   2.332
 1064SOL    HW2 4575   1.614   2.488   2.419
 1064SOL    HW3 4576   1.516   2.564   2.332
 1064SOL    MW4 4577   1.572   2.499   2.343
 1065SOL     OW 4578   0.892   2.855   3.461
 1065SOL    HW2 4579   0.869   2.835   3.551
 1065SOL    HW3 4580   0.977   2.899   3.466
 1065SOL    MW4 4581   0.899   2.858   3.473
 1066SOL     OW 4582   0.972   1.992   3.221
 1066SOL    HW2 4583   0.978   1.954   3.134
 1066SOL    HW3 4584   0.961   2.086   3.206
 1066SOL    MW4 4585   0.973   2.000   3.209
 1067SOL     OW 4586   1.061   2.481   3.055
 1067SOL    HW2 4587   1.136   2.510   3.002
 1067SOL    HW3 4588   0.993   2.546   3.039
 1067SOL    MW4 4589   1.062   2.493   3.045
 1068SOL     OW 4590   1.611   2.449   3.332
 1068SOL    HW2 4591   1.592   2.358   3.311
 1068SOL    HW3 4592   1.589   2.498   3.253
 1068SOL    MW4 4593   1.606   2.442   3.319
 1069SOL     OW 4594   1.753   3.543   3.236
 1069SOL    HW2 4595   1.681   3.505   3.287
 1069SOL    HW3 4596   1.770   3.628   3.277
 1069SOL    MW4 4597   1.747   3.548   3.248
 1070SOL     OW 4598   1.058   2.187   3.438
 1070SOL    HW2 4599   1.024   2.226   3.357
 1070SOL    HW3 4600   1.036   2.095   3.431
 1070SOL    MW4 4601   1.051   2.180   3.428
 1071SOL     OW 4602   1.467   3.001   3.514
 1071SOL    HW2 4603   1.549   3.042   3.544
 1071SOL    HW3 4604   1.430   2.963   3.594
 1071SOL    MW4 4605   1.473   3.002   3.529
 1072SOL     OW 4606   1.762   2.374   2.498
 1072SOL    HW2 4607   1.851   2.343   2.515
 1072SOL    HW3 4608   1.705   2.314   2.546
 1072SOL    MW4 4609   1.765   2.362   2.507
 1073SOL     OW 4610   0.188   2.088   2.527
 1073SOL    HW2 4611   0.179   2.028   2.453
 1073SOL    HW3 4612   0.121   2.059   2.590
 1073SOL    MW4 4613   0.178   2.075   2.525
 1074SOL     OW 4614   1.131   3.181   2.088
 1074SOL    HW2 4615   1.081   3.183   2.170
 1074SOL    HW3 4616   1.065   3.199   2.020
 1074SOL    MW4 4617   1.117   3.183   2.090
 1075SOL     OW 4618   0.135   2.261   2.890
 1075SOL    HW2 4619   0.107   2.352   2.899
 1075SOL    HW3 4620   0.072   2.222   2.829
 1075SOL    MW4 4621   0.122   2.267   2.884
 1076SOL     OW 4622   0.594   3.599   2.196
 1076SOL    HW2 4623   0.515   3.557   2.229
 1076SOL    HW3 4624   0.660   3.582   2.263
 1076SOL    MW4 4625   0.593   3.591   2.209
 1077SOL     OW 4626   1.722   3.119   3.593
 1077SOL    HW2 4627   1.772   3.045   3.625
 1077SOL    HW3 4628   1.668   3.146   3.668
 1077SOL    MW4 4629   1.722   3.113   3.606
 1078SOL     OW 4630   0.730   3.014   1.903
 1078SOL    HW2 4631   0.652   2.960   1.890
 1078SOL    HW3 4632   0.701   3.087   1.956
 1078SOL    MW4 4633   0.716   3.016   1.908
 1079SOL     OW 4634   1.856   2.754   3.095
 1079SOL    HW2 4635   1.872   2.792   3.008
 1079SOL    HW3 4636   1.890   2.820   3.156
 1079SOL    MW4 4637   1.863   2.767   3.091
 1080SOL     OW 4638   1.648   3.463   2.764
 1080SOL    HW2 4639   1.677   3.530   2.825
 1080SOL    HW3 4640   1.629   3.387   2.819
 1080SOL    MW4 4641   1.650   3.463   2.779
 1081SOL     OW 4642   1.311   3.530   1.971
 1081SOL    HW2 4643   1.237   3.493   2.021
 1081SOL    HW3 4644   1.319   3.620   2.004
 1081SOL    MW4 4645   1.302   3.537   1.983
 1082SOL     OW 4646   0.119   2.536   3.060
 1082SOL    HW2 4647   0.181   2.566   3.126
 1082SOL    HW3 4648   0.053   2.605   3.054
 1082SOL    MW4 4649   0.118   2.549   3.067
 1083SOL     OW 4650   1.535   3.204   1.913
 1083SOL    HW2 4651   1.482   3.253   1.849
 1083SOL    HW3 4652   1.566   3.270   1.974
 1083SOL    MW4 4653   1.533   3.218   1.911
 1084SOL     OW 4654   0.760   2.093   1.968
 1084SOL    HW2 4655   0.708   2.013   1.956
 1084SOL    HW3 4656   0.847   2.070   1.936
 1084SOL    MW4 4657   0.763   2.079   1.962
 1085SOL     OW 4658   0.214   3.645   3.512
 1085SOL    HW2 4659   0.188   3.713   3.450
 1085SOL    HW3 4660   0.262   3.582   3.460
 1085SOL    MW4 4661   0.216   3.645   3.498
 1086SOL     OW 4662   0.266   2.964   3.019
 1086SOL    HW2 4663   0.319   3.039   3.044
 1086SOL    HW3 4664   0.185   3.002   2.985
 1086SOL    MW4 4665   0.262   2.979   3.019
 1087SOL     OW 4666   0.806   2.868   3.007
 1087SOL    HW2 4667   0.834   2.777   3.019
 1087SOL    HW3 4668   0.735   2.862   2.943
 1087SOL    MW4 4669   0.799   2.856   3.002
 1088SOL     OW 4670   0.121   2.733   2.425
 1088SOL    HW2 4671   0.212   2.748   2.452
 1088SOL    HW3 4672   0.124   2.654   2.371
 1088SOL    MW4 4673   0.133   2.725   2.423
 1089SOL     OW 4674   0.357   2.441   3.679
 1089SOL    HW2 4675   0.304   2.521   3.686
 1089SOL    HW3 4676   0.427   2.453   3.744
 1089SOL    MW4 4677   0.359   2.454   3.687
 1090SOL     OW 4678   0.743   1.991   3.386
 1090SOL    HW2 4679   0.720   1.899   3.388
 1090SOL    HW3 4680   0.829   1.993   3.343
 1090SOL    MW4 4681   0.750   1.981   3.382
 1091SOL     OW 4682   0.427   2.515   3.425
 1091SOL    HW2 4683   0.507   2.565   3.411
 1091SOL    HW3 4684   0.418   2.509   3.520
 1091SOL    MW4 4685   0.436   2.521   3.435
 1092SOL     OW 4686   0.748   3.665   2.799
 1092SOL    HW2 4687   0.837   3.680   2.829
 1092SOL    HW3 4688   0.743   3.712   2.715
 1092SOL    MW4 4689   0.758   3.673   2.792
 1093SOL     OW 4690   1.404   2.040   3.696
 1093SOL    HW2 4691   1.460   1.967   3.722
 1093SOL    HW3 4692   1.374   2.078   3.778
 1093SOL    MW4 4693   1.408   2.035   3.709
 1094SOL     OW 4694   0.129   3.345   2.464
 1094SOL    HW2 4695   0.101   3.384   2.546
 1094SOL    HW3 4696   0.149   3.254   2.486
 1094SOL    MW4 4697   0.127   3.337   2.477
 1095SOL     OW 4698   0.962   3.388   2.499
 1095SOL    HW2 4699   1.045   3.342   2.483
 1095SOL    HW3 4700   0.952   3.387   2.595
 1095SOL    MW4 4701   0.972   3.381   2.509
 1096SOL     OW 4702   1.794   2.533   2.813
 1096SOL    HW2 4703   1.883   2.563   2.795
 1096SOL    HW3 4704   1.774   2.473   2.742
 1096SOL    MW4 4705   1.803   2.530   2.802
 1097SOL     OW 4706   0.695   3.445   1.904
 1097SOL    HW2 4707   0.635   3.514   1.874
 1097SOL    HW3 4708   0.640   3.387   1.957
 1097SOL    MW4 4709   0.679   3.447   1.906
 1098SOL     OW 4710   1.133   2.090   2.127
 1098SOL    HW2 4711   1.066   2.066   2.064
 1098SOL    HW3 4712   1.198   2.139   2.076
 1098SOL    MW4 4713   1.133   2.092   2.112
 1099SOL     OW 4714   0.940   2.274   3.212
 1099SOL    HW2 4715   0.859   2.315   3.240
 1099SOL    HW3 4716   0.987   2.342   3.164
 1099SOL    MW4 4717   0.935   2.289   3.210
 1100SOL     OW 4718   1.200   2.612   2.835
 1100SOL    HW2 4719   1.213   2.706   2.845
 1100SOL    HW3 4720   1.161   2.602   2.749
 1100SOL    MW4 4721   1.196   2.623   2.825
 1101SOL     OW 4722   0.652   2.807   2.639
 1101SOL    HW2 4723   0.563   2.798   2.672
 1101SOL    HW3 4724   0.656   2.897   2.607
 1101SOL    MW4 4725   0.641   2.818   2.639
 1102SOL     OW 4726   1.451   2.390   2.634
 1102SOL    HW2 4727   1.396   2.311   2.633
 1102SOL    HW3 4728   1.433   2.431   2.718
 1102SOL    MW4 4729   1.441   2.385   2.643
 1103SOL     OW 4730   0.422   2.077   3.451
 1103SOL    HW2 4731   0.343   2.095   3.503
 1103SOL    HW3 4732   0.417   2.139   3.378
 1103SOL    MW4 4733   0.412   2.087   3.448
 1104SOL     OW 4734   1.070   2.594   2.591
 1104SOL    HW2 4735   1.007   2.526   2.615
 1104SOL    HW3 4736   1.090   2.575   2.499
 1104SOL    MW4 4737   1.064   2.581   2.583
 1105SOL     OW 4738   0.326   3.489   2.293
 1105SOL    HW2 4739   0.287   3.536   2.219
 1105SOL    HW3 4740   0.260   3.424   2.318
 1105SOL    MW4 4741   0.313   3.487   2.287
 1106SOL     OW 4742   0.818   2.898   2.317
 1106SOL    HW2 4743   0.820   2.872   2.224
 1106SOL    HW3 4744   0.876   2.835   2.360
 1106SOL    MW4 4745   0.826   2.887   2.311
 1107SOL     OW 4746   1.371   3.458   3.089
 1107SOL    HW2 4747   1.296   3.504   3.127
 1107SOL    HW3 4748   1.353   3.365   3.106
 1107SOL    MW4 4749   1.360   3.452   3.097
 1108SOL     OW 4750   1.375   3.666   2.519
 1108SOL    HW2 4751   1.318   3.619   2.458
 1108SOL    HW3 4752   1.461   3.627   2.506
 1108SOL    MW4 4753   1.378   3.657   2.509
 1109SOL     OW 4754   1.328   2.142   2.650
 1109SOL    HW2 4755   1.356   2.074   2.711
 1109SOL    HW3 4756   1.242   2.113   2.620
 1109SOL    MW4 4757   1.321   2.129   2.654
 1110SOL     OW 4758   0.133   3.076   2.584
 1110SOL    HW2 4759   0.197   3.108   2.647
 1110SOL    HW3 4760   0.182   3.012   2.532
 1110SOL    MW4 4761   0.148   3.072   2.585
 1111SOL     OW 4762   0.633   3.152   3.566
 1111SOL    HW2 4763   0.681   3.235   3.553
 1111SOL    HW3 4764   0.690   3.100   3.622
 1111SOL    MW4 4765   0.647   3.156   3.572
 1112SOL     OW 4766   0.209   3.394   3.706
 1112SOL    HW2 4767   0.265   3.318   3.721
 1112SOL    HW3 4768   0.158   3.372   3.628
 1112SOL    MW4 4769   0.209   3.381   3.697
 1113SOL     OW 4770   1.308   2.246   1.985
 1113SOL    HW2 4771   1.281   2.312   1.921
 1113SOL    HW3 4772   1.378   2.289   2.035
 1113SOL    MW4 4773   1.313   2.259   1.982
 1114SOL     OW 4774   0.976   1.951   1.922
 1114SOL    HW2 4775   1.032   1.943   1.844
 1114SOL    HW3 4776   0.953   1.861   1.944
 1114SOL    MW4 4777   0.981   1.938   1.915
 1115SOL     OW 4778   1.481   2.802   2.127
 1115SOL    HW2 4779   1.448   2.891   2.117
 1115SOL    HW3 4780   1.446   2.773   2.212
 1115SOL    MW4 4781   1.471   2.811   2.138
 1116SOL     OW 4782   1.094   3.231   3.315
 1116SOL    HW2 4783   1.005   3.237   3.283
 1116SOL    HW3 4784   1.138   3.310   3.283
 1116SOL    MW4 4785   1.089   3.241   3.307
 1117SOL     OW 4786   0.387   1.899   3.657
 1117SOL    HW2 4787   0.315   1.864   3.605
 1117SOL    HW3 4788   0.445   1.940   3.592
 1117SOL    MW4 4789   0.385   1.900   3.642
 1118SOL     OW 4790   0.411   3.389   2.956
 1118SOL    HW2 4791   0.456   3.451   3.013
 1118SOL    HW3 4792   0.318   3.408   2.969
 1118SOL    MW4 4793   0.404   3.399   2.963
 1119SOL     OW 4794   1.851   2.918   3.310
 1119SOL    HW2 4795   1.766   2.931   3.269
 1119SOL    HW3 4796   1.831   2.882   3.397
 1119SOL    MW4 4797   1.838   2.914   3.315
 1120SOL     OW 4798   0.833   3.457   3.064
 1120SOL    HW2 4799   0.857   3.446   2.973
 1120SOL    HW3 4800   0.756   3.514   3.062
 1120SOL    MW4 4801   0.825   3.462   3.053
 1121SOL     OW 4802   0.475   2.840   1.919
 1121SOL    HW2 4803   0.398   2.853   1.975
 1121SOL    HW3 4804   0.439   2.804   1.838
 1121SOL    MW4 4805   0.461   2.836   1.916
 1122SOL     OW 4806   1.128   2.813   2.162
 1122SOL    HW2 4807   1.038   2.834   2.137
 1122SOL    HW3 4808   1.155   2.886   2.218
 1122SOL    MW4 4809   1.120   2.825   2.165
 1123SOL     OW 4810   0.628   3.162   2.854
 1123SOL    HW2 4811   0.621   3.141   2.948
 1123SOL    HW3 4812   0.546   3.130   2.817
 1123SOL    MW4 4813   0.616   3.156   2.861
 1124SOL     OW 4814   1.492   2.172   3.256
 1124SOL    HW2 4815   1.439   2.174   3.336
 1124SOL    HW3 4816   1.477   2.085   3.219
 1124SOL    MW4 4817   1.484   2.162   3.261
 1125SOL     OW 4818   1.828   2.096   3.129
 1125SOL    HW2 4819   1.809   2.163   3.064
 1125SOL    HW3 4820   1.885   2.034   3.084
 1125SOL    MW4 4821   1.832   2.097   3.115
 1126SOL     OW 4822   0.074   3.254   3.517
 1126SOL    HW2 4823   0.118   3.187   3.463
 1126SOL    HW3 4824  -0.011   3.216   3.537
 1126SOL    MW4 4825   0.069   3.240   3.513
 1127SOL     OW 4826   0.757   1.929   2.569
 1127SOL    HW2 4827   0.686   1.990   2.551
 1127SOL    HW3 4828   0.808   1.926   2.488
 1127SOL    MW4 4829   0.753   1.935   2.556
 1128SOL     OW 4830   0.515   3.169   2.318
 1128SOL    HW2 4831   0.508   3.201   2.408
 1128SOL    HW3 4832   0.425   3.153   2.290
 1128SOL    MW4 4833   0.503   3.171   2.325
 1129SOL     OW 4834   1.110   3.562   3.227
 1129SOL    HW2 4835   1.030   3.547   3.177
 1129SOL    HW3 4836   1.117   3.657   3.234
 1129SOL    MW4 4837   1.101   3.573   3.221
 1130SOL     OW 4838   1.224   3.527   2.717
 1130SOL    HW2 4839   1.271   3.600   2.676
 1130SOL    HW3 4840   1.145   3.566   2.753
 1130SOL    MW4 4841   1.219   3.542   2.716
 1131SOL     OW 4842   1.632   3.622   2.992
 1131SOL    HW2 4843   1.675   3.592   3.072
 1131SOL    HW3 4844   1.551   3.570   2.989
 1131SOL    MW4 4845   1.627   3.611   3.002
 1132SOL     OW 4846   0.717   2.586   3.699
 1132SOL    HW2 4847   0.787   2.528   3.671
 1132SOL    HW3 4848   0.660   2.531   3.754
 1132SOL    MW4 4849   0.719   2.573   3.703
 1133SOL     OW 4850   1.504   2.798   3.332
 1133SOL    HW2 4851   1.509   2.851   3.412
 1133SOL    HW3 4852   1.466   2.715   3.360
 1133SOL    MW4 4853   1.500   2.793   3.347
 1134SOL     OW 4854   1.144   1.933   3.578
 1134SOL    HW2 4855   1.139   1.840   3.559
 1134SOL    HW3 4856   1.227   1.944   3.624
 1134SOL    MW4 4857   1.152   1.922   3.582
 1135SOL     OW 4858   0.518   2.453   2.032
 1135SOL    HW2 4859   0.484   2.509   2.102
 1135SOL    HW3 4860   0.589   2.403   2.072
 1135SOL    MW4 4861   0.524   2.454   2.046
 1136SOL     OW 4862   1.614   3.204   2.854
 1136SOL    HW2 4863   1.649   3.186   2.767
 1136SOL    HW3 4864   1.519   3.205   2.841
 1136SOL    MW4 4865   1.606   3.201   2.841
 1137SOL     OW 4866   1.043   2.852   3.223
 1137SOL    HW2 4867   1.086   2.887   3.301
 1137SOL    HW3 4868   1.026   2.929   3.169
 1137SOL    MW4 4869   1.046   2.867   3.226
 1138SOL     OW 4870   1.574   2.339   2.096
 1138SOL    HW2 4871   1.566   2.410   2.033
 1138SOL    HW3 4872   1.592   2.383   2.179
 1138SOL    MW4 4873   1.575   2.353   2.098
 1139SOL     OW 4874   0.434   1.994   2.525
 1139SOL    HW2 4875   0.484   2.037   2.456
 1139SOL    HW3 4876   0.349   2.038   2.525
 1139SOL    MW4 4877   0.431   2.007   2.516
 1140SOL     OW 4878   0.193   3.056   3.385
 1140SOL    HW2 4879   0.221   3.009   3.463
 1140SOL    HW3 4880   0.114   3.011   3.356
 1140SOL    MW4 4881   0.186   3.045   3.391
 1141SOL     OW 4882   0.701   2.383   3.352
 1141SOL    HW2 4883   0.673   2.471   3.376
 1141SOL    HW3 4884   0.670   2.327   3.423
 1141SOL    MW4 4885   0.693   2.386   3.364
 1142SOL     OW 4886   1.243   2.601   2.071
 1142SOL    HW2 4887   1.290   2.619   1.990
 1142SOL    HW3 4888   1.209   2.685   2.099
 1142SOL    MW4 4889   1.245   2.615   2.064
 1143SOL     OW 4890   0.356   2.779   2.565
 1143SOL    HW2 4891   0.414   2.835   2.513
 1143SOL    HW3 4892   0.400   2.694   2.567
 1143SOL    MW4 4893   0.369   2.776   2.558
 1144SOL     OW 4894   1.496   2.131   2.402
 1144SOL    HW2 4895   1.418   2.081   2.427
 1144SOL    HW3 4896   1.467   2.222   2.402
 1144SOL    MW4 4897   1.482   2.135   2.405
 1145SOL     OW 4898   1.082   2.093   2.561
 1145SOL    HW2 4899   1.102   2.168   2.505
 1145SOL    HW3 4900   1.062   2.132   2.646
 1145SOL    MW4 4901   1.083   2.109   2.565
 1146SOL     OW 4902   0.978   3.343   1.893
 1146SOL    HW2 4903   1.005   3.421   1.845
 1146SOL    HW3 4904   0.885   3.358   1.912
 1146SOL    MW4 4905   0.969   3.356   1.889
 1147SOL     OW 4906   1.842   2.866   3.580
 1147SOL    HW2 4907   1.755   2.846   3.616
 1147SOL    HW3 4908   1.896   2.792   3.605
 1147SOL    MW4 4909   1.837   2.855   3.588
 1148SOL     OW 4910   0.063   3.379   2.737
 1148SOL    HW2 4911   0.095   3.383   2.828
 1148SOL    HW3 4912  -0.032   3.387   2.745
 1148SOL    MW4 4913   0.055   3.382   2.750
 1149SOL     OW 4914   0.018   2.505   2.284
 1149SOL    HW2 4915  -0.042   2.477   2.354
 1149SOL    HW3 4916   0.092   2.445   2.290
 1149SOL    MW4 4917   0.020   2.494   2.293
 1150SOL     OW 4918   1.586   3.717   3.718
 1150SOL    HW2 4919   1.631   3.641   3.683
 1150SOL    HW3 4920   1.624   3.730   3.805
 1150SOL    MW4 4921   1.596   3.710   3.724
 1151SOL     OW 4922   1.186   3.236   2.444
 1151SOL    HW2 4923   1.209   3.187   2.522
 1151SOL    HW3 4924   1.267   3.278   2.416
 1151SOL    MW4 4925   1.199   3.236   2.451
 1152SOL     OW 4926   0.444   2.244   3.173
 1152SOL    HW2 4927   0.477   2.325   3.213
 1152SOL    HW3 4928   0.417   2.270   3.085
 1152SOL    MW4 4929   0.443   2.258   3.167
 1153SOL     OW 4930   0.398   2.211   2.909
 1153SOL    HW2 4931   0.428   2.125   2.880
 1153SOL    HW3 4932   0.303   2.204   2.912
 1153SOL    MW4 4933   0.390   2.200   2.907
 1154SOL     OW 4934   1.227   2.420   3.600
 1154SOL    HW2 4935   1.279   2.355   3.553
 1154SOL    HW3 4936   1.185   2.471   3.530
 1154SOL    MW4 4937   1.228   2.417   3.583
 1155SOL     OW 4938   1.326   2.215   3.461
 1155SOL    HW2 4939   1.233   2.199   3.448
 1155SOL    HW3 4940   1.352   2.153   3.529
 1155SOL    MW4 4941   1.316   2.205   3.468
 1156SOL     OW 4942   0.541   1.989   2.800
 1156SOL    HW2 4943   0.551   1.898   2.826
 1156SOL    HW3 4944   0.497   1.985   2.715
 1156SOL    MW4 4945   0.537   1.977   2.792
 1157SOL     OW 4946   0.635   3.604   3.346
 1157SOL    HW2 4947   0.552   3.589   3.391
 1157SOL    HW3 4948   0.694   3.537   3.381
 1157SOL    MW4 4949   0.633   3.594   3.356
 1158SOL     OW 4950   1.692   2.311   2.971
 1158SOL    HW2 4951   1.625   2.344   3.031
 1158SOL    HW3 4952   1.735   2.389   2.937
 1158SOL    MW4 4953   1.690   2.326   2.975
 1159SOL     OW 4954   1.870   3.031   2.941
 1159SOL    HW2 4955   1.863   2.971   2.866
 1159SOL    HW3 4956   1.796   3.091   2.930
 1159SOL    MW4 4957   1.860   3.031   2.930
 1160SOL     OW 4958   1.252   2.893   2.859
 1160SOL    HW2 4959   1.266   2.865   2.950
 1160SOL    HW3 4960   1.338   2.924   2.831
 1160SOL    MW4 4961   1.265   2.894   2.868
 1161SOL     OW 4962   1.335   2.388   3.138
 1161SOL    HW2 4963   1.356   2.389   3.045
 1161SOL    HW3 4964   1.380   2.310   3.171
 1161SOL    MW4 4965   1.342   2.378   3.130
 1162SOL     OW 4966   1.828   2.519   3.680
 1162SOL    HW2 4967   1.865   2.464   3.749
 1162SOL    HW3 4968   1.853   2.476   3.598
 1162SOL    MW4 4969   1.835   2.507   3.679
 1163SOL     OW 4970   1.375   2.817   3.731
 1163SOL    HW2 4971   1.441   2.765   3.685
 1163SOL    HW3 4972   1.395   2.804   3.824
 1163SOL    MW4 4973   1.386   2.808   3.738
 1164SOL     OW 4974   1.326   1.903   2.080
 1164SOL    HW2 4975   1.400   1.947   2.123
 1164SOL    HW3 4976   1.250   1.957   2.102
 1164SOL    MW4 4977   1.326   1.915   2.088
 1165SOL     OW 4978   1.386   2.678   2.358
 1165SOL    HW2 4979   1.301   2.648   2.328
 1165SOL    HW3 4980   1.378   2.685   2.453
 1165SOL    MW4 4981   1.374   2.676   2.367
 1166SOL     OW 4982   0.462   3.141   3.089
 1166SOL    HW2 4983   0.474   3.168   3.180
 1166SOL    HW3 4984   0.443   3.222   3.042
 1166SOL    MW4 4985   0.461   3.156   3.094
 1167SOL     OW 4986   0.746   2.121   2.912
 1167SOL    HW2 4987   0.719   2.123   3.003
 1167SOL    HW3 4988   0.676   2.073   2.867
 1167SOL    MW4 4989   0.734   2.117   2.919
 1168SOL     OW 4990   0.600   3.613   3.074
 1168SOL    HW2 4991   0.652   3.690   3.051
 1168SOL    HW3 4992   0.609   3.605   3.169
 1168SOL    MW4 4993   0.609   3.620   3.085
 1169SOL     OW 4994   1.502   3.198   3.306
 1169SOL    HW2 4995   1.487   3.127   3.369
 1169SOL    HW3 4996   1.548   3.156   3.234
 1169SOL    MW4 4997   1.508   3.182   3.306
 1170SOL     OW 4998   0.576   2.929   3.423
 1170SOL    HW2 4999   0.613   2.934   3.335
 1170SOL    HW3 5000   0.615   3.002   3.470
 1170SOL    MW4 5001   0.586   2.939   3.418
 1171SOL     OW 5002   0.756   2.972   3.235
 1171SOL    HW2 5003   0.815   2.918   3.288
 1171SOL    HW3 5004   0.771   2.944   3.145
 1171SOL    MW4 5005   0.766   2.961   3.231
 1172SOL     OW 5006   0.759   2.344   2.084
 1172SOL    HW2 5007   0.832   2.393   2.047
 1172SOL    HW3 5008   0.775   2.253   2.058
 1172SOL    MW4 5009   0.771   2.339   2.077
 1173SOL     OW 5010   1.567   3.461   3.407
 1173SOL    HW2 5011   1.609   3.446   3.492
 1173SOL    HW3 5012   1.558   3.374   3.369
 1173SOL    MW4 5013   1.571   3.449   3.414
 1174SOL     OW 5014   1.227   1.940   2.998
 1174SOL    HW2 5015   1.282   1.949   2.920
 1174SOL    HW3 5016   1.282   1.974   3.069
 1174SOL    MW4 5017   1.241   1.945   2.997
 1175SOL     OW 5018   0.234   2.853   2.182
 1175SOL    HW2 5019   0.171   2.869   2.111
 1175SOL    HW3 5020   0.181   2.816   2.253
 1175SOL    MW4 5021   0.219   2.850   2.182
 1176SOL     OW 5022   0.590   3.207   2.041
 1176SOL    HW2 5023   0.605   3.183   2.133
 1176SOL    HW3 5024   0.498   3.185   2.025
 1176SOL    MW4 5025   0.580   3.200   2.051
 1177SOL     OW 5026   1.129   3.438   2.193
 1177SOL    HW2 5027   1.137   3.356   2.144
 1177SOL    HW3 5028   1.048   3.477   2.160
 1177SOL    MW4 5029   1.119   3.433   2.183
 1178SOL     OW 5030   0.388   3.596   2.762
 1178SOL    HW2 5031   0.392   3.507   2.797
 1178SOL    HW3 5032   0.414   3.587   2.671
 1178SOL    MW4 5033   0.391   3.584   2.754
 1179SOL     OW 5034   1.005   3.074   3.005
 1179SOL    HW2 5035   0.937   3.008   3.021
 1179SOL    HW3 5036   1.023   3.068   2.912
 1179SOL    MW4 5037   0.998   3.065   2.996
 1180SOL     OW 5038   0.094   3.349   3.256
 1180SOL    HW2 5039   0.084   3.307   3.342
 1180SOL    HW3 5040   0.015   3.402   3.246
 1180SOL    MW4 5041   0.083   3.350   3.267
 1181SOL     OW 5042   0.998   2.213   2.826
 1181SOL    HW2 5043   0.928   2.165   2.871
 1181SOL    HW3 5044   1.030   2.276   2.890
 1181SOL    MW4 5045   0.993   2.215   2.840
 1182SOL     OW 5046   0.649   2.649   3.446
 1182SOL    HW2 5047   0.642   2.744   3.434
 1182SOL    HW3 5048   0.658   2.638   3.541
 1182SOL    MW4 5049   0.650   2.661   3.456
 1183SOL     OW 5050   0.370   3.164   3.704
 1183SOL    HW2 5051   0.442   3.166   3.641
 1183SOL    HW3 5052   0.340   3.073   3.703
 1183SOL    MW4 5053   0.375   3.153   3.696
 1184SOL     OW 5054   1.454   1.927   3.171
 1184SOL    HW2 5055   1.525   1.873   3.135
 1184SOL    HW3 5056   1.453   1.906   3.264
 1184SOL    MW4 5057   1.463   1.918   3.179
 1185SOL     OW 5058   1.654   3.457   3.655
 1185SOL    HW2 5059   1.627   3.454   3.746
 1185SOL    HW3 5060   1.750   3.461   3.658
 1185SOL    MW4 5061   1.664   3.457   3.667
 1186SOL     OW 5062   0.465   2.319   2.639
 1186SOL    HW2 5063   0.536   2.267   2.602
 1186SOL    HW3 5064   0.451   2.284   2.726
 1186SOL    MW4 5065   0.473   2.308   2.646
 1187SOL     OW 5066   0.020   3.654   3.711
 1187SOL    HW2 5067   0.070   3.632   3.633
 1187SOL    HW3 5068   0.028   3.749   3.719
 1187SOL    MW4 5069   0.028   3.663   3.702
 1188SOL     OW 5070   0.781   3.412   2.715
 1188SOL    HW2 5071   0.709   3.349   2.728
 1188SOL    HW3 5072   0.742   3.497   2.733
 1188SOL    MW4 5073   0.765   3.415   2.718
 1189SOL     OW 5074   1.101   2.260   2.363
 1189SOL    HW2 5075   1.123   2.197   2.295
 1189SOL    HW3 5076   1.006   2.252   2.374
 1189SOL    MW4 5077   1.091   2.251   2.355
 1190SOL     OW 5078   0.186   1.950   2.295
 1190SOL    HW2 5079   0.257   1.971   2.234
 1190SOL    HW3 5080   0.140   1.878   2.253
 1190SOL    MW4 5081   0.190   1.944   2.281
 1191SOL     OW 5082   0.017   2.417   3.438
 1191SOL    HW2 5083   0.081   2.483   3.413
 1191SOL    HW3 5084  -0.064   2.444   3.395
 1191SOL    MW4 5085   0.015   2.429   3.430
 1192SOL     OW 5086   1.755   3.324   2.395
 1192SOL    HW2 5087   1.725   3.257   2.456
 1192SOL    HW3 5088   1.849   3.330   2.409
 1192SOL    MW4 5089   1.763   3.316   2.405
 1193SOL     OW 5090   1.311   3.001   2.325
 1193SOL    HW2 5091   1.283   3.087   2.358
 1193SOL    HW3 5092   1.339   3.017   2.235
 1193SOL    MW4 5093   1.311   3.015   2.317
 1194SOL     OW 5094   0.973   1.921   2.378
 1194SOL    HW2 5095   1.010   1.980   2.443
 1194SOL    HW3 5096   0.950   1.977   2.304
 1194SOL    MW4 5097   0.974   1.936   2.377
 1195SOL     OW 5098   1.826   2.803   2.800
 1195SOL    HW2 5099   1.817   2.835   2.711
 1195SOL    HW3 5100   1.779   2.719   2.800
 1195SOL    MW4 5101   1.819   2.796   2.790
 1196SOL     OW 5102   0.202   2.643   3.379
 1196SOL    HW2 5103   0.223   2.712   3.317
 1196SOL    HW3 5104   0.282   2.590   3.384
 1196SOL    MW4 5105   0.215   2.644   3.373
 1197SOL     OW 5106   1.738   2.734   2.501
 1197SOL    HW2 5107   1.832   2.723   2.489
 1197SOL    HW3 5108   1.714   2.806   2.442
 1197SOL    MW4 5109   1.748   2.742   2.492
 1198SOL     OW 5110   0.187   2.658   3.646
 1198SOL    HW2 5111   0.113   2.602   3.672
 1198SOL    HW3 5112   0.182   2.661   3.551
 1198SOL    MW4 5113   0.176   2.651   3.636
 1199SOL     OW 5114   0.353   1.945   3.096
 1199SOL    HW2 5115   0.396   2.029   3.116
 1199SOL    HW3 5116   0.426   1.883   3.089
 1199SOL    MW4 5117   0.368   1.948   3.097
 1200SOL     OW 5118   0.394   2.612   2.274
 1200SOL    HW2 5119   0.394   2.707   2.259
 1200SOL    HW3 5120   0.471   2.596   2.328
 1200SOL    MW4 5121   0.404   2.623   2.279
 1201SOL     OW 5122   1.170   2.471   3.338
 1201SOL    HW2 5123   1.206   2.444   3.254
 1201SOL    HW3 5124   1.083   2.505   3.317
 1201SOL    MW4 5125   1.164   2.472   3.325
 1202SOL     OW 5126   0.153   2.343   2.563
 1202SOL    HW2 5127   0.215   2.350   2.636
 1202SOL    HW3 5128   0.153   2.250   2.540
 1202SOL    MW4 5129   0.161   2.332   2.570
 1203SOL     OW 5130   1.700   3.683   2.095
 1203SOL    HW2 5131   1.767   3.716   2.035
 1203SOL    HW3 5132   1.657   3.762   2.129
 1203SOL    MW4 5133   1.702   3.698   2.091
 1204SOL     OW 5134   0.835   2.604   3.047
 1204SOL    HW2 5135   0.793   2.522   3.023
 1204SOL    HW3 5136   0.836   2.603   3.143
 1204SOL    MW4 5137   0.828   2.593   3.056
 1205SOL     OW 5138   1.506   3.737   3.446
 1205SOL    HW2 5139   1.509   3.643   3.429
 1205SOL    HW3 5140   1.529   3.745   3.538
 1205SOL    MW4 5141   1.509   3.725   3.456
 1206SOL     OW 5142   0.639   2.074   3.152
 1206SOL    HW2 5143   0.570   2.137   3.173
 1206SOL    HW3 5144   0.666   2.038   3.237
 1206SOL    MW4 5145   0.633   2.077   3.165
 1207SOL     OW 5146   0.022   2.915   2.021
 1207SOL    HW2 5147  -0.009   2.980   2.084
 1207SOL    HW3 5148  -0.029   2.837   2.040
 1207SOL    MW4 5149   0.012   2.912   2.031
 1208SOL     OW 5150   1.434   1.927   2.769
 1208SOL    HW2 5151   1.522   1.936   2.806
 1208SOL    HW3 5152   1.444   1.868   2.695
 1208SOL    MW4 5153   1.448   1.921   2.763
 1209SOL     OW 5154   1.466   2.666   2.613
 1209SOL    HW2 5155   1.546   2.681   2.562
 1209SOL    HW3 5156   1.459   2.571   2.619
 1209SOL    MW4 5157   1.475   2.655   2.608
 1210SOL     OW 5158   0.606   3.715   1.963
 1210SOL    HW2 5159   0.511   3.715   1.955
 1210SOL    HW3 5160   0.622   3.661   2.041
 1210SOL    MW4 5161   0.596   3.709   1.972
 1211SOL     OW 5162   0.916   2.592   3.310
 1211SOL    HW2 5163   0.985   2.659   3.307
 1211SOL    HW3 5164   0.849   2.630   3.366
 1211SOL    MW4 5165   0.917   2.605   3.317
 1212SOL     OW 5166   0.334   2.892   3.558
 1212SOL    HW2 5167   0.288   2.808   3.560
 1212SOL    HW3 5168   0.391   2.886   3.482
 1212SOL    MW4 5169   0.336   2.880   3.550
 1213SOL     OW 5170   1.451   2.535   1.879
 1213SOL    HW2 5171   1.379   2.511   1.821
 1213SOL    HW3 5172   1.517   2.572   1.821
 1213SOL    MW4 5173   1.450   2.537   1.864
 1214SOL     OW 5174   0.585   3.267   2.559
 1214SOL    HW2 5175   0.650   3.200   2.580
 1214SOL    HW3 5176   0.637   3.344   2.536
 1214SOL    MW4 5177   0.600   3.269   2.558
 1215SOL     OW 5178   0.846   2.432   2.689
 1215SOL    HW2 5179   0.786   2.450   2.761
 1215SOL    HW3 5180   0.880   2.344   2.708
 1215SOL    MW4 5181   0.842   2.422   2.702
 1216SOL     OW 5182   1.787   1.931   3.358
 1216SOL    HW2 5183   1.708   1.977   3.386
 1216SOL    HW3 5184   1.822   1.985   3.287
 1216SOL    MW4 5185   1.781   1.944   3.352
 1217SOL     OW 5186   1.071   3.015   2.708
 1217SOL    HW2 5187   1.163   2.996   2.726
 1217SOL    HW3 5188   1.044   2.945   2.648
 1217SOL    MW4 5189   1.079   3.003   2.702
 1218SOL     OW 5190   0.864   2.835   2.063
 1218SOL    HW2 5191   0.850   2.747   2.028
 1218SOL    HW3 5192   0.815   2.892   2.004
 1218SOL    MW4 5193   0.856   2.830   2.051
 1219SOL     OW 5194   1.345   3.253   2.804
 1219SOL    HW2 5195   1.318   3.337   2.769
 1219SOL    HW3 5196   1.305   3.248   2.891
 1219SOL    MW4 5197   1.338   3.262   2.810
 1220SOL     OW 5198   1.264   3.201   3.072
 1220SOL    HW2 5199   1.275   3.168   3.161
 1220SOL    HW3 5200   1.183   3.160   3.041
 1220SOL    MW4 5201   1.254   3.193   3.078
 1221SOL     OW 5202   0.277   2.559   2.842
 1221SOL    HW2 5203   0.227   2.558   2.923
 1221SOL    HW3 5204   0.297   2.651   2.826
 1221SOL    MW4 5205   0.273   2.571   2.850
 1222SOL     OW 5206   1.344   3.323   3.604
 1222SOL    HW2 5207   1.344   3.417   3.620
 1222SOL    HW3 5208   1.389   3.313   3.520
 1222SOL    MW4 5209   1.350   3.333   3.595
 1223SOL     OW 5210   1.583   2.041   2.165
 1223SOL    HW2 5211   1.576   2.045   2.260
 1223SOL    HW3 5212   1.595   2.132   2.138
 1223SOL    MW4 5213   1.584   2.054   2.173
 1224SOL     OW 5214   0.872   2.604   2.279
 1224SOL    HW2 5215   0.852   2.590   2.186
 1224SOL    HW3 5216   0.965   2.583   2.286
 1224SOL    MW4 5217   0.882   2.599   2.268
 1225SOL     OW 5218   0.199   2.227   3.583
 1225SOL    HW2 5219   0.156   2.286   3.520
 1225SOL    HW3 5220   0.267   2.282   3.623
 1225SOL    MW4 5221   0.203   2.242   3.580
 1226SOL     OW 5222   1.311   2.847   3.128
 1226SOL    HW2 5223   1.374   2.844   3.201
 1226SOL    HW3 5224   1.227   2.865   3.170
 1226SOL    MW4 5225   1.307   2.849   3.143
 1227SOL     OW 5226   0.855   3.562   2.317
 1227SOL    HW2 5227   0.913   3.633   2.344
 1227SOL    HW3 5228   0.878   3.490   2.375
 1227SOL    MW4 5229   0.866   3.562   2.328
 1228SOL     OW 5230   1.650   2.024   2.907
 1228SOL    HW2 5231   1.695   1.942   2.926
 1228SOL    HW3 5232   1.670   2.080   2.983
 1228SOL    MW4 5233   1.660   2.020   2.919
 1229SOL     OW 5234   0.098   1.867   3.006
 1229SOL    HW2 5235   0.089   1.868   2.911
 1229SOL    HW3 5236   0.192   1.879   3.021
 1229SOL    MW4 5237   0.110   1.870   2.997
 1230SOL     OW 5238   1.735   3.060   2.626
 1230SOL    HW2 5239   1.714   3.006   2.549
 1230SOL    HW3 5240   1.831   3.058   2.630
 1230SOL    MW4 5241   1.744   3.053   2.615
 1231SOL     OW 5242   0.427   3.205   3.369
 1231SOL    HW2 5243   0.348   3.155   3.392
 1231SOL    HW3 5244   0.497   3.164   3.419
 1231SOL    MW4 5245   0.425   3.193   3.379
 1232SOL     OW 5246   0.311   1.994   2.052
 1232SOL    HW2 5247   0.240   2.049   2.020
 1232SOL    HW3 5248   0.353   1.960   1.973
 1232SOL    MW4 5249   0.307   1.996   2.038
 1233SOL     OW 5250   1.435   2.491   2.888
 1233SOL    HW2 5251   1.358   2.537   2.854
 1233SOL    HW3 5252   1.492   2.560   2.922
 1233SOL    MW4 5253   1.432   2.506   2.888
 1234SOL     OW 5254   0.067   2.093   1.901
 1234SOL    HW2 5255   0.034   2.172   1.945
 1234SOL    HW3 5256   0.122   2.126   1.830
 1234SOL    MW4 5257   0.070   2.107   1.898
 1235SOL     OW 5258   0.101   3.350   2.090
 1235SOL    HW2 5259   0.118   3.434   2.132
 1235SOL    HW3 5260   0.136   3.359   2.002
 1235SOL    MW4 5261   0.106   3.363   2.084
 1236SOL     OW 5262   1.373   3.439   2.307
 1236SOL    HW2 5263   1.436   3.429   2.236
 1236SOL    HW3 5264   1.290   3.459   2.262
 1236SOL    MW4 5265   1.370   3.440   2.292
 1237SOL     OW 5266   1.736   2.707   3.993
 1237SOL    HW2 5267   1.777   2.649   4.058
 1237SOL    HW3 5268   1.643   2.699   4.010
 1237SOL    MW4 5269   1.730   2.699   4.003
 1238SOL     OW 5270   1.602   2.639   4.988
 1238SOL    HW2 5271   1.557   2.706   5.039
 1238SOL    HW3 5272   1.690   2.675   4.974
 1238SOL    MW4 5273   1.608   2.652   4.992
 1239SOL     OW 5274   0.530   2.890   4.222
 1239SOL    HW2 5275   0.620   2.865   4.206
 1239SOL    HW3 5276   0.526   2.983   4.199
 1239SOL    MW4 5277   0.542   2.899   4.217
 1240SOL     OW 5278   1.646   3.593   4.364
 1240SOL    HW2 5279   1.658   3.539   4.442
 1240SOL    HW3 5280   1.683   3.541   4.293
 1240SOL    MW4 5281   1.652   3.578   4.365
 1241SOL     OW 5282   1.025   3.478   5.365
 1241SOL    HW2 5283   1.066   3.514   5.286
 1241SOL    HW3 5284   1.060   3.389   5.372
 1241SOL    MW4 5285   1.036   3.471   5.356
 1242SOL     OW 5286   1.582   3.033   4.969
 1242SOL    HW2 5287   1.503   2.998   4.927
 1242SOL    HW3 5288   1.609   3.105   4.913
 1242SOL    MW4 5289   1.575   3.038   4.956
 1243SOL     OW 5290   0.814   2.346   4.235
 1243SOL    HW2 5291   0.789   2.434   4.263
 1243SOL    HW3 5292   0.811   2.349   4.139
 1243SOL    MW4 5293   0.810   2.358   4.227
 1244SOL     OW 5294   0.256   2.374   4.163
 1244SOL    HW2 5295   0.288   2.462   4.145
 1244SOL    HW3 5296   0.244   2.372   4.258
 1244SOL    MW4 5297   0.259   2.386   4.175
 1245SOL     OW 5298   0.334   2.787   5.064
 1245SOL    HW2 5299   0.397   2.734   5.015
 1245SOL    HW3 5300   0.315   2.861   5.007
 1245SOL    MW4 5301   0.340   2.789   5.051
 1246SOL     OW 5302   0.655   2.129   4.250
 1246SOL    HW2 5303   0.713   2.205   4.252
 1246SOL    HW3 5304   0.590   2.150   4.183
 1246SOL    MW4 5305   0.654   2.141   4.241
 1247SOL     OW 5306   0.742   3.056   4.425
 1247SOL    HW2 5307   0.822   3.059   4.477
 1247SOL    HW3 5308   0.770   3.023   4.339
 1247SOL    MW4 5309   0.756   3.052   4.420
 1248SOL     OW 5310   0.767   3.397   5.328
 1248SOL    HW2 5311   0.851   3.423   5.367
 1248SOL    HW3 5312   0.791   3.341   5.254
 1248SOL    MW4 5313   0.781   3.393   5.323
 1249SOL     OW 5314   0.519   2.560   4.416
 1249SOL    HW2 5315   0.504   2.480   4.467
 1249SOL    HW3 5316   0.601   2.595   4.450
 1249SOL    MW4 5317   0.527   2.552   4.428
 1250SOL     OW 5318   0.856   3.246   5.101
 1250SOL    HW2 5319   0.820   3.312   5.041
 1250SOL    HW3 5320   0.784   3.184   5.114
 1250SOL    MW4 5321   0.842   3.246   5.095
 1251SOL     OW 5322   0.661   2.386   4.793
 1251SOL    HW2 5323   0.567   2.382   4.811
 1251SOL    HW3 5324   0.691   2.295   4.802
 1251SOL    MW4 5325   0.652   2.374   4.796
 1252SOL     OW 5326   0.407   2.800   4.697
 1252SOL    HW2 5327   0.362   2.807   4.613
 1252SOL    HW3 5328   0.387   2.883   4.741
 1252SOL    MW4 5329   0.399   2.812   4.691
 1253SOL     OW 5330   0.104   3.646   4.572
 1253SOL    HW2 5331   0.193   3.638   4.607
 1253SOL    HW3 5332   0.068   3.558   4.577
 1253SOL    MW4 5333   0.111   3.633   4.577
 1254SOL     OW 5334   1.369   3.038   3.941
 1254SOL    HW2 5335   1.287   3.074   3.907
 1254SOL    HW3 5336   1.437   3.081   3.890
 1254SOL    MW4 5337   1.367   3.048   3.929
 1255SOL     OW 5338   0.368   3.173   4.607
 1255SOL    HW2 5339   0.344   3.226   4.683
 1255SOL    HW3 5340   0.424   3.231   4.555
 1255SOL    MW4 5341   0.372   3.188   4.610
 1256SOL     OW 5342   0.930   2.817   4.417
 1256SOL    HW2 5343   0.844   2.804   4.457
 1256SOL    HW3 5344   0.983   2.744   4.449
 1256SOL    MW4 5345   0.926   2.806   4.426
 1257SOL     OW 5346   0.338   3.469   5.202
 1257SOL    HW2 5347   0.246   3.445   5.187
 1257SOL    HW3 5348   0.382   3.386   5.219
 1257SOL    MW4 5349   0.332   3.454   5.201
 1258SOL     OW 5350   0.921   3.179   4.134
 1258SOL    HW2 5351   0.898   3.241   4.202
 1258SOL    HW3 5352   0.878   3.097   4.160
 1258SOL    MW4 5353   0.913   3.175   4.145
 1259SOL     OW 5354   1.794   2.180   4.590
 1259SOL    HW2 5355   1.731   2.160   4.659
 1259SOL    HW3 5356   1.784   2.109   4.527
 1259SOL    MW4 5357   1.784   2.167   4.591
 1260SOL     OW 5358   0.418   2.152   4.102
 1260SOL    HW2 5359   0.392   2.114   4.018
 1260SOL    HW3 5360   0.355   2.222   4.118
 1260SOL    MW4 5361   0.407   2.155   4.093
 1261SOL     OW 5362   0.253   3.113   4.139
 1261SOL    HW2 5363   0.201   3.181   4.095
 1261SOL    HW3 5364   0.250   3.039   4.079
 1261SOL    MW4 5365   0.245   3.112   4.126
 1262SOL     OW 5366   0.915   3.576   3.917
 1262SOL    HW2 5367   0.870   3.592   4.000
 1262SOL    HW3 5368   0.846   3.541   3.859
 1262SOL    MW4 5369   0.901   3.573   3.919
 1263SOL     OW 5370   1.850   2.349   3.892
 1263SOL    HW2 5371   1.759   2.351   3.920
 1263SOL    HW3 5372   1.895   2.411   3.950
 1263SOL    MW4 5373   1.843   2.357   3.902
 1264SOL     OW 5374   1.595   2.952   4.242
 1264SOL    HW2 5375   1.505   2.952   4.277
 1264SOL    HW3 5376   1.588   2.998   4.159
 1264SOL    MW4 5377   1.582   2.958   4.236
 1265SOL     OW 5378   1.395   2.587   5.314
 1265SOL    HW2 5379   1.464   2.525   5.291
 1265SOL    HW3 5380   1.320   2.561   5.261
 1265SOL    MW4 5381   1.395   2.574   5.305
 1266SOL     OW 5382   0.136   3.467   4.866
 1266SOL    HW2 5383   0.119   3.413   4.943
 1266SOL    HW3 5384   0.124   3.557   4.896
 1266SOL    MW4 5385   0.133   3.471   4.880
 1267SOL     OW 5386   1.131   2.974   5.306
 1267SOL    HW2 5387   1.116   3.067   5.291
 1267SOL    HW3 5388   1.226   2.964   5.306
 1267SOL    MW4 5389   1.140   2.984   5.303
 1268SOL     OW 5390   0.927   2.398   5.507
 1268SOL    HW2 5391   1.017   2.399   5.474
 1268SOL    HW3 5392   0.886   2.323   5.465
 1268SOL    MW4 5393   0.933   2.388   5.498
 1269SOL     OW 5394   1.502   2.930   4.634
 1269SOL    HW2 5395   1.505   2.864   4.565
 1269SOL    HW3 5396   1.587   2.973   4.630
 1269SOL    MW4 5397   1.514   2.926   4.625
 1270SOL     OW 5398   1.122   2.533   4.203
 1270SOL    HW2 5399   1.148   2.557   4.114
 1270SOL    HW3 5400   1.104   2.440   4.199
 1270SOL    MW4 5401   1.124   2.525   4.190
 1271SOL     OW 5402   1.787   3.153   4.054
 1271SOL    HW2 5403   1.743   3.194   4.129
 1271SOL    HW3 5404   1.844   3.221   4.019
 1271SOL    MW4 5405   1.789   3.167   4.059
 1272SOL     OW 5406   0.707   2.202   5.457
 1272SOL    HW2 5407   0.717   2.128   5.397
 1272SOL    HW3 5408   0.743   2.171   5.540
 1272SOL    MW4 5409   0.713   2.188   5.459
 1273SOL     OW 5410   1.827   1.931   4.421
 1273SOL    HW2 5411   1.881   1.882   4.483
 1273SOL    HW3 5412   1.770   1.865   4.382
 1273SOL    MW4 5413   1.827   1.915   4.423
 1274SOL     OW 5414   0.159   3.629   3.949
 1274SOL    HW2 5415   0.188   3.719   3.941
 1274SOL    HW3 5416   0.109   3.612   3.870
 1274SOL    MW4 5417   0.157   3.637   3.938
 1275SOL     OW 5418   1.563   3.437   3.920
 1275SOL    HW2 5419   1.611   3.506   3.966
 1275SOL    HW3 5420   1.484   3.481   3.889
 1275SOL    MW4 5421   1.558   3.451   3.923
 1276SOL     OW 5422   0.961   2.562   3.864
 1276SOL    HW2 5423   0.963   2.509   3.785
 1276SOL    HW3 5424   1.049   2.599   3.870
 1276SOL    MW4 5425   0.973   2.561   3.853
 1277SOL     OW 5426   1.575   2.488   4.200
 1277SOL    HW2 5427   1.614   2.488   4.287
 1277SOL    HW3 5428   1.516   2.564   4.200
 1277SOL    MW4 5429   1.572   2.499   4.211
 1278SOL     OW 5430   0.892   2.855   5.329
 1278SOL    HW2 5431   0.869   2.835   5.419
 1278SOL    HW3 5432   0.977   2.899   5.334
 1278SOL    MW4 5433   0.899   2.858   5.341
 1279SOL     OW 5434   0.972   1.992   5.089
 1279SOL    HW2 5435   0.978   1.954   5.002
 1279SOL    HW3 5436   0.961   2.086   5.074
 1279SOL    MW4 5437   0.973   2.000   5.077
 1280SOL     OW 5438   1.061   2.481   4.923
 1280SOL    HW2 5439   1.136   2.510   4.870
 1280SOL    HW3 5440   0.993   2.546   4.907
 1280SOL    MW4 5441   1.062   2.493   4.913
 1281SOL     OW 5442   1.611   2.449   5.200
 1281SOL    HW2 5443   1.592   2.358   5.179
 1281SOL    HW3 5444   1.589   2.498   5.121
 1281SOL    MW4 5445   1.606   2.442   5.187
 1282SOL     OW 5446   1.753   3.543   5.104
 1282SOL    HW2 5447   1.681   3.505   5.155
 1282SOL    HW3 5448   1.770   3.628   5.145
 1282SOL    MW4 5449   1.747   3.548   5.116
 1283SOL     OW 5450   1.058   2.187   5.306
 1283SOL    HW2 5451   1.024   2.226   5.225
 1283SOL    HW3 5452   1.036   2.095   5.299
 1283SOL    MW4 5453   1.051   2.180   5.296
 1284SOL     OW 5454   1.467   3.001   5.382
 1284SOL    HW2 5455   1.549   3.042   5.412
 1284SOL    HW3 5456   1.430   2.963   5.462
 1284SOL    MW4 5457   1.473   3.002   5.397
 1285SOL     OW 5458   1.762   2.374   4.366
 1285SOL    HW2 5459   1.851   2.343   4.383
 1285SOL    HW3 5460   1.705   2.314   4.414
 1285SOL    MW4 5461   1.765   2.362   4.375
 1286SOL     OW 5462   0.188   2.088   4.395
 1286SOL    HW2 5463   0.179   2.028   4.321
 1286SOL    HW3 5464   0.121   2.059   4.458
 1286SOL    MW4 5465   0.178   2.075   4.393
 1287SOL     OW 5466   1.131   3.181   3.956
 1287SOL    HW2 5467   1.081   3.183   4.038
 1287SOL    HW3 5468   1.065   3.199   3.888
 1287SOL    MW4 5469   1.117   3.183   3.958
 1288SOL     OW 5470   0.135   2.261   4.758
 1288SOL    HW2 5471   0.107   2.352   4.767
 1288SOL    HW3 5472   0.072   2.222   4.697
 1288SOL    MW4 5473   0.122   2.267   4.752
 1289SOL     OW 5474   0.594   3.599   4.064
 1289SOL    HW2 5475   0.515   3.557   4.097
 1289SOL    HW3 5476   0.660   3.582   4.131
 1289SOL    MW4 5477   0.593   3.591   4.077
 1290SOL     OW 5478   1.722   3.119   5.461
 1290SOL    HW2 5479   1.772   3.045   5.493
 1290SOL    HW3 5480   1.668   3.146   5.536
 1290SOL    MW4 5481   1.722   3.113   5.474
 1291SOL     OW 5482   0.730   3.014   3.771
 1291SOL    HW2 5483   0.652   2.960   3.758
 1291SOL    HW3 5484   0.701   3.087   3.824
 1291SOL    MW4 5485   0.716   3.016   3.776
 1292SOL     OW 5486   1.856   2.754   4.963
 1292SOL    HW2 5487   1.872   2.792   4.876
 1292SOL    HW3 5488   1.890   2.820   5.024
 1292SOL    MW4 5489   1.863   2.767   4.959
 1293SOL     OW 5490   1.648   3.463   4.632
 1293SOL    HW2 5491   1.677   3.530   4.693
 1293SOL    HW3 5492   1.629   3.387   4.687
 1293SOL    MW4 5493   1.650   3.463   4.647
 1294SOL     OW 5494   1.311   3.530   3.839
 1294SOL    HW2 5495   1.237   3.493   3.889
 1294SOL    HW3 5496   1.319   3.620   3.872
 1294SOL    MW4 5497   1.302   3.537   3.851
 1295SOL     OW 5498   0.119   2.536   4.928
 1295SOL    HW2 5499   0.181   2.566   4.994
 1295SOL    HW3 5500   0.053   2.605   4.922
 1295SOL    MW4 5501   0.118   2.549   4.935
 1296SOL     OW 5502   1.535   3.204   3.781
 1296SOL    HW2 5503   1.482   3.253   3.717
 1296SOL    HW3 5504   1.566   3.270   3.842
 1296SOL    MW4 5505   1.533   3.218   3.779
 1297SOL     OW 5506   0.760   2.093   3.836
 1297SOL    HW2 5507   0.708   2.013   3.824
 1297SOL    HW3 5508   0.847   2.070   3.804
 1297SOL    MW4 5509   0.763   2.079   3.830
 1298SOL     OW 5510   0.214   3.645   5.380
 1298SOL    HW2 5511   0.188   3.713   5.318
 1298SOL    HW3 5512   0.262   3.582   5.328
 1298SOL    MW4 5513   0.216   3.645   5.366
 1299SOL     OW 5514   0.266   2.964   4.887
 1299SOL    HW2 5515   0.319   3.039   4.912
 1299SOL    HW3 5516   0.185   3.002   4.853
 1299SOL    MW4 5517   0.262   2.979   4.887
 1300SOL     OW 5518   0.806   2.868   4.875
 1300SOL    HW2 5519   0.834   2.777   4.887
 1300SOL    HW3 5520   0.735   2.862   4.811
 1300SOL    MW4 5521   0.799   2.856   4.870
 1301SOL     OW 5522   0.121   2.733   4.293
 1301SOL    HW2 5523   0.212   2.748   4.320
 1301SOL    HW3 5524   0.124   2.654   4.239
 1301SOL    MW4 5525   0.133   2.725   4.291
 1302SOL     OW 5526   0.357   2.441   5.547
 1302SOL    HW2 5527   0.304   2.521   5.554
 1302SOL    HW3 5528   0.427   2.453   5.612
 1302SOL    MW4 5529   0.359   2.454   5.555
 1303SOL     OW 5530   0.743   1.991   5.254
 1303SOL    HW2 5531   0.720   1.899   5.256
 1303SOL    HW3 5532   0.829   1.993   5.211
 1303SOL    MW4 5533   0.750   1.981   5.250
 1304SOL     OW 5534   0.427   2.515   5.293
 1304SOL    HW2 5535   0.507   2.565   5.279
 1304SOL    HW3 5536   0.418   2.509   5.388
 1304SOL    MW4 5537   0.436   2.521   5.303
 1305SOL     OW 5538   0.748   3.665   4.667
 1305SOL    HW2 5539   0.837   3.680   4.697
 1305SOL    HW3 5540   0.743   3.712   4.583
 1305SOL    MW4 5541   0.758   3.673   4.660
 1306SOL     OW 5542   1.404   2.040   5.564
 1306SOL    HW2 5543   1.460   1.967   5.590
 1306SOL    HW3 5544   1.374   2.078   5.646
 1306SOL    MW4 5545   1.408   2.035   5.577
 1307SOL     OW 5546   0.129   3.345   4.332
 1307SOL    HW2 5547   0.101   3.384   4.414
 1307SOL    HW3 5548   0.149   3.254   4.354
 1307SOL    MW4 5549   0.127   3.337   4.345
 1308SOL     OW 5550   0.962   3.388   4.367
 1308SOL    HW2 5551   1.045   3.342   4.351
 1308SOL    HW3 5552   0.952   3.387   4.463
 1308SOL    MW4 5553   0.972   3.381   4.377
 1309SOL     OW 5554   1.794   2.533   4.681
 1309SOL    HW2 5555   1.883   2.563   4.663
 1309SOL    HW3 5556   1.774   2.473   4.610
 1309SOL    MW4 5557   1.803   2.530   4.670
 1310SOL     OW 5558   1.645   2.712   5.561
 1310SOL    HW2 5559   1.700   2.636   5.542
 1310SOL    HW3 5560   1.647   2.720   5.656
 1310SOL    MW4 5561   1.653   2.703   5.569
 1311SOL     OW 5562   0.695   3.445   3.772
 1311SOL    HW2 5563   0.635   3.514   3.742
 1311SOL    HW3 5564   0.640   3.387   3.825
 1311SOL    MW4 5565   0.679   3.447   3.774
 1312SOL     OW 5566   1.133   2.090   3.995
 1312SOL    HW2 5567   1.066   2.066   3.932
 1312SOL    HW3 5568   1.198   2.139   3.944
 1312SOL    MW4 5569   1.133   2.092   3.980
 1313SOL     OW 5570   0.940   2.274   5.080
 1313SOL    HW2 5571   0.859   2.315   5.108
 1313SOL    HW3 5572   0.987   2.342   5.032
 1313SOL    MW4 5573   0.935   2.289   5.078
 1314SOL     OW 5574   1.200   2.612   4.703
 1314SOL    HW2 5575   1.213   2.706   4.713
 1314SOL    HW3 5576   1.161   2.602   4.617
 1314SOL    MW4 5577   1.196   2.623   4.693
 1315SOL     OW 5578   0.652   2.807   4.507
 1315SOL    HW2 5579   0.563   2.798   4.540
 1315SOL    HW3 5580   0.656   2.897   4.475
 1315SOL    MW4 5581   0.641   2.818   4.507
 1316SOL     OW 5582   1.451   2.390   4.502
 1316SOL    HW2 5583   1.396   2.311   4.501
 1316SOL    HW3 5584   1.433   2.431   4.586
 1316SOL    MW4 5585   1.441   2.385   4.511
 1317SOL     OW 5586   0.422   2.077   5.319
 1317SOL    HW2 5587   0.343   2.095   5.371
 1317SOL    HW3 5588   0.417   2.139   5.246
 1317SOL    MW4 5589   0.412   2.087   5.316
 1318SOL     OW 5590   1.070   2.594   4.459
 1318SOL    HW2 5591   1.007   2.526   4.483
 1318SOL    HW3 5592   1.090   2.575   4.367
 1318SOL    MW4 5593   1.064   2.581   4.451
 1319SOL     OW 5594   0.326   3.489   4.161
 1319SOL    HW2 5595   0.287   3.536   4.087
 1319SOL    HW3 5596   0.260   3.424   4.186
 1319SOL    MW4 5597   0.313   3.487   4.155
 1320SOL     OW 5598   0.818   2.898   4.185
 1320SOL    HW2 5599   0.820   2.872   4.092
 1320SOL    HW3 5600   0.876   2.835   4.228
 1320SOL    MW4 5601   0.826   2.887   4.179
 1321SOL     OW 5602   1.371   3.458   4.957
 1321SOL    HW2 5603   1.296   3.504   4.995
 1321SOL    HW3 5604   1.353   3.365   4.974
 1321SOL    MW4 5605   1.360   3.452   4.965
 1322SOL     OW 5606   1.375   3.666   4.387
 1322SOL    HW2 5607   1.318   3.619   4.326
 1322SOL    HW3 5608   1.461   3.627   4.374
 1322SOL    MW4 5609   1.378   3.657   4.377
 1323SOL     OW 5610   1.328   2.142   4.518
 1323SOL    HW2 5611   1.356   2.074   4.579
 1323SOL    HW3 5612   1.242   2.113   4.488
 1323SOL    MW4 5613   1.321   2.129   4.522
 1324SOL     OW 5614   0.133   3.076   4.452
 1324SOL    HW2 5615   0.197   3.108   4.515
 1324SOL    HW3 5616   0.182   3.012   4.400
 1324SOL    MW4 5617   0.148   3.072   4.453
 1325SOL     OW 5618   0.633   3.152   5.434
 1325SOL    HW2 5619   0.681   3.235   5.421
 1325SOL    HW3 5620   0.690   3.100   5.490
 1325SOL    MW4 5621   0.647   3.156   5.440
 1326SOL     OW 5622   0.209   3.394   5.574
 1326SOL    HW2 5623   0.265   3.318   5.589
 1326SOL    HW3 5624   0.158   3.372   5.496
 1326SOL    MW4 5625   0.209   3.381   5.565
 1327SOL     OW 5626   1.308   2.246   3.853
 1327SOL    HW2 5627   1.281   2.312   3.789
 1327SOL    HW3 5628   1.378   2.289   3.903
 1327SOL    MW4 5629   1.313   2.259   3.850
 1328SOL     OW 5630   0.976   1.951   3.790
 1328SOL    HW2 5631   1.032   1.943   3.712
 1328SOL    HW3 5632   0.953   1.861   3.812
 1328SOL    MW4 5633   0.981   1.938   3.783
 1329SOL     OW 5634   1.481   2.802   3.995
 1329SOL    HW2 5635   1.448   2.891   3.985
 1329SOL    HW3 5636   1.446   2.773   4.080
 1329SOL    MW4 5637   1.471   2.811   4.006
 1330SOL     OW 5638   1.094   3.231   5.183
 1330SOL    HW2 5639   1.005   3.237   5.151
 1330SOL    HW3 5640   1.138   3.310   5.151
 1330SOL    MW4 5641   1.089   3.241   5.175
 1331SOL     OW 5642   0.387   1.899   5.525
 1331SOL    HW2 5643   0.315   1.864   5.473
 1331SOL    HW3 5644   0.445   1.940   5.460
 1331SOL    MW4 5645   0.385   1.900   5.510
 1332SOL     OW 5646   0.411   3.389   4.824
 1332SOL    HW2 5647   0.456   3.451   4.881
 1332SOL    HW3 5648   0.318   3.408   4.837
 1332SOL    MW4 5649   0.404   3.399   4.831
 1333SOL     OW 5650   1.851   2.918   5.178
 1333SOL    HW2 5651   1.766   2.931   5.137
 1333SOL    HW3 5652   1.831   2.882   5.265
 1333SOL    MW4 5653   1.838   2.914   5.183
 1334SOL     OW 5654   0.833   3.457   4.932
 1334SOL    HW2 5655   0.857   3.446   4.841
 1334SOL    HW3 5656   0.756   3.514   4.930
 1334SOL    MW4 5657   0.825   3.462   4.921
 1335SOL     OW 5658   0.475   2.840   3.787
 1335SOL    HW2 5659   0.398   2.853   3.843
 1335SOL    HW3 5660   0.439   2.804   3.706
 1335SOL    MW4 5661   0.461   2.836   3.784
 1336SOL     OW 5662   1.128   2.813   4.030
 1336SOL    HW2 5663   1.038   2.834   4.005
 1336SOL    HW3 5664   1.155   2.886   4.086
 1336SOL    MW4 5665   1.120   2.825   4.033
 1337SOL     OW 5666   0.628   3.162   4.722
 1337SOL    HW2 5667   0.621   3.141   4.816
 1337SOL    HW3 5668   0.546   3.130   4.685
 1337SOL    MW4 5669   0.616   3.156   4.729
 1338SOL     OW 5670   1.492   2.172   5.124
 1338SOL    HW2 5671   1.439   2.174   5.204
 1338SOL    HW3 5672   1.477   2.085   5.087
 1338SOL    MW4 5673   1.484   2.162   5.129
 1339SOL     OW 5674   1.828   2.096   4.997
 1339SOL    HW2 5675   1.809   2.163   4.932
 1339SOL    HW3 5676   1.885   2.034   4.952
 1339SOL    MW4 5677   1.832   2.097   4.983
 1340SOL     OW 5678   0.074   3.254   5.385
 1340SOL    HW2 5679   0.118   3.187   5.331
 1340SOL    HW3 5680  -0.011   3.216   5.405
 1340SOL    MW4 5681   0.069   3.240   5.381
 1341SOL     OW 5682   0.757   1.929   4.437
 1341SOL    HW2 5683   0.686   1.990   4.419
 1341SOL    HW3 5684   0.808   1.926   4.356
 1341SOL    MW4 5685   0.753   1.935   4.424
 1342SOL     OW 5686   0.515   3.169   4.186
 1342SOL    HW2 5687   0.508   3.201   4.276
 1342SOL    HW3 5688   0.425   3.153   4.158
 1342SOL    MW4 5689   0.503   3.171   4.193
 1343SOL     OW 5690   1.110   3.562   5.095
 1343SOL    HW2 5691   1.030   3.547   5.045
 1343SOL    HW3 5692   1.117   3.657   5.102
 1343SOL    MW4 5693   1.101   3.573   5.089
 1344SOL     OW 5694   1.224   3.527   4.585
 1344SOL    HW2 5695   1.271   3.600   4.544
 1344SOL    HW3 5696   1.145   3.566   4.621
 1344SOL    MW4 5697   1.219   3.542   4.584
 1345SOL     OW 5698   1.632   3.622   4.860
 1345SOL    HW2 5699   1.675   3.592   4.940
 1345SOL    HW3 5700   1.551   3.570   4.857
 1345SOL    MW4 5701   1.627   3.611   4.870
 1346SOL     OW 5702   0.717   2.586   5.567
 1346SOL    HW2 5703   0.787   2.528   5.539
 1346SOL    HW3 5704   0.660   2.531   5.622
 1346SOL    MW4 5705   0.719   2.573   5.571
 1347SOL     OW 5706   1.504   2.798   5.200
 1347SOL    HW2 5707   1.509   2.851   5.280
 1347SOL    HW3 5708   1.466   2.715   5.228
 1347SOL    MW4 5709   1.500   2.793   5.215
 1348SOL     OW 5710   1.144   1.933   5.446
 1348SOL    HW2 5711   1.139   1.840   5.427
 1348SOL    HW3 5712   1.227   1.944   5.492
 1348SOL    MW4 5713   1.152   1.922   5.450
 1349SOL     OW 5714   0.518   2.453   3.900
 1349SOL    HW2 5715   0.484   2.509   3.970
 1349SOL    HW3 5716   0.589   2.403   3.940
 1349SOL    MW4 5717   0.524   2.454   3.914
 1350SOL     OW 5718   1.614   3.204   4.722
 1350SOL    HW2 5719   1.649   3.186   4.635
 1350SOL    HW3 5720   1.519   3.205   4.709
 1350SOL    MW4 5721   1.606   3.201   4.709
 1351SOL     OW 5722   1.043   2.852   5.091
 1351SOL    HW2 5723   1.086   2.887   5.169
 1351SOL    HW3 5724   1.026   2.929   5.037
 1351SOL    MW4 5725   1.046   2.867   5.094
 1352SOL     OW 5726   1.574   2.339   3.964
 1352SOL    HW2 5727   1.566   2.410   3.901
 1352SOL    HW3 5728   1.592   2.383   4.047
 1352SOL    MW4 5729   1.575   2.353   3.966
 1353SOL     OW 5730   0.434   1.994   4.393
 1353SOL    HW2 5731   0.484   2.037   4.324
 1353SOL    HW3 5732   0.349   2.038   4.393
 1353SOL    MW4 5733   0.431   2.007   4.384
 1354SOL     OW 5734   0.193   3.056   5.253
 1354SOL    HW2 5735   0.221   3.009   5.331
 1354SOL    HW3 5736   0.114   3.011   5.224
 1354SOL    MW4 5737   0.186   3.045   5.259
 1355SOL     OW 5738   0.701   2.383   5.220
 1355SOL    HW2 5739   0.673   2.471   5.244
 1355SOL    HW3 5740   0.670   2.327   5.291
 1355SOL    MW4 5741   0.693   2.386   5.232
 1356SOL     OW 5742   1.243   2.601   3.939
 1356SOL    HW2 5743   1.290   2.619   3.858
 1356SOL    HW3 5744   1.209   2.685   3.967
 1356SOL    MW4 5745   1.245   2.615   3.932
 1357SOL     OW 5746   0.356   2.779   4.433
 1357SOL    HW2 5747   0.414   2.835   4.381
 1357SOL    HW3 5748   0.400   2.694   4.435
 1357SOL    MW4 5749   0.369   2.776   4.426
 1358SOL     OW 5750   1.496   2.131   4.270
 1358SOL    HW2 5751   1.418   2.081   4.295
 1358SOL    HW3 5752   1.467   2.222   4.270
 1358SOL    MW4 5753   1.482   2.135   4.273
 1359SOL     OW 5754   1.082   2.093   4.429
 1359SOL    HW2 5755   1.102   2.168   4.373
 1359SOL    HW3 5756   1.062   2.132   4.514
 1359SOL    MW4 5757   1.083   2.109   4.433
 1360SOL     OW 5758   0.978   3.343   3.761
 1360SOL    HW2 5759   1.005   3.421   3.713
 1360SOL    HW3 5760   0.885   3.358   3.780
 1360SOL    MW4 5761   0.969   3.356   3.757
 1361SOL     OW 5762   1.842   2.866   5.448
 1361SOL    HW2 5763   1.755   2.846   5.484
 1361SOL    HW3 5764   1.896   2.792   5.473
 1361SOL    MW4 5765   1.837   2.855   5.456
 1362SOL     OW 5766   0.063   3.379   4.605
 1362SOL    HW2 5767   0.095   3.383   4.696
 1362SOL    HW3 5768  -0.032   3.387   4.613
 1362SOL    MW4 5769   0.055   3.382   4.618
 1363SOL     OW 5770   0.018   2.505   4.152
 1363SOL    HW2 5771  -0.042   2.477   4.222
 1363SOL    HW3 5772   0.092   2.445   4.158
 1363SOL    MW4 5773   0.020   2.494   4.161
 1364SOL     OW 5774   1.586   3.717   5.586
 1364SOL    HW2 5775   1.631   3.641   5.551
 1364SOL    HW3 5776   1.624   3.730   5.673
 1364SOL    MW4 5777   1.596   3.710   5.592
 1365SOL     OW 5778   1.186   3.236   4.312
 1365SOL    HW2 5779   1.209   3.187   4.390
 1365SOL    HW3 5780   1.267   3.278   4.284
 1365SOL    MW4 5781   1.199   3.236   4.319
 1366SOL     OW 5782   0.444   2.244   5.041
 1366SOL    HW2 5783   0.477   2.325   5.081
 1366SOL    HW3 5784   0.417   2.270   4.953
 1366SOL    MW4 5785   0.443   2.258   5.035
 1367SOL     OW 5786   0.398   2.211   4.777
 1367SOL    HW2 5787   0.428   2.125   4.748
 1367SOL    HW3 5788   0.303   2.204   4.780
 1367SOL    MW4 5789   0.390   2.200   4.775
 1368SOL     OW 5790   1.227   2.420   5.468
 1368SOL    HW2 5791   1.279   2.355   5.421
 1368SOL    HW3 5792   1.185   2.471   5.398
 1368SOL    MW4 5793   1.228   2.417   5.451
 1369SOL     OW 5794   1.326   2.215   5.329
 1369SOL    HW2 5795   1.233   2.199   5.316
 1369SOL    HW3 5796   1.352   2.153   5.397
 1369SOL    MW4 5797   1.316   2.205   5.336
 1370SOL     OW 5798   0.541   1.989   4.668
 1370SOL    HW2 5799   0.551   1.898   4.694
 1370SOL    HW3 5800   0.497   1.985   4.583
 1370SOL    MW4 5801   0.537   1.977   4.660
 1371SOL     OW 5802   0.635   3.604   5.214
 1371SOL    HW2 5803   0.552   3.589   5.259
 1371SOL    HW3 5804   0.694   3.537   5.249
 1371SOL    MW4 5805   0.633   3.594   5.224
 1372SOL     OW 5806   1.692   2.311   4.839
 1372SOL    HW2 5807   1.625   2.344   4.899
 1372SOL    HW3 5808   1.735   2.389   4.805
 1372SOL    MW4 5809   1.690   2.326   4.843
 1373SOL     OW 5810   1.870   3.031   4.809
 1373SOL    HW2 5811   1.863   2.971   4.734
 1373SOL    HW3 5812   1.796   3.091   4.798
 1373SOL    MW4 5813   1.860   3.031   4.798
 1374SOL     OW 5814   1.252   2.893   4.727
 1374SOL    HW2 5815   1.266   2.865   4.818
 1374SOL    HW3 5816   1.338   2.924   4.699
 1374SOL    MW4 5817   1.265   2.894   4.736
 1375SOL     OW 5818   1.335   2.388   5.006
 1375SOL    HW2 5819   1.356   2.389   4.913
 1375SOL    HW3 5820   1.380   2.310   5.039
 1375SOL    MW4 5821   1.342   2.378   4.998
 1376SOL     OW 5822   1.828   2.519   5.548
 1376SOL    HW2 5823   1.865   2.464   5.617
 1376SOL    HW3 5824   1.853   2.476   5.466
 1376SOL    MW4 5825   1.835   2.507   5.547
 1377SOL     OW 5826   1.375   2.817   5.600
 1377SOL    HW2 5827   1.441   2.765   5.554
 1377SOL    HW3 5828   1.395   2.804   5.693
 1377SOL    MW4 5829   1.386   2.808   5.607
 1378SOL     OW 5830   1.326   1.903   3.948
 1378SOL    HW2 5831   1.400   1.947   3.991
 1378SOL    HW3 5832   1.250   1.957   3.970
 1378SOL    MW4 5833   1.326   1.915   3.956
 1379SOL     OW 5834   1.386   2.678   4.226
 1379SOL    HW2 5835   1.301   2.648   4.196
 1379SOL    HW3 5836   1.378   2.685   4.321
 1379SOL    MW4 5837   1.374   2.676   4.235
 1380SOL     OW 5838   0.462   3.141   4.957
 1380SOL    HW2 5839   0.474   3.168   5.048
 1380SOL    HW3 5840   0.443   3.222   4.910
 1380SOL    MW4 5841   0.461   3.156   4.962
 1381SOL     OW 5842   0.746   2.121   4.780
 1381SOL    HW2 5843   0.719   2.123   4.871
 1381SOL    HW3 5844   0.676   2.073   4.735
 1381SOL    MW4 5845   0.734   2.117   4.787
 1382SOL     OW 5846   0.600   3.613   4.942
 1382SOL    HW2 5847   0.652   3.690   4.919
 1382SOL    HW3 5848   0.609   3.605   5.037
 1382SOL    MW4 5849   0.609   3.620   4.953
 1383SOL     OW 5850   1.502   3.198   5.174
 1383SOL    HW2 5851   1.487   3.127   5.237
 1383SOL    HW3 5852   1.548   3.156   5.102
 1383SOL    MW4 5853   1.508   3.182   5.174
 1384SOL     OW 5854   0.576   2.929   5.291
 1384SOL    HW2 5855   0.613   2.934   5.203
 1384SOL    HW3 5856   0.615   3.002   5.338
 1384SOL    MW4 5857   0.586   2.939   5.286
 1385SOL     OW 5858   0.756   2.972   5.103
 1385SOL    HW2 5859   0.815   2.918   5.156
 1385SOL    HW3 5860   0.771   2.944   5.013
 1385SOL    MW4 5861   0.766   2.961   5.099
 1386SOL     OW 5862   0.759   2.344   3.952
 1386SOL    HW2 5863   0.832   2.393   3.915
 1386SOL    HW3 5864   0.775   2.253   3.926
 1386SOL    MW4 5865   0.771   2.339   3.945
 1387SOL     OW 5866   1.567   3.461   5.275
 1387SOL    HW2 5867   1.609   3.446   5.360
 1387SOL    HW3 5868   1.558   3.374   5.237
 1387SOL    MW4 5869   1.571   3.449   5.282
 1388SOL     OW 5870   1.227   1.940   4.866
 1388SOL    HW2 5871   1.282   1.949   4.788
 1388SOL    HW3 5872   1.282   1.974   4.937
 1388SOL    MW4 5873   1.241   1.945   4.865
 1389SOL     OW 5874   0.234   2.853   4.050
 1389SOL    HW2 5875   0.171   2.869   3.979
 1389SOL    HW3 5876   0.181   2.816   4.121
 1389SOL    MW4 5877   0.219   2.850   4.050
 1390SOL     OW 5878   0.590   3.207   3.909
 1390SOL    HW2 5879   0.605   3.183   4.001
 1390SOL    HW3 5880   0.498   3.185   3.893
 1390SOL    MW4 5881   0.580   3.200   3.919
 1391SOL     OW 5882   1.129   3.438   4.061
 1391SOL    HW2 5883   1.137   3.356   4.012
 1391SOL    HW3 5884   1.048   3.477   4.028
 1391SOL    MW4 5885   1.119   3.433   4.051
 1392SOL     OW 5886   0.388   3.596   4.630
 1392SOL    HW2 5887   0.392   3.507   4.665
 1392SOL    HW3 5888   0.414   3.587   4.539
 1392SOL    MW4 5889   0.391   3.584   4.622
 1393SOL     OW 5890   1.005   3.074   4.873
 1393SOL    HW2 5891   0.937   3.008   4.889
 1393SOL    HW3 5892   1.023   3.068   4.780
 1393SOL    MW4 5893   0.998   3.065   4.864
 1394SOL     OW 5894   0.094   3.349   5.124
 1394SOL    HW2 5895   0.084   3.307   5.210
 1394SOL    HW3 5896   0.015   3.402   5.114
 1394SOL    MW4 5897   0.083   3.350   5.135
 1395SOL     OW 5898   0.998   2.213   4.694
 1395SOL    HW2 5899   0.928   2.165   4.739
 1395SOL    HW3 5900   1.030   2.276   4.758
 1395SOL    MW4 5901   0.993   2.215   4.708
 1396SOL     OW 5902   0.649   2.649   5.314
 1396SOL    HW2 5903   0.642   2.744   5.302
 1396SOL    HW3 5904   0.658   2.638   5.409
 1396SOL    MW4 5905   0.650   2.661   5.324
 1397SOL     OW 5906   0.370   3.164   5.572
 1397SOL    HW2 5907   0.442   3.166   5.509
 1397SOL    HW3 5908   0.340   3.073   5.571
 1397SOL    MW4 5909   0.375   3.153   5.564
 1398SOL     OW 5910   1.454   1.927   5.039
 1398SOL    HW2 5911   1.525   1.873   5.003
 1398SOL    HW3 5912   1.453   1.906   5.132
 1398SOL    MW4 5913   1.463   1.918   5.047
 1399SOL     OW 5914   1.654   3.457   5.523
 1399SOL    HW2 5915   1.627   3.454   5.614
 1399SOL    HW3 5916   1.750   3.461   5.526
 1399SOL    MW4 5917   1.664   3.457   5.535
 1400SOL     OW 5918   0.465   2.319   4.507
 1400SOL    HW2 5919   0.536   2.267   4.470
 1400SOL    HW3 5920   0.451   2.284   4.594
 1400SOL    MW4 5921   0.473   2.308   4.514
 1401SOL     OW 5922   0.020   3.654   5.579
 1401SOL    HW2 5923   0.070   3.632   5.501
 1401SOL    HW3 5924   0.028   3.749   5.587
 1401SOL    MW4 5925   0.028   3.663   5.570
 1402SOL     OW 5926   0.781   3.412   4.583
 1402SOL    HW2 5927   0.709   3.349   4.596
 1402SOL    HW3 5928   0.742   3.497   4.601
 1402SOL    MW4 5929   0.765   3.415   4.586
 1403SOL     OW 5930   1.101   2.260   4.231
 1403SOL    HW2 5931   1.123   2.197   4.163
 1403SOL    HW3 5932   1.006   2.252   4.242
 1403SOL    MW4 5933   1.091   2.251   4.223
 1404SOL     OW 5934   0.186   1.950   4.163
 1404SOL    HW2 5935   0.257   1.971   4.102
 1404SOL    HW3 5936   0.140   1.878   4.121
 1404SOL    MW4 5937   0.190   1.944   4.149
 1405SOL     OW 5938   0.017   2.417   5.306
 1405SOL    HW2 5939   0.081   2.483   5.281
 1405SOL    HW3 5940  -0.064   2.444   5.263
 1405SOL    MW4 5941   0.015   2.429   5.298
 1406SOL     OW 5942   1.755   3.324   4.263
 1406SOL    HW2 5943   1.725   3.257   4.324
 1406SOL    HW3 5944   1.849   3.330   4.277
 1406SOL    MW4 5945   1.763   3.316   4.273
 1407SOL     OW 5946   1.311   3.001   4.193
 1407SOL    HW2 5947   1.283   3.087   4.226
 1407SOL    HW3 5948   1.339   3.017   4.103
 1407SOL    MW4 5949   1.311   3.015   4.185
 1408SOL     OW 5950   0.973   1.921   4.246
 1408SOL    HW2 5951   1.010   1.980   4.311
 1408SOL    HW3 5952   0.950   1.977   4.172
 1408SOL    MW4 5953   0.974   1.936   4.245
 1409SOL     OW 5954   1.826   2.803   4.668
 1409SOL    HW2 5955   1.817   2.835   4.579
 1409SOL    HW3 5956   1.779   2.719   4.668
 1409SOL    MW4 5957   1.819   2.796   4.658
 1410SOL     OW 5958   0.202   2.643   5.247
 1410SOL    HW2 5959   0.223   2.712   5.185
 1410SOL    HW3 5960   0.282   2.590   5.252
 1410SOL    MW4 5961   0.215   2.644   5.241
 1411SOL     OW 5962   1.738   2.734   4.369
 1411SOL    HW2 5963   1.832   2.723   4.357
 1411SOL    HW3 5964   1.714   2.806   4.310
 1411SOL    MW4 5965   1.748   2.742   4.360
 1412SOL     OW 5966   0.187   2.658   5.514
 1412SOL    HW2 5967   0.113   2.602   5.540
 1412SOL    HW3 5968   0.182   2.661   5.419
 1412SOL    MW4 5969   0.176   2.651   5.504
 1413SOL     OW 5970   0.353   1.945   4.964
 1413SOL    HW2 5971   0.396   2.029   4.984
 1413SOL    HW3 5972   0.426   1.883   4.957
 1413SOL    MW4 5973   0.368   1.948   4.965
 1414SOL     OW 5974   0.394   2.612   4.142
 1414SOL    HW2 5975   0.394   2.707   4.127
 1414SOL    HW3 5976   0.471   2.596   4.196
 1414SOL    MW4 5977   0.404   2.623   4.147
 1415SOL     OW 5978   1.170   2.471   5.206
 1415SOL    HW2 5979   1.206   2.444   5.122
 1415SOL    HW3 5980   1.083   2.505   5.185
 1415SOL    MW4 5981   1.164   2.472   5.193
 1416SOL     OW 5982   0.153   2.343   4.431
 1416SOL    HW2 5983   0.215   2.350   4.504
 1416SOL    HW3 5984   0.153   2.250   4.408
 1416SOL    MW4 5985   0.161   2.332   4.438
 1417SOL     OW 5986   1.700   3.683   3.963
 1417SOL    HW2 5987   1.767   3.716   3.903
 1417SOL    HW3 5988   1.657   3.762   3.997
 1417SOL    MW4 5989   1.702   3.698   3.959
 1418SOL     OW 5990   0.835   2.604   4.915
 1418SOL    HW2 5991   0.793   2.522   4.891
 1418SOL    HW3 5992   0.836   2.603   5.011
 1418SOL    MW4 5993   0.828   2.593   4.924
 1419SOL     OW 5994   1.506   3.737   5.314
 1419SOL    HW2 5995   1.509   3.643   5.297
 1419SOL    HW3 5996   1.529   3.745   5.406
 1419SOL    MW4 5997   1.509   3.725   5.324
 1420SOL     OW 5998   0.639   2.074   5.020
 1420SOL    HW2 5999   0.570   2.137   5.041
 1420SOL    HW3 6000   0.666   2.038   5.105
 1420SOL    MW4 6001   0.633   2.077   5.033
 1421SOL     OW 6002   0.022   2.915   3.889
 1421SOL    HW2 6003  -0.009   2.980   3.952
 1421SOL    HW3 6004  -0.029   2.837   3.908
 1421SOL    MW4 6005   0.012   2.912   3.899
 1422SOL     OW 6006   1.434   1.927   4.637
 1422SOL    HW2 6007   1.522   1.936   4.674
 1422SOL    HW3 6008   1.444   1.868   4.563
 1422SOL    MW4 6009   1.448   1.921   4.631
 1423SOL     OW 6010   1.466   2.666   4.481
 1423SOL    HW2 6011   1.546   2.681   4.430
 1423SOL    HW3 6012   1.459   2.571   4.487
 1423SOL    MW4 6013   1.475   2.655   4.476
 1424SOL     OW 6014   0.606   3.715   3.831
 1424SOL    HW2 6015   0.511   3.715   3.823
 1424SOL    HW3 6016   0.622   3.661   3.909
 1424SOL    MW4 6017   0.596   3.709   3.840
 1425SOL     OW 6018   0.916   2.592   5.178
 1425SOL    HW2 6019   0.985   2.659   5.175
 1425SOL    HW3 6020   0.849   2.630   5.234
 1425SOL    MW4 6021   0.917   2.605   5.185
 1426SOL     OW 6022   0.334   2.892   5.426
 1426SOL    HW2 6023   0.288   2.808   5.428
 1426SOL    HW3 6024   0.391   2.886   5.350
 1426SOL    MW4 6025   0.336   2.880   5.418
 1427SOL     OW 6026   1.451   2.535   3.747
 1427SOL    HW2 6027   1.379   2.511   3.689
 1427SOL    HW3 6028   1.517   2.572   3.689
 1427SOL    MW4 6029   1.450   2.537   3.732
 1428SOL     OW 6030   0.585   3.267   4.427
 1428SOL    HW2 6031   0.650   3.200   4.448
 1428SOL    HW3 6032   0.637   3.344   4.404
 1428SOL    MW4 6033   0.600   3.269   4.426
 1429SOL     OW 6034   0.846   2.432   4.557
 1429SOL    HW2 6035   0.786   2.450   4.629
 1429SOL    HW3 6036   0.880   2.344   4.576
 1429SOL    MW4 6037   0.842   2.422   4.570
 1430SOL     OW 6038   1.787   1.931   5.226
 1430SOL    HW2 6039   1.708   1.977   5.254
 1430SOL    HW3 6040   1.822   1.985   5.155
 1430SOL    MW4 6041   1.781   1.944   5.220
 1431SOL     OW 6042   1.071   3.015   4.576
 1431SOL    HW2 6043   1.163   2.996   4.594
 1431SOL    HW3 6044   1.044   2.945   4.516
 1431SOL    MW4 6045   1.079   3.003   4.570
 1432SOL     OW 6046   0.864   2.835   3.931
 1432SOL    HW2 6047   0.850   2.747   3.896
 1432SOL    HW3 6048   0.815   2.892   3.872
 1432SOL    MW4 6049   0.856   2.830   3.919
 1433SOL     OW 6050   1.345   3.253   4.672
 1433SOL    HW2 6051   1.318   3.337   4.637
 1433SOL    HW3 6052   1.305   3.248   4.759
 1433SOL    MW4 6053   1.338   3.262   4.678
 1434SOL     OW 6054   1.264   3.201   4.940
 1434SOL    HW2 6055   1.275   3.168   5.029
 1434SOL    HW3 6056   1.183   3.160   4.909
 1434SOL    MW4 6057   1.254   3.193   4.946
 1435SOL     OW 6058   0.277   2.559   4.710
 1435SOL    HW2 6059   0.227   2.558   4.791
 1435SOL    HW3 6060   0.297   2.651   4.694
 1435SOL    MW4 6061   0.273   2.571   4.718
 1436SOL     OW 6062   1.344   3.323   5.472
 1436SOL    HW2 6063   1.344   3.417   5.488
 1436SOL    HW3 6064   1.389   3.313   5.388
 1436SOL    MW4 6065   1.350   3.333   5.463
 1437SOL     OW 6066   1.583   2.041   4.033
 1437SOL    HW2 6067   1.576   2.045   4.128
 1437SOL    HW3 6068   1.595   2.132   4.006
 1437SOL    MW4 6069   1.584   2.054   4.041
 1438SOL     OW 6070   0.872   2.604   4.147
 1438SOL    HW2 6071   0.852   2.590   4.054
 1438SOL    HW3 6072   0.965   2.583   4.154
 1438SOL    MW4 6073   0.882   2.599   4.136
 1439SOL     OW 6074   0.199   2.227   5.451
 1439SOL    HW2 6075   0.156   2.286   5.388
 1439SOL    HW3 6076   0.267   2.282   5.491
 1439SOL    MW4 6077   0.203   2.242   5.448
 1440SOL     OW 6078   1.311   2.847   4.996
 1440SOL    HW2 6079   1.374   2.844   5.069
 1440SOL    HW3 6080   1.227   2.865   5.038
 1440SOL    MW4 6081   1.307   2.849   5.011
 1441SOL     OW 6082   0.855   3.562   4.185
 1441SOL    HW2 6083   0.913   3.633   4.212
 1441SOL    HW3 6084   0.878   3.490   4.243
 1441SOL    MW4 6085   0.866   3.562   4.196
 1442SOL     OW 6086   1.650   2.024   4.775
 1442SOL    HW2 6087   1.695   1.942   4.794
 1442SOL    HW3 6088   1.670   2.080   4.851
 1442SOL    MW4 6089   1.660   2.020   4.787
 1443SOL     OW 6090   0.098   1.867   4.874
 1443SOL    HW2 6091   0.089   1.868   4.779
 1443SOL    HW3 6092   0.192   1.879   4.889
 1443SOL    MW4 6093   0.110   1.870   4.865
 1444SOL     OW 6094   1.735   3.060   4.494
 1444SOL    HW2 6095   1.714   3.006   4.417
 1444SOL    HW3 6096   1.831   3.058   4.498
 1444SOL    MW4 6097   1.744   3.053   4.483
 1445SOL     OW 6098   0.427   3.205   5.237
 1445SOL    HW2 6099   0.348   3.155   5.260
 1445SOL    HW3 6100   0.497   3.164   5.287
 1445SOL    MW4 6101   0.425   3.193   5.247
 1446SOL     OW 6102   0.311   1.994   3.920
 1446SOL    HW2 6103   0.240   2.049   3.888
 1446SOL    HW3 6104   0.353   1.960   3.841
 1446SOL    MW4 6105   0.307   1.996   3.906
 1447SOL     OW 6106   1.435   2.491   4.756
 1447SOL    HW2 6107   1.358   2.537   4.722
 1447SOL    HW3 6108   1.492   2.560   4.790
 1447SOL    MW4 6109   1.432   2.506   4.756
 1448SOL     OW 6110   0.067   2.093   3.769
 1448SOL    HW2 6111   0.034   2.172   3.813
 1448SOL    HW3 6112   0.122   2.126   3.698
 1448SOL    MW4 6113   0.070   2.107   3.766
 1449SOL     OW 6114   0.101   3.350   3.958
 1449SOL    HW2 6115   0.118   3.434   4.000
 1449SOL    HW3 6116   0.136   3.359   3.870
 1449SOL    MW4 6117   0.106   3.363   3.952
 1450SOL     OW 6118   1.373   3.439   4.175
 1450SOL    HW2 6119   1.436   3.429   4.104
 1450SOL    HW3 6120   1.290   3.459   4.130
 1450SOL    MW4 6121   1.370   3.440   4.160
 1451SOL     OW 6122   1.736   2.707   5.862
 1451SOL    HW2 6123   1.777   2.649   5.927
 1451SOL    HW3 6124   1.643   2.699   5.879
 1451SOL    MW4 6125   1.730   2.699   5.872
 1452SOL     OW 6126   0.530   2.890   6.091
 1452SOL    HW2 6127   0.620   2.865   6.075
 1452SOL    HW3 6128   0.526   2.983   6.068
 1452SOL    MW4 6129   0.542   2.899   6.086
 1453SOL     OW 6130   1.646   3.593   6.233
 1453SOL    HW2 6131   1.658   3.539   6.311
 1453SOL    HW3 6132   1.683   3.541   6.162
 1453SOL    MW4 6133   1.652   3.578   6.234
 1454SOL     OW 6134   0.814   2.346   6.104
 1454SOL    HW2 6135   0.789   2.434   6.132
 1454SOL    HW3 6136   0.811   2.349   6.008
 1454SOL    MW4 6137   0.810   2.358   6.096
 1455SOL     OW 6138   0.256   2.374   6.032
 1455SOL    HW2 6139   0.288   2.462   6.014
 1455SOL    HW3 6140   0.244   2.372   6.127
 1455SOL    MW4 6141   0.259   2.386   6.044
 1456SOL     OW 6142   0.655   2.129   6.119
 1456SOL    HW2 6143   0.713   2.205   6.121
 1456SOL    HW3 6144   0.590   2.150   6.052
 1456SOL    MW4 6145   0.654   2.141   6.110
 1457SOL     OW 6146   0.742   3.056   6.294
 1457SOL    HW2 6147   0.822   3.059   6.346
 1457SOL    HW3 6148   0.770   3.023   6.208
 1457SOL    MW4 6149   0.756   3.052   6.289
 1458SOL     OW 6150   0.519   2.560   6.285
 1458SOL    HW2 6151   0.504   2.480   6.336
 1458SOL    HW3 6152   0.601   2.595   6.319
 1458SOL    MW4 6153   0.527   2.552   6.297
 1459SOL     OW 6154   0.661   2.386   6.662
 1459SOL    HW2 6155   0.567   2.382   6.680
 1459SOL    HW3 6156   0.691   2.295   6.671
 1459SOL    MW4 6157   0.652   2.374   6.665
 1460SOL     OW 6158   0.407   2.800   6.566
 1460SOL    HW2 6159   0.362   2.807   6.482
 1460SOL    HW3 6160   0.387   2.883   6.610
 1460SOL    MW4 6161   0.399   2.812   6.560
 1461SOL     OW 6162   0.104   3.646   6.441
 1461SOL    HW2 6163   0.193   3.638   6.476
 1461SOL    HW3 6164   0.068   3.558   6.446
 1461SOL    MW4 6165   0.111   3.633   6.446
 1462SOL     OW 6166   1.369   3.038   5.810
 1462SOL    HW2 6167   1.287   3.074   5.776
 1462SOL    HW3 6168   1.437   3.081   5.759
 1462SOL    MW4 6169   1.367   3.048   5.798
 1463SOL     OW 6170   0.368   3.173   6.476
 1463SOL    HW2 6171   0.344   3.226   6.552
 1463SOL    HW3 6172   0.424   3.231   6.424
 1463SOL    MW4 6173   0.372   3.188   6.479
 1464SOL     OW 6174   0.930   2.817   6.286
 1464SOL    HW2 6175   0.844   2.804   6.326
 1464SOL    HW3 6176   0.983   2.744   6.318
 1464SOL    MW4 6177   0.926   2.806   6.295
 1465SOL     OW 6178   0.921   3.179   6.003
 1465SOL    HW2 6179   0.898   3.241   6.071
 1465SOL    HW3 6180   0.878   3.097   6.029
 1465SOL    MW4 6181   0.913   3.175   6.014
 1466SOL     OW 6182   1.794   2.180   6.459
 1466SOL    HW2 6183   1.731   2.160   6.528
 1466SOL    HW3 6184   1.784   2.109   6.396
 1466SOL    MW4 6185   1.784   2.167   6.460
 1467SOL     OW 6186   0.418   2.152   5.971
 1467SOL    HW2 6187   0.392   2.114   5.887
 1467SOL    HW3 6188   0.355   2.222   5.987
 1467SOL    MW4 6189   0.407   2.155   5.962
 1468SOL     OW 6190   0.253   3.113   6.008
 1468SOL    HW2 6191   0.201   3.181   5.964
 1468SOL    HW3 6192   0.250   3.039   5.948
 1468SOL    MW4 6193   0.245   3.112   5.995
 1469SOL     OW 6194   0.915   3.576   5.786
 1469SOL    HW2 6195   0.870   3.592   5.869
 1469SOL    HW3 6196   0.846   3.541   5.728
 1469SOL    MW4 6197   0.901   3.573   5.788
 1470SOL     OW 6198   1.850   2.349   5.761
 1470SOL    HW2 6199   1.759   2.351   5.789
 1470SOL    HW3 6200   1.895   2.411   5.819
 1470SOL    MW4 6201   1.843   2.357   5.771
 1471SOL     OW 6202   1.595   2.952   6.111
 1471SOL    HW2 6203   1.505   2.952   6.146
 1471SOL    HW3 6204   1.588   2.998   6.028
 1471SOL    MW4 6205   1.582   2.958   6.105
 1472SOL     OW 6206   0.136   3.467   6.735
 1472SOL    HW2 6207   0.119   3.413   6.812
 1472SOL    HW3 6208   0.124   3.557   6.765
 1472SOL    MW4 6209   0.133   3.471   6.749
 1473SOL     OW 6210   1.502   2.930   6.503
 1473SOL    HW2 6211   1.505   2.864   6.434
 1473SOL    HW3 6212   1.587   2.973   6.499
 1473SOL    MW4 6213   1.514   2.926   6.494
 1474SOL     OW 6214   1.122   2.533   6.072
 1474SOL    HW2 6215   1.148   2.557   5.983
 1474SOL    HW3 6216   1.104   2.440   6.068
 1474SOL    MW4 6217   1.124   2.525   6.059
 1475SOL     OW 6218   1.787   3.153   5.923
 1475SOL    HW2 6219   1.743   3.194   5.998
 1475SOL    HW3 6220   1.844   3.221   5.888
 1475SOL    MW4 6221   1.789   3.167   5.928
 1476SOL     OW 6222   0.443   3.569   6.241
 1476SOL    HW2 6223   0.475   3.657   6.219
 1476SOL    HW3 6224   0.396   3.541   6.163
 1476SOL    MW4 6225   0.442   3.577   6.228
 1477SOL     OW 6226   1.827   1.931   6.290
 1477SOL    HW2 6227   1.881   1.882   6.352
 1477SOL    HW3 6228   1.770   1.865   6.251
 1477SOL    MW4 6229   1.827   1.915   6.292
 1478SOL     OW 6230   0.159   3.629   5.818
 1478SOL    HW2 6231   0.188   3.719   5.810
 1478SOL    HW3 6232   0.109   3.612   5.739
 1478SOL    MW4 6233   0.157   3.637   5.807
 1479SOL     OW 6234   0.946   1.884   6.703
 1479SOL    HW2 6235   0.905   1.962   6.665
 1479SOL    HW3 6236   1.040   1.902   6.698
 1479SOL    MW4 6237   0.952   1.896   6.698
 1480SOL     OW 6238   1.563   3.437   5.789
 1480SOL    HW2 6239   1.611   3.506   5.835
 1480SOL    HW3 6240   1.484   3.481   5.758
 1480SOL    MW4 6241   1.558   3.451   5.792
 1481SOL     OW 6242   0.961   2.562   5.733
 1481SOL    HW2 6243   0.963   2.509   5.654
 1481SOL    HW3 6244   1.049   2.599   5.739
 1481SOL    MW4 6245   0.973   2.561   5.722
 1482SOL     OW 6246   1.575   2.488   6.069
 1482SOL    HW2 6247   1.614   2.488   6.156
 1482SOL    HW3 6248   1.516   2.564   6.069
 1482SOL    MW4 6249   1.572   2.499   6.080
 1483SOL     OW 6250   1.061   2.481   6.792
 1483SOL    HW2 6251   1.136   2.510   6.739
 1483SOL    HW3 6252   0.993   2.546   6.776
 1483SOL    MW4 6253   1.062   2.493   6.782
 1484SOL     OW 6254   1.762   2.374   6.235
 1484SOL    HW2 6255   1.851   2.343   6.252
 1484SOL    HW3 6256   1.705   2.314   6.283
 1484SOL    MW4 6257   1.765   2.362   6.244
 1485SOL     OW 6258   0.188   2.088   6.264
 1485SOL    HW2 6259   0.179   2.028   6.190
 1485SOL    HW3 6260   0.121   2.059   6.327
 1485SOL    MW4 6261   0.178   2.075   6.262
 1486SOL     OW 6262   1.131   3.181   5.825
 1486SOL    HW2 6263   1.081   3.183   5.907
 1486SOL    HW3 6264   1.065   3.199   5.757
 1486SOL    MW4 6265   1.117   3.183   5.827
 1487SOL     OW 6266   0.135   2.261   6.627
 1487SOL    HW2 6267   0.107   2.352   6.636
 1487SOL    HW3 6268   0.072   2.222   6.566
 1487SOL    MW4 6269   0.122   2.267   6.621
 1488SOL     OW 6270   0.594   3.599   5.933
 1488SOL    HW2 6271   0.515   3.557   5.966
 1488SOL    HW3 6272   0.660   3.582   6.000
 1488SOL    MW4 6273   0.593   3.591   5.946
 1489SOL     OW 6274   0.730   3.014   5.640
 1489SOL    HW2 6275   0.652   2.960   5.627
 1489SOL    HW3 6276   0.701   3.087   5.693
 1489SOL    MW4 6277   0.716   3.016   5.645
 1490SOL     OW 6278   1.856   2.754   6.832
 1490SOL    HW2 6279   1.872   2.792   6.745
 1490SOL    HW3 6280   1.890   2.820   6.893
 1490SOL    MW4 6281   1.863   2.767   6.828
 1491SOL     OW 6282   1.648   3.463   6.501
 1491SOL    HW2 6283   1.677   3.530   6.562
 1491SOL    HW3 6284   1.629   3.387   6.556
 1491SOL    MW4 6285   1.650   3.463   6.516
 1492SOL     OW 6286   1.311   3.530   5.708
 1492SOL    HW2 6287   1.237   3.493   5.758
 1492SOL    HW3 6288   1.319   3.620   5.741
 1492SOL    MW4 6289   1.302   3.537   5.720
 1493SOL     OW 6290   1.535   3.204   5.650
 1493SOL    HW2 6291   1.482   3.253   5.586
 1493SOL    HW3 6292   1.566   3.270   5.711
 1493SOL    MW4 6293   1.533   3.218   5.648
 1494SOL     OW 6294   0.760   2.093   5.705
 1494SOL    HW2 6295   0.708   2.013   5.693
 1494SOL    HW3 6296   0.847   2.070   5.673
 1494SOL    MW4 6297   0.763   2.079   5.699
 1495SOL     OW 6298   0.266   2.964   6.756
 1495SOL    HW2 6299   0.319   3.039   6.781
 1495SOL    HW3 6300   0.185   3.002   6.722
 1495SOL    MW4 6301   0.262   2.979   6.756
 1496SOL     OW 6302   0.806   2.868   6.744
 1496SOL    HW2 6303   0.834   2.777   6.756
 1496SOL    HW3 6304   0.735   2.862   6.680
 1496SOL    MW4 6305   0.799   2.856   6.739
 1497SOL     OW 6306   0.121   2.733   6.162
 1497SOL    HW2 6307   0.212   2.748   6.189
 1497SOL    HW3 6308   0.124   2.654   6.108
 1497SOL    MW4 6309   0.133   2.725   6.160
 1498SOL     OW 6310   0.748   3.665   6.536
 1498SOL    HW2 6311   0.837   3.680   6.566
 1498SOL    HW3 6312   0.743   3.712   6.452
 1498SOL    MW4 6313   0.758   3.673   6.529
 1499SOL     OW 6314   0.129   3.345   6.201
 1499SOL    HW2 6315   0.101   3.384   6.283
 1499SOL    HW3 6316   0.149   3.254   6.223
 1499SOL    MW4 6317   0.127   3.337   6.214
 1500SOL     OW 6318   0.962   3.388   6.236
 1500SOL    HW2 6319   1.045   3.342   6.220
 1500SOL    HW3 6320   0.952   3.387   6.332
 1500SOL    MW4 6321   0.972   3.381   6.246
 1501SOL     OW 6322   1.794   2.533   6.550
 1501SOL    HW2 6323   1.883   2.563   6.532
 1501SOL    HW3 6324   1.774   2.473   6.479
 1501SOL    MW4 6325   1.803   2.530   6.539
 1502SOL     OW 6326   0.695   3.445   5.641
 1502SOL    HW2 6327   0.635   3.514   5.611
 1502SOL    HW3 6328   0.640   3.387   5.694
 1502SOL    MW4 6329   0.679   3.447   5.643
 1503SOL     OW 6330   1.133   2.090   5.864
 1503SOL    HW2 6331   1.066   2.066   5.801
 1503SOL    HW3 6332   1.198   2.139   5.813
 1503SOL    MW4 6333   1.133   2.092   5.849
 1504SOL     OW 6334   1.200   2.612   6.572
 1504SOL    HW2 6335   1.213   2.706   6.582
 1504SOL    HW3 6336   1.161   2.602   6.486
 1504SOL    MW4 6337   1.196   2.623   6.562
 1505SOL     OW 6338   0.652   2.807   6.376
 1505SOL    HW2 6339   0.563   2.798   6.409
 1505SOL    HW3 6340   0.656   2.897   6.344
 1505SOL    MW4 6341   0.641   2.818   6.376
 1506SOL     OW 6342   1.451   2.390   6.371
 1506SOL    HW2 6343   1.396   2.311   6.370
 1506SOL    HW3 6344   1.433   2.431   6.455
 1506SOL    MW4 6345   1.441   2.385   6.380
 1507SOL     OW 6346   1.070   2.594   6.328
 1507SOL    HW2 6347   1.007   2.526   6.352
 1507SOL    HW3 6348   1.090   2.575   6.236
 1507SOL    MW4 6349   1.064   2.581   6.320
 1508SOL     OW 6350   0.326   3.489   6.030
 1508SOL    HW2 6351   0.287   3.536   5.956
 1508SOL    HW3 6352   0.260   3.424   6.055
 1508SOL    MW4 6353   0.313   3.487   6.024
 1509SOL     OW 6354   0.818   2.898   6.054
 1509SOL    HW2 6355   0.820   2.872   5.961
 1509SOL    HW3 6356   0.876   2.835   6.097
 1509SOL    MW4 6357   0.826   2.887   6.048
 1510SOL     OW 6358   1.375   3.666   6.256
 1510SOL    HW2 6359   1.318   3.619   6.195
 1510SOL    HW3 6360   1.461   3.627   6.243
 1510SOL    MW4 6361   1.378   3.657   6.246
 1511SOL     OW 6362   1.328   2.142   6.387
 1511SOL    HW2 6363   1.356   2.074   6.448
 1511SOL    HW3 6364   1.242   2.113   6.357
 1511SOL    MW4 6365   1.321   2.129   6.391
 1512SOL     OW 6366   0.133   3.076   6.321
 1512SOL    HW2 6367   0.197   3.108   6.384
 1512SOL    HW3 6368   0.182   3.012   6.269
 1512SOL    MW4 6369   0.148   3.072   6.322
 1513SOL     OW 6370   1.308   2.246   5.722
 1513SOL    HW2 6371   1.281   2.312   5.658
 1513SOL    HW3 6372   1.378   2.289   5.772
 1513SOL    MW4 6373   1.313   2.259   5.719
 1514SOL     OW 6374   0.976   1.951   5.659
 1514SOL    HW2 6375   1.032   1.943   5.581
 1514SOL    HW3 6376   0.953   1.861   5.681
 1514SOL    MW4 6377   0.981   1.938   5.652
 1515SOL     OW 6378   1.481   2.802   5.864
 1515SOL    HW2 6379   1.448   2.891   5.854
 1515SOL    HW3 6380   1.446   2.773   5.949
 1515SOL    MW4 6381   1.471   2.811   5.875
 1516SOL     OW 6382   0.411   3.389   6.693
 1516SOL    HW2 6383   0.456   3.451   6.750
 1516SOL    HW3 6384   0.318   3.408   6.706
 1516SOL    MW4 6385   0.404   3.399   6.700
 1517SOL     OW 6386   0.833   3.457   6.801
 1517SOL    HW2 6387   0.857   3.446   6.710
 1517SOL    HW3 6388   0.756   3.514   6.799
 1517SOL    MW4 6389   0.825   3.462   6.790
 1518SOL     OW 6390   0.475   2.840   5.656
 1518SOL    HW2 6391   0.398   2.853   5.712
 1518SOL    HW3 6392   0.439   2.804   5.575
 1518SOL    MW4 6393   0.461   2.836   5.653
 1519SOL     OW 6394   1.128   2.813   5.899
 1519SOL    HW2 6395   1.038   2.834   5.874
 1519SOL    HW3 6396   1.155   2.886   5.955
 1519SOL    MW4 6397   1.120   2.825   5.902
 1520SOL     OW 6398   0.628   3.162   6.591
 1520SOL    HW2 6399   0.621   3.141   6.685
 1520SOL    HW3 6400   0.546   3.130   6.554
 1520SOL    MW4 6401   0.616   3.156   6.598
 1521SOL     OW 6402   0.757   1.929   6.306
 1521SOL    HW2 6403   0.686   1.990   6.288
 1521SOL    HW3 6404   0.808   1.926   6.225
 1521SOL    MW4 6405   0.753   1.935   6.293
 1522SOL     OW 6406   0.515   3.169   6.055
 1522SOL    HW2 6407   0.508   3.201   6.145
 1522SOL    HW3 6408   0.425   3.153   6.027
 1522SOL    MW4 6409   0.503   3.171   6.062
 1523SOL     OW 6410   1.224   3.527   6.454
 1523SOL    HW2 6411   1.271   3.600   6.413
 1523SOL    HW3 6412   1.145   3.566   6.490
 1523SOL    MW4 6413   1.219   3.542   6.453
 1524SOL     OW 6414   1.632   3.622   6.729
 1524SOL    HW2 6415   1.675   3.592   6.809
 1524SOL    HW3 6416   1.551   3.570   6.726
 1524SOL    MW4 6417   1.627   3.611   6.739
 1525SOL     OW 6418   0.518   2.453   5.769
 1525SOL    HW2 6419   0.484   2.509   5.839
 1525SOL    HW3 6420   0.589   2.403   5.809
 1525SOL    MW4 6421   0.524   2.454   5.783
 1526SOL     OW 6422   1.614   3.204   6.591
 1526SOL    HW2 6423   1.649   3.186   6.504
 1526SOL    HW3 6424   1.519   3.205   6.578
 1526SOL    MW4 6425   1.606   3.201   6.578
 1527SOL     OW 6426   1.574   2.339   5.833
 1527SOL    HW2 6427   1.566   2.410   5.770
 1527SOL    HW3 6428   1.592   2.383   5.916
 1527SOL    MW4 6429   1.575   2.353   5.835
 1528SOL     OW 6430   0.434   1.994   6.262
 1528SOL    HW2 6431   0.484   2.037   6.193
 1528SOL    HW3 6432   0.349   2.038   6.262
 1528SOL    MW4 6433   0.431   2.007   6.253
 1529SOL     OW 6434   1.243   2.601   5.808
 1529SOL    HW2 6435   1.290   2.619   5.727
 1529SOL    HW3 6436   1.209   2.685   5.836
 1529SOL    MW4 6437   1.245   2.615   5.801
 1530SOL     OW 6438   0.356   2.779   6.302
 1530SOL    HW2 6439   0.414   2.835   6.250
 1530SOL    HW3 6440   0.400   2.694   6.304
 1530SOL    MW4 6441   0.369   2.776   6.295
 1531SOL     OW 6442   1.496   2.131   6.139
 1531SOL    HW2 6443   1.418   2.081   6.164
 1531SOL    HW3 6444   1.467   2.222   6.139
 1531SOL    MW4 6445   1.482   2.135   6.142
 1532SOL     OW 6446   1.082   2.093   6.298
 1532SOL    HW2 6447   1.102   2.168   6.242
 1532SOL    HW3 6448   1.062   2.132   6.383
 1532SOL    MW4 6449   1.083   2.109   6.302
 1533SOL     OW 6450   0.978   3.343   5.630
 1533SOL    HW2 6451   1.005   3.421   5.582
 1533SOL    HW3 6452   0.885   3.358   5.649
 1533SOL    MW4 6453   0.969   3.356   5.626
 1534SOL     OW 6454   0.063   3.379   6.474
 1534SOL    HW2 6455   0.095   3.383   6.565
 1534SOL    HW3 6456  -0.032   3.387   6.482
 1534SOL    MW4 6457   0.055   3.382   6.487
 1535SOL     OW 6458   0.018   2.505   6.021
 1535SOL    HW2 6459  -0.042   2.477   6.091
 1535SOL    HW3 6460   0.092   2.445   6.027
 1535SOL    MW4 6461   0.020   2.494   6.030
 1536SOL     OW 6462   1.186   3.236   6.181
 1536SOL    HW2 6463   1.209   3.187   6.259
 1536SOL    HW3 6464   1.267   3.278   6.153
 1536SOL    MW4 6465   1.199   3.236   6.188
 1537SOL     OW 6466   0.398   2.211   6.646
 1537SOL    HW2 6467   0.428   2.125   6.617
 1537SOL    HW3 6468   0.303   2.204   6.649
 1537SOL    MW4 6469   0.390   2.200   6.644
 1538SOL     OW 6470   0.541   1.989   6.537
 1538SOL    HW2 6471   0.551   1.898   6.563
 1538SOL    HW3 6472   0.497   1.985   6.452
 1538SOL    MW4 6473   0.537   1.977   6.529
 1539SOL     OW 6474   1.692   2.311   6.708
 1539SOL    HW2 6475   1.625   2.344   6.768
 1539SOL    HW3 6476   1.735   2.389   6.674
 1539SOL    MW4 6477   1.690   2.326   6.712
 1540SOL     OW 6478   1.870   3.031   6.678
 1540SOL    HW2 6479   1.863   2.971   6.603
 1540SOL    HW3 6480   1.796   3.091   6.667
 1540SOL    MW4 6481   1.860   3.031   6.667
 1541SOL     OW 6482   1.252   2.893   6.596
 1541SOL    HW2 6483   1.266   2.865   6.687
 1541SOL    HW3 6484   1.338   2.924   6.568
 1541SOL    MW4 6485   1.265   2.894   6.605
 1542SOL     OW 6486   1.326   1.903   5.817
 1542SOL    HW2 6487   1.400   1.947   5.860
 1542SOL    HW3 6488   1.250   1.957   5.839
 1542SOL    MW4 6489   1.326   1.915   5.825
 1543SOL     OW 6490   1.386   2.678   6.095
 1543SOL    HW2 6491   1.301   2.648   6.065
 1543SOL    HW3 6492   1.378   2.685   6.190
 1543SOL    MW4 6493   1.374   2.676   6.104
 1544SOL     OW 6494   0.746   2.121   6.649
 1544SOL    HW2 6495   0.719   2.123   6.740
 1544SOL    HW3 6496   0.676   2.073   6.604
 1544SOL    MW4 6497   0.734   2.117   6.656
 1545SOL     OW 6498   0.759   2.344   5.821
 1545SOL    HW2 6499   0.832   2.393   5.784
 1545SOL    HW3 6500   0.775   2.253   5.795
 1545SOL    MW4 6501   0.771   2.339   5.814
 1546SOL     OW 6502   1.227   1.940   6.735
 1546SOL    HW2 6503   1.282   1.949   6.657
 1546SOL    HW3 6504   1.282   1.974   6.806
 1546SOL    MW4 6505   1.241   1.945   6.734
 1547SOL     OW 6506   0.234   2.853   5.919
 1547SOL    HW2 6507   0.171   2.869   5.848
 1547SOL    HW3 6508   0.181   2.816   5.990
 1547SOL    MW4 6509   0.219   2.850   5.919
 1548SOL     OW 6510   0.590   3.207   5.778
 1548SOL    HW2 6511   0.605   3.183   5.870
 1548SOL    HW3 6512   0.498   3.185   5.762
 1548SOL    MW4 6513   0.580   3.200   5.788
 1549SOL     OW 6514   1.129   3.438   5.930
 1549SOL    HW2 6515   1.137   3.356   5.881
 1549SOL    HW3 6516   1.048   3.477   5.897
 1549SOL    MW4 6517   1.119   3.433   5.920
 1550SOL     OW 6518   0.388   3.596   6.499
 1550SOL    HW2 6519   0.392   3.507   6.534
 1550SOL    HW3 6520   0.414   3.587   6.408
 1550SOL    MW4 6521   0.391   3.584   6.491
 1551SOL     OW 6522   1.005   3.074   6.742
 1551SOL    HW2 6523   0.937   3.008   6.758
 1551SOL    HW3 6524   1.023   3.068   6.649
 1551SOL    MW4 6525   0.998   3.065   6.733
 1552SOL     OW 6526   0.998   2.213   6.563
 1552SOL    HW2 6527   0.928   2.165   6.608
 1552SOL    HW3 6528   1.030   2.276   6.627
 1552SOL    MW4 6529   0.993   2.215   6.577
 1553SOL     OW 6530   0.465   2.319   6.376
 1553SOL    HW2 6531   0.536   2.267   6.339
 1553SOL    HW3 6532   0.451   2.284   6.463
 1553SOL    MW4 6533   0.473   2.308   6.383
 1554SOL     OW 6534   0.781   3.412   6.452
 1554SOL    HW2 6535   0.709   3.349   6.465
 1554SOL    HW3 6536   0.742   3.497   6.470
 1554SOL    MW4 6537   0.765   3.415   6.455
 1555SOL     OW 6538   1.101   2.260   6.100
 1555SOL    HW2 6539   1.123   2.197   6.032
 1555SOL    HW3 6540   1.006   2.252   6.111
 1555SOL    MW4 6541   1.091   2.251   6.092
 1556SOL     OW 6542   0.186   1.950   6.032
 1556SOL    HW2 6543   0.257   1.971   5.971
 1556SOL    HW3 6544   0.140   1.878   5.990
 1556SOL    MW4 6545   0.190   1.944   6.018
 1557SOL     OW 6546   1.755   3.324   6.132
 1557SOL    HW2 6547   1.725   3.257   6.193
 1557SOL    HW3 6548   1.849   3.330   6.146
 1557SOL    MW4 6549   1.763   3.316   6.142
 1558SOL     OW 6550   1.311   3.001   6.062
 1558SOL    HW2 6551   1.283   3.087   6.095
 1558SOL    HW3 6552   1.339   3.017   5.972
 1558SOL    MW4 6553   1.311   3.015   6.054
 1559SOL     OW 6554   0.973   1.921   6.115
 1559SOL    HW2 6555   1.010   1.980   6.180
 1559SOL    HW3 6556   0.950   1.977   6.041
 1559SOL    MW4 6557   0.974   1.936   6.114
 1560SOL     OW 6558   1.826   2.803   6.537
 1560SOL    HW2 6559   1.817   2.835   6.448
 1560SOL    HW3 6560   1.779   2.719   6.537
 1560SOL    MW4 6561   1.819   2.796   6.527
 1561SOL     OW 6562   1.738   2.734   6.238
 1561SOL    HW2 6563   1.832   2.723   6.226
 1561SOL    HW3 6564   1.714   2.806   6.179
 1561SOL    MW4 6565   1.748   2.742   6.229
 1562SOL     OW 6566   0.394   2.612   6.011
 1562SOL    HW2 6567   0.394   2.707   5.996
 1562SOL    HW3 6568   0.471   2.596   6.065
 1562SOL    MW4 6569   0.404   2.623   6.016
 1563SOL     OW 6570   0.153   2.343   6.300
 1563SOL    HW2 6571   0.215   2.350   6.373
 1563SOL    HW3 6572   0.153   2.250   6.277
 1563SOL    MW4 6573   0.161   2.332   6.307
 1564SOL     OW 6574   1.700   3.683   5.832
 1564SOL    HW2 6575   1.767   3.716   5.772
 1564SOL    HW3 6576   1.657   3.762   5.866
 1564SOL    MW4 6577   1.702   3.698   5.828
 1565SOL     OW 6578   0.835   2.604   6.784
 1565SOL    HW2 6579   0.793   2.522   6.760
 1565SOL    HW3 6580   0.836   2.603   6.880
 1565SOL    MW4 6581   0.828   2.593   6.793
 1566SOL     OW 6582   0.022   2.915   5.758
 1566SOL    HW2 6583  -0.009   2.980   5.821
 1566SOL    HW3 6584  -0.029   2.837   5.777
 1566SOL    MW4 6585   0.012   2.912   5.768
 1567SOL     OW 6586   1.434   1.927   6.506
 1567SOL    HW2 6587   1.522   1.936   6.543
 1567SOL    HW3 6588   1.444   1.868   6.432
 1567SOL    MW4 6589   1.448   1.921   6.500
 1568SOL     OW 6590   1.466   2.666   6.350
 1568SOL    HW2 6591   1.546   2.681   6.299
 1568SOL    HW3 6592   1.459   2.571   6.356
 1568SOL    MW4 6593   1.475   2.655   6.345
 1569SOL     OW 6594   0.606   3.715   5.700
 1569SOL    HW2 6595   0.511   3.715   5.692
 1569SOL    HW3 6596   0.622   3.661   5.778
 1569SOL    MW4 6597   0.596   3.709   5.709
 1570SOL     OW 6598   1.451   2.535   5.615
 1570SOL    HW2 6599   1.379   2.511   5.557
 1570SOL    HW3 6600   1.517   2.572   5.557
 1570SOL    MW4 6601   1.450   2.537   5.600
 1571SOL     OW 6602   0.585   3.267   6.296
 1571SOL    HW2 6603   0.650   3.200   6.317
 1571SOL    HW3 6604   0.637   3.344   6.273
 1571SOL    MW4 6605   0.600   3.269   6.295
 1572SOL     OW 6606   0.846   2.432   6.426
 1572SOL    HW2 6607   0.786   2.450   6.498
 1572SOL    HW3 6608   0.880   2.344   6.445
 1572SOL    MW4 6609   0.842   2.422   6.439
 1573SOL     OW 6610   1.071   3.015   6.445
 1573SOL    HW2 6611   1.163   2.996   6.463
 1573SOL    HW3 6612   1.044   2.945   6.385
 1573SOL    MW4 6613   1.079   3.003   6.439
 1574SOL     OW 6614   0.864   2.835   5.800
 1574SOL    HW2 6615   0.850   2.747   5.765
 1574SOL    HW3 6616   0.815   2.892   5.741
 1574SOL    MW4 6617   0.856   2.830   5.788
 1575SOL     OW 6618   1.345   3.253   6.541
 1575SOL    HW2 6619   1.318   3.337   6.506
 1575SOL    HW3 6620   1.305   3.248   6.628
 1575SOL    MW4 6621   1.338   3.262   6.547
 1576SOL     OW 6622   0.277   2.559   6.579
 1576SOL    HW2 6623   0.227   2.558   6.660
 1576SOL    HW3 6624   0.297   2.651   6.563
 1576SOL    MW4 6625   0.273   2.571   6.587
 1577SOL     OW 6626   1.583   2.041   5.902
 1577SOL    HW2 6627   1.576   2.045   5.997
 1577SOL    HW3 6628   1.595   2.132   5.875
 1577SOL    MW4 6629   1.584   2.054   5.910
 1578SOL     OW 6630   0.872   2.604   6.016
 1578SOL    HW2 6631   0.852   2.590   5.923
 1578SOL    HW3 6632   0.965   2.583   6.023
 1578SOL    MW4 6633   0.882   2.599   6.005
 1579SOL     OW 6634   0.855   3.562   6.054
 1579SOL    HW2 6635   0.913   3.633   6.081
 1579SOL    HW3 6636   0.878   3.490   6.112
 1579SOL    MW4 6637   0.866   3.562   6.065
 1580SOL     OW 6638   1.650   2.024   6.644
 1580SOL    HW2 6639   1.695   1.942   6.663
 1580SOL    HW3 6640   1.670   2.080   6.720
 1580SOL    MW4 6641   1.660   2.020   6.656
 1581SOL     OW 6642   0.098   1.867   6.743
 1581SOL    HW2 6643   0.089   1.868   6.648
 1581SOL    HW3 6644   0.192   1.879   6.758
 1581SOL    MW4 6645   0.110   1.870   6.734
 1582SOL     OW 6646   1.735   3.060   6.363
 1582SOL    HW2 6647   1.714   3.006   6.286
 1582SOL    HW3 6648   1.831   3.058   6.367
 1582SOL    MW4 6649   1.744   3.053   6.352
 1583SOL     OW 6650   0.311   1.994   5.789
 1583SOL    HW2 6651   0.240   2.049   5.757
 1583SOL    HW3 6652   0.353   1.960   5.710
 1583SOL    MW4 6653   0.307   1.996   5.775
 1584SOL     OW 6654   1.435   2.491   6.625
 1584SOL    HW2 6655   1.358   2.537   6.591
 1584SOL    HW3 6656   1.492   2.560   6.659
 1584SOL    MW4 6657   1.432   2.506   6.625
 1585SOL     OW 6658   0.067   2.093   5.638
 1585SOL    HW2 6659   0.034   2.172   5.682
 1585SOL    HW3 6660   0.122   2.126   5.567
 1585SOL    MW4 6661   0.070   2.107   5.635
 1586SOL     OW 6662   0.101   3.350   5.827
 1586SOL    HW2 6663   0.118   3.434   5.869
 1586SOL    HW3 6664   0.136   3.359   5.739
 1586SOL    MW4 6665   0.106   3.363   5.821
 1587SOL     OW 6666   1.373   3.439   6.044
 1587SOL    HW2 6667   1.436   3.429   5.973
 1587SOL    HW3 6668   1.290   3.459   5.999
 1587SOL    MW4 6669   1.370   3.440   6.029
 1588SOL     OW 6670   1.736   4.575   0.257
 1588SOL    HW2 6671   1.777   4.517   0.322
 1588SOL    HW3 6672   1.643   4.567   0.274
 1588SOL    MW4 6673   1.730   4.567   0.267
 1589SOL     OW 6674   1.602   4.507   1.252
 1589SOL    HW2 6675   1.557   4.574   1.303
 1589SOL    HW3 6676   1.690   4.543   1.238
 1589SOL    MW4 6677   1.608   4.520   1.256
 1590SOL     OW 6678   0.530   4.758   0.486
 1590SOL    HW2 6679   0.620   4.733   0.470
 1590SOL    HW3 6680   0.526   4.851   0.463
 1590SOL    MW4 6681   0.542   4.767   0.481
 1591SOL     OW 6682   1.646   5.461   0.628
 1591SOL    HW2 6683   1.658   5.407   0.706
 1591SOL    HW3 6684   1.683   5.409   0.557
 1591SOL    MW4 6685   1.652   5.446   0.629
 1592SOL     OW 6686   1.025   5.346   1.629
 1592SOL    HW2 6687   1.066   5.382   1.550
 1592SOL    HW3 6688   1.060   5.257   1.636
 1592SOL    MW4 6689   1.036   5.339   1.620
 1593SOL     OW 6690   1.582   4.901   1.233
 1593SOL    HW2 6691   1.503   4.866   1.191
 1593SOL    HW3 6692   1.609   4.973   1.177
 1593SOL    MW4 6693   1.575   4.906   1.220
 1594SOL     OW 6694   0.814   4.214   0.499
 1594SOL    HW2 6695   0.789   4.302   0.527
 1594SOL    HW3 6696   0.811   4.217   0.403
 1594SOL    MW4 6697   0.810   4.226   0.491
 1595SOL     OW 6698   0.256   4.242   0.427
 1595SOL    HW2 6699   0.288   4.330   0.409
 1595SOL    HW3 6700   0.244   4.240   0.522
 1595SOL    MW4 6701   0.259   4.254   0.439
 1596SOL     OW 6702   0.334   4.655   1.328
 1596SOL    HW2 6703   0.397   4.602   1.279
 1596SOL    HW3 6704   0.315   4.729   1.271
 1596SOL    MW4 6705   0.340   4.657   1.315
 1597SOL     OW 6706   0.655   3.997   0.514
 1597SOL    HW2 6707   0.713   4.073   0.516
 1597SOL    HW3 6708   0.590   4.018   0.447
 1597SOL    MW4 6709   0.654   4.009   0.505
 1598SOL     OW 6710   0.742   4.924   0.689
 1598SOL    HW2 6711   0.822   4.927   0.741
 1598SOL    HW3 6712   0.770   4.891   0.603
 1598SOL    MW4 6713   0.756   4.920   0.684
 1599SOL     OW 6714   0.767   5.265   1.592
 1599SOL    HW2 6715   0.851   5.291   1.631
 1599SOL    HW3 6716   0.791   5.209   1.518
 1599SOL    MW4 6717   0.781   5.261   1.587
 1600SOL     OW 6718   0.519   4.428   0.680
 1600SOL    HW2 6719   0.504   4.348   0.731
 1600SOL    HW3 6720   0.601   4.463   0.714
 1600SOL    MW4 6721   0.527   4.420   0.692
 1601SOL     OW 6722   0.856   5.114   1.365
 1601SOL    HW2 6723   0.820   5.180   1.305
 1601SOL    HW3 6724   0.784   5.052   1.378
 1601SOL    MW4 6725   0.842   5.114   1.359
 1602SOL     OW 6726   0.661   4.254   1.057
 1602SOL    HW2 6727   0.567   4.250   1.075
 1602SOL    HW3 6728   0.691   4.163   1.066
 1602SOL    MW4 6729   0.652   4.242   1.060
 1603SOL     OW 6730   0.407   4.668   0.961
 1603SOL    HW2 6731   0.362   4.675   0.877
 1603SOL    HW3 6732   0.387   4.751   1.005
 1603SOL    MW4 6733   0.399   4.680   0.955
 1604SOL     OW 6734   0.104   5.514   0.836
 1604SOL    HW2 6735   0.193   5.506   0.871
 1604SOL    HW3 6736   0.068   5.426   0.841
 1604SOL    MW4 6737   0.111   5.501   0.841
 1605SOL     OW 6738   1.369   4.906   0.205
 1605SOL    HW2 6739   1.287   4.942   0.171
 1605SOL    HW3 6740   1.437   4.949   0.154
 1605SOL    MW4 6741   1.367   4.916   0.193
 1606SOL     OW 6742   0.368   5.041   0.871
 1606SOL    HW2 6743   0.344   5.094   0.947
 1606SOL    HW3 6744   0.424   5.099   0.819
 1606SOL    MW4 6745   0.372   5.056   0.874
 1607SOL     OW 6746   0.930   4.685   0.681
 1607SOL    HW2 6747   0.844   4.672   0.721
 1607SOL    HW3 6748   0.983   4.612   0.713
 1607SOL    MW4 6749   0.926   4.674   0.690
 1608SOL     OW 6750   0.338   5.337   1.466
 1608SOL    HW2 6751   0.246   5.313   1.451
 1608SOL    HW3 6752   0.382   5.254   1.483
 1608SOL    MW4 6753   0.332   5.322   1.465
 1609SOL     OW 6754   0.921   5.047   0.398
 1609SOL    HW2 6755   0.898   5.109   0.466
 1609SOL    HW3 6756   0.878   4.965   0.424
 1609SOL    MW4 6757   0.913   5.043   0.409
 1610SOL     OW 6758   1.794   4.048   0.854
 1610SOL    HW2 6759   1.731   4.028   0.923
 1610SOL    HW3 6760   1.784   3.977   0.791
 1610SOL    MW4 6761   1.784   4.035   0.855
 1611SOL     OW 6762   0.418   4.020   0.366
 1611SOL    HW2 6763   0.392   3.982   0.282
 1611SOL    HW3 6764   0.355   4.090   0.382
 1611SOL    MW4 6765   0.407   4.023   0.357
 1612SOL     OW 6766   0.253   4.981   0.403
 1612SOL    HW2 6767   0.201   5.049   0.359
 1612SOL    HW3 6768   0.250   4.907   0.343
 1612SOL    MW4 6769   0.245   4.980   0.390
 1613SOL     OW 6770   0.915   5.444   0.181
 1613SOL    HW2 6771   0.870   5.460   0.264
 1613SOL    HW3 6772   0.846   5.409   0.123
 1613SOL    MW4 6773   0.901   5.441   0.183
 1614SOL     OW 6774   1.850   4.217   0.156
 1614SOL    HW2 6775   1.759   4.219   0.184
 1614SOL    HW3 6776   1.895   4.279   0.214
 1614SOL    MW4 6777   1.843   4.225   0.166
 1615SOL     OW 6778   1.595   4.820   0.506
 1615SOL    HW2 6779   1.505   4.820   0.541
 1615SOL    HW3 6780   1.588   4.866   0.423
 1615SOL    MW4 6781   1.582   4.826   0.500
 1616SOL     OW 6782   1.395   4.455   1.578
 1616SOL    HW2 6783   1.464   4.393   1.555
 1616SOL    HW3 6784   1.320   4.429   1.525
 1616SOL    MW4 6785   1.395   4.442   1.569
 1617SOL     OW 6786   0.136   5.335   1.130
 1617SOL    HW2 6787   0.119   5.281   1.207
 1617SOL    HW3 6788   0.124   5.425   1.160
 1617SOL    MW4 6789   0.133   5.339   1.144
 1618SOL     OW 6790   1.131   4.842   1.570
 1618SOL    HW2 6791   1.116   4.935   1.555
 1618SOL    HW3 6792   1.226   4.832   1.570
 1618SOL    MW4 6793   1.140   4.852   1.567
 1619SOL     OW 6794   0.927   4.266   1.771
 1619SOL    HW2 6795   1.017   4.267   1.738
 1619SOL    HW3 6796   0.886   4.191   1.729
 1619SOL    MW4 6797   0.933   4.256   1.762
 1620SOL     OW 6798   1.502   4.798   0.898
 1620SOL    HW2 6799   1.505   4.732   0.829
 1620SOL    HW3 6800   1.587   4.841   0.894
 1620SOL    MW4 6801   1.514   4.794   0.889
 1621SOL     OW 6802   1.122   4.401   0.467
 1621SOL    HW2 6803   1.148   4.425   0.378
 1621SOL    HW3 6804   1.104   4.308   0.463
 1621SOL    MW4 6805   1.124   4.393   0.454
 1622SOL     OW 6806   1.787   5.021   0.318
 1622SOL    HW2 6807   1.743   5.062   0.393
 1622SOL    HW3 6808   1.844   5.089   0.283
 1622SOL    MW4 6809   1.789   5.035   0.323
 1623SOL     OW 6810   0.707   4.070   1.721
 1623SOL    HW2 6811   0.717   3.996   1.661
 1623SOL    HW3 6812   0.743   4.039   1.804
 1623SOL    MW4 6813   0.713   4.056   1.723
 1624SOL     OW 6814   0.443   5.437   0.636
 1624SOL    HW2 6815   0.475   5.525   0.614
 1624SOL    HW3 6816   0.396   5.409   0.558
 1624SOL    MW4 6817   0.442   5.445   0.623
 1625SOL     OW 6818   1.827   3.799   0.685
 1625SOL    HW2 6819   1.881   3.750   0.747
 1625SOL    HW3 6820   1.770   3.733   0.646
 1625SOL    MW4 6821   1.827   3.783   0.687
 1626SOL     OW 6822   0.159   5.497   0.213
 1626SOL    HW2 6823   0.188   5.587   0.205
 1626SOL    HW3 6824   0.109   5.480   0.134
 1626SOL    MW4 6825   0.157   5.505   0.202
 1627SOL     OW 6826   0.946   3.752   1.098
 1627SOL    HW2 6827   0.905   3.830   1.060
 1627SOL    HW3 6828   1.040   3.770   1.093
 1627SOL    MW4 6829   0.952   3.764   1.093
 1628SOL     OW 6830   1.563   5.305   0.184
 1628SOL    HW2 6831   1.611   5.374   0.230
 1628SOL    HW3 6832   1.484   5.349   0.153
 1628SOL    MW4 6833   1.558   5.319   0.187
 1629SOL     OW 6834   0.961   4.430   0.128
 1629SOL    HW2 6835   0.963   4.377   0.049
 1629SOL    HW3 6836   1.049   4.467   0.134
 1629SOL    MW4 6837   0.973   4.429   0.117
 1630SOL     OW 6838   1.575   4.356   0.464
 1630SOL    HW2 6839   1.614   4.356   0.551
 1630SOL    HW3 6840   1.516   4.432   0.464
 1630SOL    MW4 6841   1.572   4.367   0.475
 1631SOL     OW 6842   0.892   4.723   1.593
 1631SOL    HW2 6843   0.869   4.703   1.683
 1631SOL    HW3 6844   0.977   4.767   1.598
 1631SOL    MW4 6845   0.899   4.726   1.605
 1632SOL     OW 6846   0.972   3.860   1.353
 1632SOL    HW2 6847   0.978   3.822   1.266
 1632SOL    HW3 6848   0.961   3.954   1.338
 1632SOL    MW4 6849   0.973   3.868   1.341
 1633SOL     OW 6850   1.061   4.349   1.187
 1633SOL    HW2 6851   1.136   4.378   1.134
 1633SOL    HW3 6852   0.993   4.414   1.171
 1633SOL    MW4 6853   1.062   4.361   1.177
 1634SOL     OW 6854   1.611   4.317   1.464
 1634SOL    HW2 6855   1.592   4.226   1.443
 1634SOL    HW3 6856   1.589   4.366   1.385
 1634SOL    MW4 6857   1.606   4.310   1.451
 1635SOL     OW 6858   1.753   5.411   1.368
 1635SOL    HW2 6859   1.681   5.373   1.419
 1635SOL    HW3 6860   1.770   5.496   1.409
 1635SOL    MW4 6861   1.747   5.416   1.380
 1636SOL     OW 6862   1.058   4.055   1.570
 1636SOL    HW2 6863   1.024   4.094   1.489
 1636SOL    HW3 6864   1.036   3.963   1.563
 1636SOL    MW4 6865   1.051   4.048   1.560
 1637SOL     OW 6866   1.467   4.869   1.646
 1637SOL    HW2 6867   1.549   4.910   1.676
 1637SOL    HW3 6868   1.430   4.831   1.726
 1637SOL    MW4 6869   1.473   4.870   1.661
 1638SOL     OW 6870   1.762   4.242   0.630
 1638SOL    HW2 6871   1.851   4.211   0.647
 1638SOL    HW3 6872   1.705   4.182   0.678
 1638SOL    MW4 6873   1.765   4.230   0.639
 1639SOL     OW 6874   0.188   3.956   0.659
 1639SOL    HW2 6875   0.179   3.896   0.585
 1639SOL    HW3 6876   0.121   3.927   0.722
 1639SOL    MW4 6877   0.178   3.943   0.657
 1640SOL     OW 6878   1.131   5.049   0.220
 1640SOL    HW2 6879   1.081   5.051   0.302
 1640SOL    HW3 6880   1.065   5.067   0.152
 1640SOL    MW4 6881   1.117   5.051   0.222
 1641SOL     OW 6882   0.135   4.129   1.022
 1641SOL    HW2 6883   0.107   4.220   1.031
 1641SOL    HW3 6884   0.072   4.090   0.961
 1641SOL    MW4 6885   0.122   4.135   1.016
 1642SOL     OW 6886   0.594   5.467   0.328
 1642SOL    HW2 6887   0.515   5.425   0.361
 1642SOL    HW3 6888   0.660   5.450   0.395
 1642SOL    MW4 6889   0.593   5.459   0.341
 1643SOL     OW 6890   1.722   4.987   1.725
 1643SOL    HW2 6891   1.772   4.913   1.757
 1643SOL    HW3 6892   1.668   5.014   1.800
 1643SOL    MW4 6893   1.722   4.981   1.738
 1644SOL     OW 6894   0.730   4.882   0.035
 1644SOL    HW2 6895   0.652   4.828   0.022
 1644SOL    HW3 6896   0.701   4.955   0.088
 1644SOL    MW4 6897   0.716   4.884   0.040
 1645SOL     OW 6898   1.856   4.622   1.227
 1645SOL    HW2 6899   1.872   4.660   1.140
 1645SOL    HW3 6900   1.890   4.688   1.288
 1645SOL    MW4 6901   1.863   4.635   1.223
 1646SOL     OW 6902   1.648   5.331   0.896
 1646SOL    HW2 6903   1.677   5.398   0.957
 1646SOL    HW3 6904   1.629   5.255   0.951
 1646SOL    MW4 6905   1.650   5.331   0.911
 1647SOL     OW 6906   1.311   5.398   0.103
 1647SOL    HW2 6907   1.237   5.361   0.153
 1647SOL    HW3 6908   1.319   5.488   0.136
 1647SOL    MW4 6909   1.302   5.405   0.115
 1648SOL     OW 6910   0.119   4.404   1.192
 1648SOL    HW2 6911   0.181   4.434   1.258
 1648SOL    HW3 6912   0.053   4.473   1.186
 1648SOL    MW4 6913   0.118   4.417   1.199
 1649SOL     OW 6914   1.535   5.072   0.045
 1649SOL    HW2 6915   1.482   5.121  -0.019
 1649SOL    HW3 6916   1.566   5.138   0.106
 1649SOL    MW4 6917   1.533   5.086   0.043
 1650SOL     OW 6918   0.760   3.961   0.100
 1650SOL    HW2 6919   0.708   3.881   0.088
 1650SOL    HW3 6920   0.847   3.938   0.068
 1650SOL    MW4 6921   0.763   3.947   0.094
 1651SOL     OW 6922   0.214   5.513   1.644
 1651SOL    HW2 6923   0.188   5.581   1.582
 1651SOL    HW3 6924   0.262   5.450   1.592
 1651SOL    MW4 6925   0.216   5.513   1.630
 1652SOL     OW 6926   0.266   4.832   1.151
 1652SOL    HW2 6927   0.319   4.907   1.176
 1652SOL    HW3 6928   0.185   4.870   1.117
 1652SOL    MW4 6929   0.262   4.847   1.151
 1653SOL     OW 6930   0.806   4.736   1.139
 1653SOL    HW2 6931   0.834   4.645   1.151
 1653SOL    HW3 6932   0.735   4.730   1.075
 1653SOL    MW4 6933   0.799   4.724   1.134
 1654SOL     OW 6934   0.121   4.601   0.557
 1654SOL    HW2 6935   0.212   4.616   0.584
 1654SOL    HW3 6936   0.124   4.522   0.503
 1654SOL    MW4 6937   0.133   4.593   0.555
 1655SOL     OW 6938   0.357   4.309   1.811
 1655SOL    HW2 6939   0.304   4.389   1.818
 1655SOL    HW3 6940   0.427   4.321   1.876
 1655SOL    MW4 6941   0.359   4.322   1.819
 1656SOL     OW 6942   0.743   3.859   1.518
 1656SOL    HW2 6943   0.720   3.767   1.520
 1656SOL    HW3 6944   0.829   3.861   1.475
 1656SOL    MW4 6945   0.750   3.849   1.514
 1657SOL     OW 6946   0.427   4.383   1.557
 1657SOL    HW2 6947   0.507   4.433   1.543
 1657SOL    HW3 6948   0.418   4.377   1.652
 1657SOL    MW4 6949   0.436   4.389   1.567
 1658SOL     OW 6950   0.748   5.533   0.931
 1658SOL    HW2 6951   0.837   5.548   0.961
 1658SOL    HW3 6952   0.743   5.580   0.847
 1658SOL    MW4 6953   0.758   5.541   0.924
 1659SOL     OW 6954   1.404   3.908   1.828
 1659SOL    HW2 6955   1.460   3.835   1.854
 1659SOL    HW3 6956   1.374   3.946   1.910
 1659SOL    MW4 6957   1.408   3.903   1.841
 1660SOL     OW 6958   0.129   5.213   0.596
 1660SOL    HW2 6959   0.101   5.252   0.678
 1660SOL    HW3 6960   0.149   5.122   0.618
 1660SOL    MW4 6961   0.127   5.205   0.609
 1661SOL     OW 6962   0.962   5.256   0.631
 1661SOL    HW2 6963   1.045   5.210   0.615
 1661SOL    HW3 6964   0.952   5.255   0.727
 1661SOL    MW4 6965   0.972   5.249   0.641
 1662SOL     OW 6966   1.794   4.401   0.945
 1662SOL    HW2 6967   1.883   4.431   0.927
 1662SOL    HW3 6968   1.774   4.341   0.874
 1662SOL    MW4 6969   1.803   4.398   0.934
 1663SOL     OW 6970   1.645   4.580   1.825
 1663SOL    HW2 6971   1.700   4.504   1.806
 1663SOL    HW3 6972   1.647   4.588   1.920
 1663SOL    MW4 6973   1.653   4.571   1.833
 1664SOL     OW 6974   0.695   5.313   0.036
 1664SOL    HW2 6975   0.635   5.382   0.006
 1664SOL    HW3 6976   0.640   5.255   0.089
 1664SOL    MW4 6977   0.679   5.315   0.038
 1665SOL     OW 6978   1.133   3.958   0.259
 1665SOL    HW2 6979   1.066   3.934   0.196
 1665SOL    HW3 6980   1.198   4.007   0.208
 1665SOL    MW4 6981   1.133   3.960   0.244
 1666SOL     OW 6982   0.940   4.142   1.344
 1666SOL    HW2 6983   0.859   4.183   1.372
 1666SOL    HW3 6984   0.987   4.210   1.296
 1666SOL    MW4 6985   0.935   4.157   1.342
 1667SOL     OW 6986   1.200   4.480   0.967
 1667SOL    HW2 6987   1.213   4.574   0.977
 1667SOL    HW3 6988   1.161   4.470   0.881
 1667SOL    MW4 6989   1.196   4.491   0.957
 1668SOL     OW 6990   0.652   4.675   0.771
 1668SOL    HW2 6991   0.563   4.666   0.804
 1668SOL    HW3 6992   0.656   4.765   0.739
 1668SOL    MW4 6993   0.641   4.686   0.771
 1669SOL     OW 6994   1.451   4.258   0.766
 1669SOL    HW2 6995   1.396   4.179   0.765
 1669SOL    HW3 6996   1.433   4.299   0.850
 1669SOL    MW4 6997   1.441   4.253   0.775
 1670SOL     OW 6998   0.422   3.945   1.583
 1670SOL    HW2 6999   0.343   3.963   1.635
 1670SOL    HW3 7000   0.417   4.007   1.510
 1670SOL    MW4 7001   0.412   3.955   1.580
 1671SOL     OW 7002   1.070   4.462   0.723
 1671SOL    HW2 7003   1.007   4.394   0.747
 1671SOL    HW3 7004   1.090   4.443   0.631
 1671SOL    MW4 7005   1.064   4.449   0.715
 1672SOL     OW 7006   0.326   5.357   0.425
 1672SOL    HW2 7007   0.287   5.404   0.351
 1672SOL    HW3 7008   0.260   5.292   0.450
 1672SOL    MW4 7009   0.313   5.355   0.419
 1673SOL     OW 7010   0.818   4.766   0.449
 1673SOL    HW2 7011   0.820   4.740   0.356
 1673SOL    HW3 7012   0.876   4.703   0.492
 1673SOL    MW4 7013   0.826   4.755   0.443
 1674SOL     OW 7014   1.371   5.326   1.221
 1674SOL    HW2 7015   1.296   5.372   1.259
 1674SOL    HW3 7016   1.353   5.233   1.238
 1674SOL    MW4 7017   1.360   5.320   1.229
 1675SOL     OW 7018   1.375   5.534   0.651
 1675SOL    HW2 7019   1.318   5.487   0.590
 1675SOL    HW3 7020   1.461   5.495   0.638
 1675SOL    MW4 7021   1.378   5.525   0.641
 1676SOL     OW 7022   1.328   4.010   0.782
 1676SOL    HW2 7023   1.356   3.942   0.843
 1676SOL    HW3 7024   1.242   3.981   0.752
 1676SOL    MW4 7025   1.321   3.997   0.786
 1677SOL     OW 7026   0.133   4.944   0.716
 1677SOL    HW2 7027   0.197   4.976   0.779
 1677SOL    HW3 7028   0.182   4.880   0.664
 1677SOL    MW4 7029   0.148   4.940   0.717
 1678SOL     OW 7030   0.633   5.020   1.698
 1678SOL    HW2 7031   0.681   5.103   1.685
 1678SOL    HW3 7032   0.690   4.968   1.754
 1678SOL    MW4 7033   0.647   5.024   1.704
 1679SOL     OW 7034   0.209   5.262   1.838
 1679SOL    HW2 7035   0.265   5.186   1.853
 1679SOL    HW3 7036   0.158   5.240   1.760
 1679SOL    MW4 7037   0.209   5.249   1.829
 1680SOL     OW 7038   1.308   4.114   0.117
 1680SOL    HW2 7039   1.281   4.180   0.053
 1680SOL    HW3 7040   1.378   4.157   0.167
 1680SOL    MW4 7041   1.313   4.127   0.114
 1681SOL     OW 7042   0.976   3.819   0.054
 1681SOL    HW2 7043   1.032   3.811  -0.024
 1681SOL    HW3 7044   0.953   3.729   0.076
 1681SOL    MW4 7045   0.981   3.806   0.047
 1682SOL     OW 7046   1.481   4.670   0.259
 1682SOL    HW2 7047   1.448   4.759   0.249
 1682SOL    HW3 7048   1.446   4.641   0.344
 1682SOL    MW4 7049   1.471   4.679   0.270
 1683SOL     OW 7050   1.094   5.099   1.447
 1683SOL    HW2 7051   1.005   5.105   1.415
 1683SOL    HW3 7052   1.138   5.178   1.415
 1683SOL    MW4 7053   1.089   5.109   1.439
 1684SOL     OW 7054   0.387   3.767   1.789
 1684SOL    HW2 7055   0.315   3.732   1.737
 1684SOL    HW3 7056   0.445   3.808   1.724
 1684SOL    MW4 7057   0.385   3.768   1.774
 1685SOL     OW 7058   0.411   5.257   1.088
 1685SOL    HW2 7059   0.456   5.319   1.145
 1685SOL    HW3 7060   0.318   5.276   1.101
 1685SOL    MW4 7061   0.404   5.267   1.095
 1686SOL     OW 7062   1.851   4.786   1.442
 1686SOL    HW2 7063   1.766   4.799   1.401
 1686SOL    HW3 7064   1.831   4.750   1.529
 1686SOL    MW4 7065   1.838   4.782   1.447
 1687SOL     OW 7066   0.833   5.325   1.196
 1687SOL    HW2 7067   0.857   5.314   1.105
 1687SOL    HW3 7068   0.756   5.382   1.194
 1687SOL    MW4 7069   0.825   5.330   1.185
 1688SOL     OW 7070   0.475   4.708   0.051
 1688SOL    HW2 7071   0.398   4.721   0.107
 1688SOL    HW3 7072   0.439   4.672  -0.030
 1688SOL    MW4 7073   0.461   4.704   0.048
 1689SOL     OW 7074   1.128   4.681   0.294
 1689SOL    HW2 7075   1.038   4.702   0.269
 1689SOL    HW3 7076   1.155   4.754   0.350
 1689SOL    MW4 7077   1.120   4.693   0.297
 1690SOL     OW 7078   0.628   5.030   0.986
 1690SOL    HW2 7079   0.621   5.009   1.080
 1690SOL    HW3 7080   0.546   4.998   0.949
 1690SOL    MW4 7081   0.616   5.024   0.993
 1691SOL     OW 7082   1.492   4.040   1.388
 1691SOL    HW2 7083   1.439   4.042   1.468
 1691SOL    HW3 7084   1.477   3.953   1.351
 1691SOL    MW4 7085   1.484   4.030   1.393
 1692SOL     OW 7086   1.828   3.964   1.261
 1692SOL    HW2 7087   1.809   4.031   1.196
 1692SOL    HW3 7088   1.885   3.902   1.216
 1692SOL    MW4 7089   1.832   3.965   1.247
 1693SOL     OW 7090   0.074   5.122   1.649
 1693SOL    HW2 7091   0.118   5.055   1.595
 1693SOL    HW3 7092  -0.011   5.084   1.669
 1693SOL    MW4 7093   0.069   5.108   1.645
 1694SOL     OW 7094   0.757   3.797   0.701
 1694SOL    HW2 7095   0.686   3.858   0.683
 1694SOL    HW3 7096   0.808   3.794   0.620
 1694SOL    MW4 7097   0.753   3.803   0.688
 1695SOL     OW 7098   0.515   5.037   0.450
 1695SOL    HW2 7099   0.508   5.069   0.540
 1695SOL    HW3 7100   0.425   5.021   0.422
 1695SOL    MW4 7101   0.503   5.039   0.457
 1696SOL     OW 7102   1.110   5.430   1.359
 1696SOL    HW2 7103   1.030   5.415   1.309
 1696SOL    HW3 7104   1.117   5.525   1.366
 1696SOL    MW4 7105   1.101   5.441   1.353
 1697SOL     OW 7106   1.224   5.395   0.849
 1697SOL    HW2 7107   1.271   5.468   0.808
 1697SOL    HW3 7108   1.145   5.434   0.885
 1697SOL    MW4 7109   1.219   5.410   0.848
 1698SOL     OW 7110   1.632   5.490   1.124
 1698SOL    HW2 7111   1.675   5.460   1.204
 1698SOL    HW3 7112   1.551   5.438   1.121
 1698SOL    MW4 7113   1.627   5.479   1.134
 1699SOL     OW 7114   0.717   4.454   1.831
 1699SOL    HW2 7115   0.787   4.396   1.803
 1699SOL    HW3 7116   0.660   4.399   1.886
 1699SOL    MW4 7117   0.719   4.441   1.835
 1700SOL     OW 7118   1.504   4.666   1.464
 1700SOL    HW2 7119   1.509   4.719   1.544
 1700SOL    HW3 7120   1.466   4.583   1.492
 1700SOL    MW4 7121   1.500   4.661   1.479
 1701SOL     OW 7122   1.144   3.801   1.710
 1701SOL    HW2 7123   1.139   3.708   1.691
 1701SOL    HW3 7124   1.227   3.812   1.756
 1701SOL    MW4 7125   1.152   3.790   1.714
 1702SOL     OW 7126   0.518   4.321   0.164
 1702SOL    HW2 7127   0.484   4.377   0.234
 1702SOL    HW3 7128   0.589   4.271   0.204
 1702SOL    MW4 7129   0.524   4.322   0.178
 1703SOL     OW 7130   1.614   5.072   0.986
 1703SOL    HW2 7131   1.649   5.054   0.899
 1703SOL    HW3 7132   1.519   5.073   0.973
 1703SOL    MW4 7133   1.606   5.069   0.973
 1704SOL     OW 7134   1.043   4.720   1.355
 1704SOL    HW2 7135   1.086   4.755   1.433
 1704SOL    HW3 7136   1.026   4.797   1.301
 1704SOL    MW4 7137   1.046   4.735   1.358
 1705SOL     OW 7138   1.574   4.207   0.228
 1705SOL    HW2 7139   1.566   4.278   0.165
 1705SOL    HW3 7140   1.592   4.251   0.311
 1705SOL    MW4 7141   1.575   4.221   0.230
 1706SOL     OW 7142   0.434   3.862   0.657
 1706SOL    HW2 7143   0.484   3.905   0.588
 1706SOL    HW3 7144   0.349   3.906   0.657
 1706SOL    MW4 7145   0.431   3.875   0.648
 1707SOL     OW 7146   0.193   4.924   1.517
 1707SOL    HW2 7147   0.221   4.877   1.595
 1707SOL    HW3 7148   0.114   4.879   1.488
 1707SOL    MW4 7149   0.186   4.913   1.523
 1708SOL     OW 7150   0.701   4.251   1.484
 1708SOL    HW2 7151   0.673   4.339   1.508
 1708SOL    HW3 7152   0.670   4.195   1.555
 1708SOL    MW4 7153   0.693   4.254   1.496
 1709SOL     OW 7154   1.243   4.469   0.203
 1709SOL    HW2 7155   1.290   4.487   0.122
 1709SOL    HW3 7156   1.209   4.553   0.231
 1709SOL    MW4 7157   1.245   4.483   0.196
 1710SOL     OW 7158   0.356   4.647   0.697
 1710SOL    HW2 7159   0.414   4.703   0.645
 1710SOL    HW3 7160   0.400   4.562   0.699
 1710SOL    MW4 7161   0.369   4.644   0.690
 1711SOL     OW 7162   1.496   3.999   0.534
 1711SOL    HW2 7163   1.418   3.949   0.559
 1711SOL    HW3 7164   1.467   4.090   0.534
 1711SOL    MW4 7165   1.482   4.003   0.537
 1712SOL     OW 7166   1.082   3.961   0.693
 1712SOL    HW2 7167   1.102   4.036   0.637
 1712SOL    HW3 7168   1.062   4.000   0.778
 1712SOL    MW4 7169   1.083   3.977   0.697
 1713SOL     OW 7170   0.978   5.211   0.025
 1713SOL    HW2 7171   1.005   5.289  -0.023
 1713SOL    HW3 7172   0.885   5.226   0.044
 1713SOL    MW4 7173   0.969   5.224   0.021
 1714SOL     OW 7174   1.842   4.734   1.712
 1714SOL    HW2 7175   1.755   4.714   1.748
 1714SOL    HW3 7176   1.896   4.660   1.737
 1714SOL    MW4 7177   1.837   4.723   1.720
 1715SOL     OW 7178   0.063   5.247   0.869
 1715SOL    HW2 7179   0.095   5.251   0.960
 1715SOL    HW3 7180  -0.032   5.255   0.877
 1715SOL    MW4 7181   0.055   5.250   0.882
 1716SOL     OW 7182   0.018   4.373   0.416
 1716SOL    HW2 7183  -0.042   4.345   0.486
 1716SOL    HW3 7184   0.092   4.313   0.422
 1716SOL    MW4 7185   0.020   4.362   0.425
 1717SOL     OW 7186   1.586   5.585   1.850
 1717SOL    HW2 7187   1.631   5.509   1.815
 1717SOL    HW3 7188   1.624   5.598   1.937
 1717SOL    MW4 7189   1.596   5.578   1.856
 1718SOL     OW 7190   1.186   5.104   0.576
 1718SOL    HW2 7191   1.209   5.055   0.654
 1718SOL    HW3 7192   1.267   5.146   0.548
 1718SOL    MW4 7193   1.199   5.104   0.583
 1719SOL     OW 7194   0.444   4.112   1.305
 1719SOL    HW2 7195   0.477   4.193   1.345
 1719SOL    HW3 7196   0.417   4.138   1.217
 1719SOL    MW4 7197   0.443   4.126   1.299
 1720SOL     OW 7198   0.398   4.079   1.041
 1720SOL    HW2 7199   0.428   3.993   1.012
 1720SOL    HW3 7200   0.303   4.072   1.044
 1720SOL    MW4 7201   0.390   4.068   1.039
 1721SOL     OW 7202   1.227   4.288   1.732
 1721SOL    HW2 7203   1.279   4.223   1.685
 1721SOL    HW3 7204   1.185   4.339   1.662
 1721SOL    MW4 7205   1.228   4.285   1.715
 1722SOL     OW 7206   1.326   4.083   1.593
 1722SOL    HW2 7207   1.233   4.067   1.580
 1722SOL    HW3 7208   1.352   4.021   1.661
 1722SOL    MW4 7209   1.316   4.073   1.600
 1723SOL     OW 7210   0.541   3.857   0.932
 1723SOL    HW2 7211   0.551   3.766   0.958
 1723SOL    HW3 7212   0.497   3.853   0.847
 1723SOL    MW4 7213   0.537   3.845   0.924
 1724SOL     OW 7214   0.635   5.472   1.478
 1724SOL    HW2 7215   0.552   5.457   1.523
 1724SOL    HW3 7216   0.694   5.405   1.513
 1724SOL    MW4 7217   0.633   5.462   1.488
 1725SOL     OW 7218   1.692   4.179   1.103
 1725SOL    HW2 7219   1.625   4.212   1.163
 1725SOL    HW3 7220   1.735   4.257   1.069
 1725SOL    MW4 7221   1.690   4.194   1.107
 1726SOL     OW 7222   1.870   4.899   1.073
 1726SOL    HW2 7223   1.863   4.839   0.998
 1726SOL    HW3 7224   1.796   4.959   1.062
 1726SOL    MW4 7225   1.860   4.899   1.062
 1727SOL     OW 7226   1.252   4.761   0.991
 1727SOL    HW2 7227   1.266   4.733   1.082
 1727SOL    HW3 7228   1.338   4.792   0.963
 1727SOL    MW4 7229   1.265   4.762   1.000
 1728SOL     OW 7230   1.335   4.256   1.270
 1728SOL    HW2 7231   1.356   4.257   1.177
 1728SOL    HW3 7232   1.380   4.178   1.303
 1728SOL    MW4 7233   1.342   4.246   1.262
 1729SOL     OW 7234   1.828   4.387   1.812
 1729SOL    HW2 7235   1.865   4.332   1.881
 1729SOL    HW3 7236   1.853   4.344   1.730
 1729SOL    MW4 7237   1.835   4.375   1.811
 1730SOL     OW 7238   1.375   4.685   1.863
 1730SOL    HW2 7239   1.441   4.633   1.817
 1730SOL    HW3 7240   1.395   4.672   1.956
 1730SOL    MW4 7241   1.386   4.676   1.870
 1731SOL     OW 7242   1.326   3.771   0.212
 1731SOL    HW2 7243   1.400   3.815   0.255
 1731SOL    HW3 7244   1.250   3.825   0.234
 1731SOL    MW4 7245   1.326   3.783   0.220
 1732SOL     OW 7246   1.386   4.546   0.490
 1732SOL    HW2 7247   1.301   4.516   0.460
 1732SOL    HW3 7248   1.378   4.553   0.585
 1732SOL    MW4 7249   1.374   4.544   0.499
 1733SOL     OW 7250   0.462   5.009   1.221
 1733SOL    HW2 7251   0.474   5.036   1.312
 1733SOL    HW3 7252   0.443   5.090   1.174
 1733SOL    MW4 7253   0.461   5.024   1.226
 1734SOL     OW 7254   0.746   3.989   1.044
 1734SOL    HW2 7255   0.719   3.991   1.135
 1734SOL    HW3 7256   0.676   3.941   0.999
 1734SOL    MW4 7257   0.734   3.985   1.051
 1735SOL     OW 7258   0.600   5.481   1.206
 1735SOL    HW2 7259   0.652   5.558   1.183
 1735SOL    HW3 7260   0.609   5.473   1.301
 1735SOL    MW4 7261   0.609   5.488   1.217
 1736SOL     OW 7262   1.502   5.066   1.438
 1736SOL    HW2 7263   1.487   4.995   1.501
 1736SOL    HW3 7264   1.548   5.024   1.366
 1736SOL    MW4 7265   1.508   5.050   1.438
 1737SOL     OW 7266   0.576   4.797   1.555
 1737SOL    HW2 7267   0.613   4.802   1.467
 1737SOL    HW3 7268   0.615   4.870   1.602
 1737SOL    MW4 7269   0.586   4.807   1.550
 1738SOL     OW 7270   0.756   4.840   1.367
 1738SOL    HW2 7271   0.815   4.786   1.420
 1738SOL    HW3 7272   0.771   4.812   1.277
 1738SOL    MW4 7273   0.766   4.829   1.363
 1739SOL     OW 7274   0.759   4.212   0.216
 1739SOL    HW2 7275   0.832   4.261   0.179
 1739SOL    HW3 7276   0.775   4.121   0.190
 1739SOL    MW4 7277   0.771   4.207   0.209
 1740SOL     OW 7278   1.567   5.329   1.539
 1740SOL    HW2 7279   1.609   5.314   1.624
 1740SOL    HW3 7280   1.558   5.242   1.501
 1740SOL    MW4 7281   1.571   5.317   1.546
 1741SOL     OW 7282   1.227   3.808   1.130
 1741SOL    HW2 7283   1.282   3.817   1.052
 1741SOL    HW3 7284   1.282   3.842   1.201
 1741SOL    MW4 7285   1.241   3.813   1.129
 1742SOL     OW 7286   0.234   4.721   0.314
 1742SOL    HW2 7287   0.171   4.737   0.243
 1742SOL    HW3 7288   0.181   4.684   0.385
 1742SOL    MW4 7289   0.219   4.718   0.314
 1743SOL     OW 7290   0.590   5.075   0.173
 1743SOL    HW2 7291   0.605   5.051   0.265
 1743SOL    HW3 7292   0.498   5.053   0.157
 1743SOL    MW4 7293   0.580   5.068   0.183
 1744SOL     OW 7294   1.129   5.306   0.325
 1744SOL    HW2 7295   1.137   5.224   0.276
 1744SOL    HW3 7296   1.048   5.345   0.292
 1744SOL    MW4 7297   1.119   5.301   0.315
 1745SOL     OW 7298   0.388   5.464   0.894
 1745SOL    HW2 7299   0.392   5.375   0.929
 1745SOL    HW3 7300   0.414   5.455   0.803
 1745SOL    MW4 7301   0.391   5.452   0.886
 1746SOL     OW 7302   1.005   4.942   1.137
 1746SOL    HW2 7303   0.937   4.876   1.153
 1746SOL    HW3 7304   1.023   4.936   1.044
 1746SOL    MW4 7305   0.998   4.933   1.128
 1747SOL     OW 7306   0.094   5.217   1.388
 1747SOL    HW2 7307   0.084   5.175   1.474
 1747SOL    HW3 7308   0.015   5.270   1.378
 1747SOL    MW4 7309   0.083   5.218   1.399
 1748SOL     OW 7310   0.998   4.081   0.958
 1748SOL    HW2 7311   0.928   4.033   1.003
 1748SOL    HW3 7312   1.030   4.144   1.022
 1748SOL    MW4 7313   0.993   4.083   0.972
 1749SOL     OW 7314   0.649   4.517   1.578
 1749SOL    HW2 7315   0.642   4.612   1.566
 1749SOL    HW3 7316   0.658   4.506   1.673
 1749SOL    MW4 7317   0.650   4.529   1.588
 1750SOL     OW 7318   0.370   5.032   1.836
 1750SOL    HW2 7319   0.442   5.034   1.773
 1750SOL    HW3 7320   0.340   4.941   1.835
 1750SOL    MW4 7321   0.375   5.021   1.828
 1751SOL     OW 7322   1.454   3.795   1.303
 1751SOL    HW2 7323   1.525   3.741   1.267
 1751SOL    HW3 7324   1.453   3.774   1.396
 1751SOL    MW4 7325   1.463   3.786   1.311
 1752SOL     OW 7326   1.654   5.325   1.787
 1752SOL    HW2 7327   1.627   5.322   1.878
 1752SOL    HW3 7328   1.750   5.329   1.790
 1752SOL    MW4 7329   1.664   5.325   1.799
 1753SOL     OW 7330   0.465   4.187   0.771
 1753SOL    HW2 7331   0.536   4.135   0.734
 1753SOL    HW3 7332   0.451   4.152   0.858
 1753SOL    MW4 7333   0.473   4.176   0.778
 1754SOL     OW 7334   0.020   5.522   1.843
 1754SOL    HW2 7335   0.070   5.500   1.765
 1754SOL    HW3 7336   0.028   5.617   1.851
 1754SOL    MW4 7337   0.028   5.531   1.834
 1755SOL     OW 7338   0.781   5.280   0.847
 1755SOL    HW2 7339   0.709   5.217   0.860
 1755SOL    HW3 7340   0.742   5.365   0.865
 1755SOL    MW4 7341   0.765   5.283   0.850
 1756SOL     OW 7342   1.101   4.128   0.495
 1756SOL    HW2 7343   1.123   4.065   0.427
 1756SOL    HW3 7344   1.006   4.120   0.506
 1756SOL    MW4 7345   1.091   4.119   0.487
 1757SOL     OW 7346   0.186   3.818   0.427
 1757SOL    HW2 7347   0.257   3.839   0.366
 1757SOL    HW3 7348   0.140   3.746   0.385
 1757SOL    MW4 7349   0.190   3.812   0.413
 1758SOL     OW 7350   0.017   4.285   1.570
 1758SOL    HW2 7351   0.081   4.351   1.545
 1758SOL    HW3 7352  -0.064   4.312   1.527
 1758SOL    MW4 7353   0.015   4.297   1.562
 1759SOL     OW 7354   1.755   5.192   0.527
 1759SOL    HW2 7355   1.725   5.125   0.588
 1759SOL    HW3 7356   1.849   5.198   0.541
 1759SOL    MW4 7357   1.763   5.184   0.537
 1760SOL     OW 7358   1.311   4.869   0.457
 1760SOL    HW2 7359   1.283   4.955   0.490
 1760SOL    HW3 7360   1.339   4.885   0.367
 1760SOL    MW4 7361   1.311   4.883   0.449
 1761SOL     OW 7362   0.973   3.789   0.510
 1761SOL    HW2 7363   1.010   3.848   0.575
 1761SOL    HW3 7364   0.950   3.845   0.436
 1761SOL    MW4 7365   0.974   3.804   0.509
 1762SOL     OW 7366   1.826   4.671   0.932
 1762SOL    HW2 7367   1.817   4.703   0.843
 1762SOL    HW3 7368   1.779   4.587   0.932
 1762SOL    MW4 7369   1.819   4.664   0.922
 1763SOL     OW 7370   0.202   4.511   1.511
 1763SOL    HW2 7371   0.223   4.580   1.449
 1763SOL    HW3 7372   0.282   4.458   1.516
 1763SOL    MW4 7373   0.215   4.512   1.505
 1764SOL     OW 7374   1.738   4.602   0.633
 1764SOL    HW2 7375   1.832   4.591   0.621
 1764SOL    HW3 7376   1.714   4.674   0.574
 1764SOL    MW4 7377   1.748   4.610   0.624
 1765SOL     OW 7378   0.187   4.526   1.778
 1765SOL    HW2 7379   0.113   4.470   1.804
 1765SOL    HW3 7380   0.182   4.529   1.683
 1765SOL    MW4 7381   0.176   4.519   1.768
 1766SOL     OW 7382   0.353   3.813   1.228
 1766SOL    HW2 7383   0.396   3.897   1.248
 1766SOL    HW3 7384   0.426   3.751   1.221
 1766SOL    MW4 7385   0.368   3.816   1.229
 1767SOL     OW 7386   0.394   4.480   0.406
 1767SOL    HW2 7387   0.394   4.575   0.391
 1767SOL    HW3 7388   0.471   4.464   0.460
 1767SOL    MW4 7389   0.404   4.491   0.411
 1768SOL     OW 7390   1.170   4.339   1.470
 1768SOL    HW2 7391   1.206   4.312   1.386
 1768SOL    HW3 7392   1.083   4.373   1.449
 1768SOL    MW4 7393   1.164   4.340   1.457
 1769SOL     OW 7394   0.153   4.211   0.695
 1769SOL    HW2 7395   0.215   4.218   0.768
 1769SOL    HW3 7396   0.153   4.118   0.672
 1769SOL    MW4 7397   0.161   4.200   0.702
 1770SOL     OW 7398   1.700   5.551   0.227
 1770SOL    HW2 7399   1.767   5.584   0.167
 1770SOL    HW3 7400   1.657   5.630   0.261
 1770SOL    MW4 7401   1.702   5.566   0.223
 1771SOL     OW 7402   0.835   4.472   1.179
 1771SOL    HW2 7403   0.793   4.390   1.155
 1771SOL    HW3 7404   0.836   4.471   1.275
 1771SOL    MW4 7405   0.828   4.461   1.188
 1772SOL     OW 7406   1.506   5.605   1.578
 1772SOL    HW2 7407   1.509   5.511   1.561
 1772SOL    HW3 7408   1.529   5.613   1.670
 1772SOL    MW4 7409   1.509   5.593   1.588
 1773SOL     OW 7410   0.639   3.942   1.284
 1773SOL    HW2 7411   0.570   4.005   1.305
 1773SOL    HW3 7412   0.666   3.906   1.369
 1773SOL    MW4 7413   0.633   3.945   1.297
 1774SOL     OW 7414   0.022   4.783   0.153
 1774SOL    HW2 7415  -0.009   4.848   0.216
 1774SOL    HW3 7416  -0.029   4.705   0.172
 1774SOL    MW4 7417   0.012   4.780   0.163
 1775SOL     OW 7418   1.434   3.795   0.901
 1775SOL    HW2 7419   1.522   3.804   0.938
 1775SOL    HW3 7420   1.444   3.736   0.827
 1775SOL    MW4 7421   1.448   3.789   0.895
 1776SOL     OW 7422   1.466   4.534   0.745
 1776SOL    HW2 7423   1.546   4.549   0.694
 1776SOL    HW3 7424   1.459   4.439   0.751
 1776SOL    MW4 7425   1.475   4.523   0.740
 1777SOL     OW 7426   0.606   5.583   0.095
 1777SOL    HW2 7427   0.511   5.583   0.087
 1777SOL    HW3 7428   0.622   5.529   0.173
 1777SOL    MW4 7429   0.596   5.577   0.104
 1778SOL     OW 7430   0.916   4.460   1.442
 1778SOL    HW2 7431   0.985   4.527   1.439
 1778SOL    HW3 7432   0.849   4.498   1.498
 1778SOL    MW4 7433   0.917   4.473   1.449
 1779SOL     OW 7434   0.334   4.760   1.690
 1779SOL    HW2 7435   0.288   4.676   1.692
 1779SOL    HW3 7436   0.391   4.754   1.614
 1779SOL    MW4 7437   0.336   4.748   1.682
 1780SOL     OW 7438   1.451   4.403   0.011
 1780SOL    HW2 7439   1.379   4.379  -0.047
 1780SOL    HW3 7440   1.517   4.440  -0.047
 1780SOL    MW4 7441   1.450   4.405  -0.004
 1781SOL     OW 7442   0.585   5.135   0.691
 1781SOL    HW2 7443   0.650   5.068   0.712
 1781SOL    HW3 7444   0.637   5.212   0.668
 1781SOL    MW4 7445   0.600   5.137   0.690
 1782SOL     OW 7446   0.846   4.300   0.821
 1782SOL    HW2 7447   0.786   4.318   0.893
 1782SOL    HW3 7448   0.880   4.212   0.840
 1782SOL    MW4 7449   0.842   4.290   0.834
 1783SOL     OW 7450   1.787   3.799   1.490
 1783SOL    HW2 7451   1.708   3.845   1.518
 1783SOL    HW3 7452   1.822   3.853   1.419
 1783SOL    MW4 7453   1.781   3.812   1.484
 1784SOL     OW 7454   1.071   4.883   0.840
 1784SOL    HW2 7455   1.163   4.864   0.858
 1784SOL    HW3 7456   1.044   4.813   0.780
 1784SOL    MW4 7457   1.079   4.871   0.834
 1785SOL     OW 7458   0.864   4.703   0.195
 1785SOL    HW2 7459   0.850   4.615   0.160
 1785SOL    HW3 7460   0.815   4.760   0.136
 1785SOL    MW4 7461   0.856   4.698   0.183
 1786SOL     OW 7462   1.345   5.121   0.936
 1786SOL    HW2 7463   1.318   5.205   0.901
 1786SOL    HW3 7464   1.305   5.116   1.023
 1786SOL    MW4 7465   1.338   5.130   0.942
 1787SOL     OW 7466   1.264   5.069   1.204
 1787SOL    HW2 7467   1.275   5.036   1.293
 1787SOL    HW3 7468   1.183   5.028   1.173
 1787SOL    MW4 7469   1.254   5.061   1.210
 1788SOL     OW 7470   0.277   4.427   0.974
 1788SOL    HW2 7471   0.227   4.426   1.055
 1788SOL    HW3 7472   0.297   4.519   0.958
 1788SOL    MW4 7473   0.273   4.439   0.982
 1789SOL     OW 7474   1.344   5.191   1.736
 1789SOL    HW2 7475   1.344   5.285   1.752
 1789SOL    HW3 7476   1.389   5.181   1.652
 1789SOL    MW4 7477   1.350   5.201   1.727
 1790SOL     OW 7478   1.583   3.909   0.297
 1790SOL    HW2 7479   1.576   3.913   0.392
 1790SOL    HW3 7480   1.595   4.000   0.270
 1790SOL    MW4 7481   1.584   3.922   0.305
 1791SOL     OW 7482   0.872   4.472   0.411
 1791SOL    HW2 7483   0.852   4.458   0.318
 1791SOL    HW3 7484   0.965   4.451   0.418
 1791SOL    MW4 7485   0.882   4.467   0.400
 1792SOL     OW 7486   0.199   4.095   1.715
 1792SOL    HW2 7487   0.156   4.154   1.652
 1792SOL    HW3 7488   0.267   4.150   1.755
 1792SOL    MW4 7489   0.203   4.110   1.712
 1793SOL     OW 7490   1.311   4.715   1.260
 1793SOL    HW2 7491   1.374   4.712   1.333
 1793SOL    HW3 7492   1.227   4.733   1.302
 1793SOL    MW4 7493   1.307   4.717   1.275
 1794SOL     OW 7494   0.855   5.430   0.449
 1794SOL    HW2 7495   0.913   5.501   0.476
 1794SOL    HW3 7496   0.878   5.358   0.507
 1794SOL    MW4 7497   0.866   5.430   0.460
 1795SOL     OW 7498   1.650   3.892   1.039
 1795SOL    HW2 7499   1.695   3.810   1.058
 1795SOL    HW3 7500   1.670   3.948   1.115
 1795SOL    MW4 7501   1.660   3.888   1.051
 1796SOL     OW 7502   0.098   3.735   1.138
 1796SOL    HW2 7503   0.089   3.736   1.043
 1796SOL    HW3 7504   0.192   3.747   1.153
 1796SOL    MW4 7505   0.110   3.738   1.129
 1797SOL     OW 7506   1.735   4.928   0.758
 1797SOL    HW2 7507   1.714   4.874   0.681
 1797SOL    HW3 7508   1.831   4.926   0.762
 1797SOL    MW4 7509   1.744   4.921   0.747
 1798SOL     OW 7510   0.427   5.073   1.501
 1798SOL    HW2 7511   0.348   5.023   1.524
 1798SOL    HW3 7512   0.497   5.032   1.551
 1798SOL    MW4 7513   0.425   5.061   1.511
 1799SOL     OW 7514   0.311   3.862   0.184
 1799SOL    HW2 7515   0.240   3.917   0.152
 1799SOL    HW3 7516   0.353   3.828   0.105
 1799SOL    MW4 7517   0.307   3.864   0.170
 1800SOL     OW 7518   1.435   4.359   1.020
 1800SOL    HW2 7519   1.358   4.405   0.986
 1800SOL    HW3 7520   1.492   4.428   1.054
 1800SOL    MW4 7521   1.432   4.374   1.020
 1801SOL     OW 7522   0.067   3.961   0.033
 1801SOL    HW2 7523   0.034   4.040   0.077
 1801SOL    HW3 7524   0.122   3.994  -0.038
 1801SOL    MW4 7525   0.070   3.975   0.030
 1802SOL     OW 7526   0.101   5.218   0.222
 1802SOL    HW2 7527   0.118   5.302   0.264
 1802SOL    HW3 7528   0.136   5.227   0.134
 1802SOL    MW4 7529   0.106   5.231   0.216
 1803SOL     OW 7530   1.373   5.307   0.439
 1803SOL    HW2 7531   1.436   5.297   0.368
 1803SOL    HW3 7532   1.290   5.327   0.394
 1803SOL    MW4 7533   1.370   5.308   0.424
 1804SOL     OW 7534   1.736   4.575   2.125
 1804SOL    HW2 7535   1.777   4.517   2.190
 1804SOL    HW3 7536   1.643   4.567   2.142
 1804SOL    MW4 7537   1.730   4.567   2.135
 1805SOL     OW 7538   1.602   4.507   3.120
 1805SOL    HW2 7539   1.557   4.574   3.171
 1805SOL    HW3 7540   1.690   4.543   3.106
 1805SOL    MW4 7541   1.608   4.520   3.124
 1806SOL     OW 7542   0.530   4.758   2.354
 1806SOL    HW2 7543   0.620   4.733   2.338
 1806SOL    HW3 7544   0.526   4.851   2.331
 1806SOL    MW4 7545   0.542   4.767   2.349
 1807SOL     OW 7546   1.646   5.461   2.496
 1807SOL    HW2 7547   1.658   5.407   2.574
 1807SOL    HW3 7548   1.683   5.409   2.425
 1807SOL    MW4 7549   1.652   5.446   2.497
 1808SOL     OW 7550   1.025   5.346   3.497
 1808SOL    HW2 7551   1.066   5.382   3.418
 1808SOL    HW3 7552   1.060   5.257   3.504
 1808SOL    MW4 7553   1.036   5.339   3.488
 1809SOL     OW 7554   1.582   4.901   3.101
 1809SOL    HW2 7555   1.503   4.866   3.059
 1809SOL    HW3 7556   1.609   4.973   3.045
 1809SOL    MW4 7557   1.575   4.906   3.088
 1810SOL     OW 7558   0.814   4.214   2.367
 1810SOL    HW2 7559   0.789   4.302   2.395
 1810SOL    HW3 7560   0.811   4.217   2.271
 1810SOL    MW4 7561   0.810   4.226   2.359
 1811SOL     OW 7562   0.256   4.242   2.295
 1811SOL    HW2 7563   0.288   4.330   2.277
 1811SOL    HW3 7564   0.244   4.240   2.390
 1811SOL    MW4 7565   0.259   4.254   2.307
 1812SOL     OW 7566   0.334   4.655   3.196
 1812SOL    HW2 7567   0.397   4.602   3.147
 1812SOL    HW3 7568   0.315   4.729   3.139
 1812SOL    MW4 7569   0.340   4.657   3.183
 1813SOL     OW 7570   0.655   3.997   2.382
 1813SOL    HW2 7571   0.713   4.073   2.384
 1813SOL    HW3 7572   0.590   4.018   2.315
 1813SOL    MW4 7573   0.654   4.009   2.373
 1814SOL     OW 7574   0.742   4.924   2.557
 1814SOL    HW2 7575   0.822   4.927   2.609
 1814SOL    HW3 7576   0.770   4.891   2.471
 1814SOL    MW4 7577   0.756   4.920   2.552
 1815SOL     OW 7578   0.767   5.265   3.460
 1815SOL    HW2 7579   0.851   5.291   3.499
 1815SOL    HW3 7580   0.791   5.209   3.386
 1815SOL    MW4 7581   0.781   5.261   3.455
 1816SOL     OW 7582   0.519   4.428   2.548
 1816SOL    HW2 7583   0.504   4.348   2.599
 1816SOL    HW3 7584   0.601   4.463   2.582
 1816SOL    MW4 7585   0.527   4.420   2.560
 1817SOL     OW 7586   0.856   5.114   3.233
 1817SOL    HW2 7587   0.820   5.180   3.173
 1817SOL    HW3 7588   0.784   5.052   3.246
 1817SOL    MW4 7589   0.842   5.114   3.227
 1818SOL     OW 7590   0.661   4.254   2.925
 1818SOL    HW2 7591   0.567   4.250   2.943
 1818SOL    HW3 7592   0.691   4.163   2.934
 1818SOL    MW4 7593   0.652   4.242   2.928
 1819SOL     OW 7594   0.407   4.668   2.829
 1819SOL    HW2 7595   0.362   4.675   2.745
 1819SOL    HW3 7596   0.387   4.751   2.873
 1819SOL    MW4 7597   0.399   4.680   2.823
 1820SOL     OW 7598   0.104   5.514   2.704
 1820SOL    HW2 7599   0.193   5.506   2.739
 1820SOL    HW3 7600   0.068   5.426   2.709
 1820SOL    MW4 7601   0.111   5.501   2.709
 1821SOL     OW 7602   1.369   4.906   2.073
 1821SOL    HW2 7603   1.287   4.942   2.039
 1821SOL    HW3 7604   1.437   4.949   2.022
 1821SOL    MW4 7605   1.367   4.916   2.061
 1822SOL     OW 7606   0.368   5.041   2.739
 1822SOL    HW2 7607   0.344   5.094   2.815
 1822SOL    HW3 7608   0.424   5.099   2.687
 1822SOL    MW4 7609   0.372   5.056   2.742
 1823SOL     OW 7610   0.930   4.685   2.549
 1823SOL    HW2 7611   0.844   4.672   2.589
 1823SOL    HW3 7612   0.983   4.612   2.581
 1823SOL    MW4 7613   0.926   4.674   2.558
 1824SOL     OW 7614   0.338   5.337   3.334
 1824SOL    HW2 7615   0.246   5.313   3.319
 1824SOL    HW3 7616   0.382   5.254   3.351
 1824SOL    MW4 7617   0.332   5.322   3.333
 1825SOL     OW 7618   0.921   5.047   2.266
 1825SOL    HW2 7619   0.898   5.109   2.334
 1825SOL    HW3 7620   0.878   4.965   2.292
 1825SOL    MW4 7621   0.913   5.043   2.277
 1826SOL     OW 7622   1.794   4.048   2.722
 1826SOL    HW2 7623   1.731   4.028   2.791
 1826SOL    HW3 7624   1.784   3.977   2.659
 1826SOL    MW4 7625   1.784   4.035   2.723
 1827SOL     OW 7626   0.418   4.020   2.234
 1827SOL    HW2 7627   0.392   3.982   2.150
 1827SOL    HW3 7628   0.355   4.090   2.250
 1827SOL    MW4 7629   0.407   4.023   2.225
 1828SOL     OW 7630   0.253   4.981   2.271
 1828SOL    HW2 7631   0.201   5.049   2.227
 1828SOL    HW3 7632   0.250   4.907   2.211
 1828SOL    MW4 7633   0.245   4.980   2.258
 1829SOL     OW 7634   0.915   5.444   2.049
 1829SOL    HW2 7635   0.870   5.460   2.132
 1829SOL    HW3 7636   0.846   5.409   1.991
 1829SOL    MW4 7637   0.901   5.441   2.051
 1830SOL     OW 7638   1.850   4.217   2.024
 1830SOL    HW2 7639   1.759   4.219   2.052
 1830SOL    HW3 7640   1.895   4.279   2.082
 1830SOL    MW4 7641   1.843   4.225   2.034
 1831SOL     OW 7642   1.595   4.820   2.374
 1831SOL    HW2 7643   1.505   4.820   2.409
 1831SOL    HW3 7644   1.588   4.866   2.291
 1831SOL    MW4 7645   1.582   4.826   2.368
 1832SOL     OW 7646   1.395   4.455   3.446
 1832SOL    HW2 7647   1.464   4.393   3.423
 1832SOL    HW3 7648   1.320   4.429   3.393
 1832SOL    MW4 7649   1.395   4.442   3.437
 1833SOL     OW 7650   0.136   5.335   2.998
 1833SOL    HW2 7651   0.119   5.281   3.075
 1833SOL    HW3 7652   0.124   5.425   3.028
 1833SOL    MW4 7653   0.133   5.339   3.012
 1834SOL     OW 7654   1.131   4.842   3.438
 1834SOL    HW2 7655   1.116   4.935   3.423
 1834SOL    HW3 7656   1.226   4.832   3.438
 1834SOL    MW4 7657   1.140   4.852   3.435
 1835SOL     OW 7658   1.502   4.798   2.766
 1835SOL    HW2 7659   1.505   4.732   2.697
 1835SOL    HW3 7660   1.587   4.841   2.762
 1835SOL    MW4 7661   1.514   4.794   2.757
 1836SOL     OW 7662   1.122   4.401   2.335
 1836SOL    HW2 7663   1.148   4.425   2.246
 1836SOL    HW3 7664   1.104   4.308   2.331
 1836SOL    MW4 7665   1.124   4.393   2.322
 1837SOL     OW 7666   1.787   5.021   2.186
 1837SOL    HW2 7667   1.743   5.062   2.261
 1837SOL    HW3 7668   1.844   5.089   2.151
 1837SOL    MW4 7669   1.789   5.035   2.191
 1838SOL     OW 7670   0.707   4.070   3.589
 1838SOL    HW2 7671   0.717   3.996   3.529
 1838SOL    HW3 7672   0.743   4.039   3.672
 1838SOL    MW4 7673   0.713   4.056   3.591
 1839SOL     OW 7674   0.443   5.437   2.504
 1839SOL    HW2 7675   0.475   5.525   2.482
 1839SOL    HW3 7676   0.396   5.409   2.426
 1839SOL    MW4 7677   0.442   5.445   2.491
 1840SOL     OW 7678   1.827   3.799   2.553
 1840SOL    HW2 7679   1.881   3.750   2.615
 1840SOL    HW3 7680   1.770   3.733   2.514
 1840SOL    MW4 7681   1.827   3.783   2.555
 1841SOL     OW 7682   0.159   5.497   2.081
 1841SOL    HW2 7683   0.188   5.587   2.073
 1841SOL    HW3 7684   0.109   5.480   2.002
 1841SOL    MW4 7685   0.157   5.505   2.070
 1842SOL     OW 7686   0.946   3.752   2.966
 1842SOL    HW2 7687   0.905   3.830   2.928
 1842SOL    HW3 7688   1.040   3.770   2.961
 1842SOL    MW4 7689   0.952   3.764   2.961
 1843SOL     OW 7690   1.563   5.305   2.052
 1843SOL    HW2 7691   1.611   5.374   2.098
 1843SOL    HW3 7692   1.484   5.349   2.021
 1843SOL    MW4 7693   1.558   5.319   2.055
 1844SOL     OW 7694   0.961   4.430   1.996
 1844SOL    HW2 7695   0.963   4.377   1.917
 1844SOL    HW3 7696   1.049   4.467   2.002
 1844SOL    MW4 7697   0.973   4.429   1.985
 1845SOL     OW 7698   1.575   4.356   2.332
 1845SOL    HW2 7699   1.614   4.356   2.419
 1845SOL    HW3 7700   1.516   4.432   2.332
 1845SOL    MW4 7701   1.572   4.367   2.343
 1846SOL     OW 7702   0.892   4.723   3.461
 1846SOL    HW2 7703   0.869   4.703   3.551
 1846SOL    HW3 7704   0.977   4.767   3.466
 1846SOL    MW4 7705   0.899   4.726   3.473
 1847SOL     OW 7706   0.972   3.860   3.221
 1847SOL    HW2 7707   0.978   3.822   3.134
 1847SOL    HW3 7708   0.961   3.954   3.206
 1847SOL    MW4 7709   0.973   3.868   3.209
 1848SOL     OW 7710   1.061   4.349   3.055
 1848SOL    HW2 7711   1.136   4.378   3.002
 1848SOL    HW3 7712   0.993   4.414   3.039
 1848SOL    MW4 7713   1.062   4.361   3.045
 1849SOL     OW 7714   1.611   4.317   3.332
 1849SOL    HW2 7715   1.592   4.226   3.311
 1849SOL    HW3 7716   1.589   4.366   3.253
 1849SOL    MW4 7717   1.606   4.310   3.319
 1850SOL     OW 7718   1.753   5.411   3.236
 1850SOL    HW2 7719   1.681   5.373   3.287
 1850SOL    HW3 7720   1.770   5.496   3.277
 1850SOL    MW4 7721   1.747   5.416   3.248
 1851SOL     OW 7722   1.058   4.055   3.438
 1851SOL    HW2 7723   1.024   4.094   3.357
 1851SOL    HW3 7724   1.036   3.963   3.431
 1851SOL    MW4 7725   1.051   4.048   3.428
 1852SOL     OW 7726   1.467   4.869   3.514
 1852SOL    HW2 7727   1.549   4.910   3.544
 1852SOL    HW3 7728   1.430   4.831   3.594
 1852SOL    MW4 7729   1.473   4.870   3.529
 1853SOL     OW 7730   1.762   4.242   2.498
 1853SOL    HW2 7731   1.851   4.211   2.515
 1853SOL    HW3 7732   1.705   4.182   2.546
 1853SOL    MW4 7733   1.765   4.230   2.507
 1854SOL     OW 7734   0.188   3.956   2.527
 1854SOL    HW2 7735   0.179   3.896   2.453
 1854SOL    HW3 7736   0.121   3.927   2.590
 1854SOL    MW4 7737   0.178   3.943   2.525
 1855SOL     OW 7738   1.131   5.049   2.088
 1855SOL    HW2 7739   1.081   5.051   2.170
 1855SOL    HW3 7740   1.065   5.067   2.020
 1855SOL    MW4 7741   1.117   5.051   2.090
 1856SOL     OW 7742   0.135   4.129   2.890
 1856SOL    HW2 7743   0.107   4.220   2.899
 1856SOL    HW3 7744   0.072   4.090   2.829
 1856SOL    MW4 7745   0.122   4.135   2.884
 1857SOL     OW 7746   0.594   5.467   2.196
 1857SOL    HW2 7747   0.515   5.425   2.229
 1857SOL    HW3 7748   0.660   5.450   2.263
 1857SOL    MW4 7749   0.593   5.459   2.209
 1858SOL     OW 7750   1.722   4.987   3.593
 1858SOL    HW2 7751   1.772   4.913   3.625
 1858SOL    HW3 7752   1.668   5.014   3.668
 1858SOL    MW4 7753   1.722   4.981   3.606
 1859SOL     OW 7754   0.730   4.882   1.903
 1859SOL    HW2 7755   0.652   4.828   1.890
 1859SOL    HW3 7756   0.701   4.955   1.956
 1859SOL    MW4 7757   0.716   4.884   1.908
 1860SOL     OW 7758   1.856   4.622   3.095
 1860SOL    HW2 7759   1.872   4.660   3.008
 1860SOL    HW3 7760   1.890   4.688   3.156
 1860SOL    MW4 7761   1.863   4.635   3.091
 1861SOL     OW 7762   1.648   5.331   2.764
 1861SOL    HW2 7763   1.677   5.398   2.825
 1861SOL    HW3 7764   1.629   5.255   2.819
 1861SOL    MW4 7765   1.650   5.331   2.779
 1862SOL     OW 7766   1.311   5.398   1.971
 1862SOL    HW2 7767   1.237   5.361   2.021
 1862SOL    HW3 7768   1.319   5.488   2.004
 1862SOL    MW4 7769   1.302   5.405   1.983
 1863SOL     OW 7770   0.119   4.404   3.060
 1863SOL    HW2 7771   0.181   4.434   3.126
 1863SOL    HW3 7772   0.053   4.473   3.054
 1863SOL    MW4 7773   0.118   4.417   3.067
 1864SOL     OW 7774   1.535   5.072   1.913
 1864SOL    HW2 7775   1.482   5.121   1.849
 1864SOL    HW3 7776   1.566   5.138   1.974
 1864SOL    MW4 7777   1.533   5.086   1.911
 1865SOL     OW 7778   0.760   3.961   1.968
 1865SOL    HW2 7779   0.708   3.881   1.956
 1865SOL    HW3 7780   0.847   3.938   1.936
 1865SOL    MW4 7781   0.763   3.947   1.962
 1866SOL     OW 7782   0.214   5.513   3.512
 1866SOL    HW2 7783   0.188   5.581   3.450
 1866SOL    HW3 7784   0.262   5.450   3.460
 1866SOL    MW4 7785   0.216   5.513   3.498
 1867SOL     OW 7786   0.266   4.832   3.019
 1867SOL    HW2 7787   0.319   4.907   3.044
 1867SOL    HW3 7788   0.185   4.870   2.985
 1867SOL    MW4 7789   0.262   4.847   3.019
 1868SOL     OW 7790   0.806   4.736   3.007
 1868SOL    HW2 7791   0.834   4.645   3.019
 1868SOL    HW3 7792   0.735   4.730   2.943
 1868SOL    MW4 7793   0.799   4.724   3.002
 1869SOL     OW 7794   0.121   4.601   2.425
 1869SOL    HW2 7795   0.212   4.616   2.452
 1869SOL    HW3 7796   0.124   4.522   2.371
 1869SOL    MW4 7797   0.133   4.593   2.423
 1870SOL     OW 7798   0.357   4.309   3.679
 1870SOL    HW2 7799   0.304   4.389   3.686
 1870SOL    HW3 7800   0.427   4.321   3.744
 1870SOL    MW4 7801   0.359   4.322   3.687
 1871SOL     OW 7802   0.743   3.859   3.386
 1871SOL    HW2 7803   0.720   3.767   3.388
 1871SOL    HW3 7804   0.829   3.861   3.343
 1871SOL    MW4 7805   0.750   3.849   3.382
 1872SOL     OW 7806   0.427   4.383   3.425
 1872SOL    HW2 7807   0.507   4.433   3.411
 1872SOL    HW3 7808   0.418   4.377   3.520
 1872SOL    MW4 7809   0.436   4.389   3.435
 1873SOL     OW 7810   0.748   5.533   2.799
 1873SOL    HW2 7811   0.837   5.548   2.829
 1873SOL    HW3 7812   0.743   5.580   2.715
 1873SOL    MW4 7813   0.758   5.541   2.792
 1874SOL     OW 7814   1.404   3.908   3.696
 1874SOL    HW2 7815   1.460   3.835   3.722
 1874SOL    HW3 7816   1.374   3.946   3.778
 1874SOL    MW4 7817   1.408   3.903   3.709
 1875SOL     OW 7818   0.129   5.213   2.464
 1875SOL    HW2 7819   0.101   5.252   2.546
 1875SOL    HW3 7820   0.149   5.122   2.486
 1875SOL    MW4 7821   0.127   5.205   2.477
 1876SOL     OW 7822   0.962   5.256   2.499
 1876SOL    HW2 7823   1.045   5.210   2.483
 1876SOL    HW3 7824   0.952   5.255   2.595
 1876SOL    MW4 7825   0.972   5.249   2.509
 1877SOL     OW 7826   1.794   4.401   2.813
 1877SOL    HW2 7827   1.883   4.431   2.795
 1877SOL    HW3 7828   1.774   4.341   2.742
 1877SOL    MW4 7829   1.803   4.398   2.802
 1878SOL     OW 7830   1.645   4.580   3.693
 1878SOL    HW2 7831   1.700   4.504   3.674
 1878SOL    HW3 7832   1.647   4.588   3.788
 1878SOL    MW4 7833   1.653   4.571   3.701
 1879SOL     OW 7834   0.695   5.313   1.904
 1879SOL    HW2 7835   0.635   5.382   1.874
 1879SOL    HW3 7836   0.640   5.255   1.957
 1879SOL    MW4 7837   0.679   5.315   1.906
 1880SOL     OW 7838   1.133   3.958   2.127
 1880SOL    HW2 7839   1.066   3.934   2.064
 1880SOL    HW3 7840   1.198   4.007   2.076
 1880SOL    MW4 7841   1.133   3.960   2.112
 1881SOL     OW 7842   0.940   4.142   3.212
 1881SOL    HW2 7843   0.859   4.183   3.240
 1881SOL    HW3 7844   0.987   4.210   3.164
 1881SOL    MW4 7845   0.935   4.157   3.210
 1882SOL     OW 7846   1.200   4.480   2.835
 1882SOL    HW2 7847   1.213   4.574   2.845
 1882SOL    HW3 7848   1.161   4.470   2.749
 1882SOL    MW4 7849   1.196   4.491   2.825
 1883SOL     OW 7850   0.652   4.675   2.639
 1883SOL    HW2 7851   0.563   4.666   2.672
 1883SOL    HW3 7852   0.656   4.765   2.607
 1883SOL    MW4 7853   0.641   4.686   2.639
 1884SOL     OW 7854   1.451   4.258   2.634
 1884SOL    HW2 7855   1.396   4.179   2.633
 1884SOL    HW3 7856   1.433   4.299   2.718
 1884SOL    MW4 7857   1.441   4.253   2.643
 1885SOL     OW 7858   0.422   3.945   3.451
 1885SOL    HW2 7859   0.343   3.963   3.503
 1885SOL    HW3 7860   0.417   4.007   3.378
 1885SOL    MW4 7861   0.412   3.955   3.448
 1886SOL     OW 7862   1.070   4.462   2.591
 1886SOL    HW2 7863   1.007   4.394   2.615
 1886SOL    HW3 7864   1.090   4.443   2.499
 1886SOL    MW4 7865   1.064   4.449   2.583
 1887SOL     OW 7866   0.326   5.357   2.293
 1887SOL    HW2 7867   0.287   5.404   2.219
 1887SOL    HW3 7868   0.260   5.292   2.318
 1887SOL    MW4 7869   0.313   5.355   2.287
 1888SOL     OW 7870   0.818   4.766   2.317
 1888SOL    HW2 7871   0.820   4.740   2.224
 1888SOL    HW3 7872   0.876   4.703   2.360
 1888SOL    MW4 7873   0.826   4.755   2.311
 1889SOL     OW 7874   1.371   5.326   3.089
 1889SOL    HW2 7875   1.296   5.372   3.127
 1889SOL    HW3 7876   1.353   5.233   3.106
 1889SOL    MW4 7877   1.360   5.320   3.097
 1890SOL     OW 7878   1.375   5.534   2.519
 1890SOL    HW2 7879   1.318   5.487   2.458
 1890SOL    HW3 7880   1.461   5.495   2.506
 1890SOL    MW4 7881   1.378   5.525   2.509
 1891SOL     OW 7882   1.328   4.010   2.650
 1891SOL    HW2 7883   1.356   3.942   2.711
 1891SOL    HW3 7884   1.242   3.981   2.620
 1891SOL    MW4 7885   1.321   3.997   2.654
 1892SOL     OW 7886   0.133   4.944   2.584
 1892SOL    HW2 7887   0.197   4.976   2.647
 1892SOL    HW3 7888   0.182   4.880   2.532
 1892SOL    MW4 7889   0.148   4.940   2.585
 1893SOL     OW 7890   0.633   5.020   3.566
 1893SOL    HW2 7891   0.681   5.103   3.553
 1893SOL    HW3 7892   0.690   4.968   3.622
 1893SOL    MW4 7893   0.647   5.024   3.572
 1894SOL     OW 7894   0.209   5.262   3.706
 1894SOL    HW2 7895   0.265   5.186   3.721
 1894SOL    HW3 7896   0.158   5.240   3.628
 1894SOL    MW4 7897   0.209   5.249   3.697
 1895SOL     OW 7898   1.308   4.114   1.985
 1895SOL    HW2 7899   1.281   4.180   1.921
 1895SOL    HW3 7900   1.378   4.157   2.035
 1895SOL    MW4 7901   1.313   4.127   1.982
 1896SOL     OW 7902   0.976   3.819   1.922
 1896SOL    HW2 7903   1.032   3.811   1.844
 1896SOL    HW3 7904   0.953   3.729   1.944
 1896SOL    MW4 7905   0.981   3.806   1.915
 1897SOL     OW 7906   1.481   4.670   2.127
 1897SOL    HW2 7907   1.448   4.759   2.117
 1897SOL    HW3 7908   1.446   4.641   2.212
 1897SOL    MW4 7909   1.471   4.679   2.138
 1898SOL     OW 7910   1.094   5.099   3.315
 1898SOL    HW2 7911   1.005   5.105   3.283
 1898SOL    HW3 7912   1.138   5.178   3.283
 1898SOL    MW4 7913   1.089   5.109   3.307
 1899SOL     OW 7914   0.387   3.767   3.657
 1899SOL    HW2 7915   0.315   3.732   3.605
 1899SOL    HW3 7916   0.445   3.808   3.592
 1899SOL    MW4 7917   0.385   3.768   3.642
 1900SOL     OW 7918   0.411   5.257   2.956
 1900SOL    HW2 7919   0.456   5.319   3.013
 1900SOL    HW3 7920   0.318   5.276   2.969
 1900SOL    MW4 7921   0.404   5.267   2.963
 1901SOL     OW 7922   1.851   4.786   3.310
 1901SOL    HW2 7923   1.766   4.799   3.269
 1901SOL    HW3 7924   1.831   4.750   3.397
 1901SOL    MW4 7925   1.838   4.782   3.315
 1902SOL     OW 7926   0.833   5.325   3.064
 1902SOL    HW2 7927   0.857   5.314   2.973
 1902SOL    HW3 7928   0.756   5.382   3.062
 1902SOL    MW4 7929   0.825   5.330   3.053
 1903SOL     OW 7930   0.475   4.708   1.919
 1903SOL    HW2 7931   0.398   4.721   1.975
 1903SOL    HW3 7932   0.439   4.672   1.838
 1903SOL    MW4 7933   0.461   4.704   1.916
 1904SOL     OW 7934   0.628   5.030   2.854
 1904SOL    HW2 7935   0.621   5.009   2.948
 1904SOL    HW3 7936   0.546   4.998   2.817
 1904SOL    MW4 7937   0.616   5.024   2.861
 1905SOL     OW 7938   1.492   4.040   3.256
 1905SOL    HW2 7939   1.439   4.042   3.336
 1905SOL    HW3 7940   1.477   3.953   3.219
 1905SOL    MW4 7941   1.484   4.030   3.261
 1906SOL     OW 7942   1.828   3.964   3.129
 1906SOL    HW2 7943   1.809   4.031   3.064
 1906SOL    HW3 7944   1.885   3.902   3.084
 1906SOL    MW4 7945   1.832   3.965   3.115
 1907SOL     OW 7946   0.074   5.122   3.517
 1907SOL    HW2 7947   0.118   5.055   3.463
 1907SOL    HW3 7948  -0.011   5.084   3.537
 1907SOL    MW4 7949   0.069   5.108   3.513
 1908SOL     OW 7950   0.757   3.797   2.569
 1908SOL    HW2 7951   0.686   3.858   2.551
 1908SOL    HW3 7952   0.808   3.794   2.488
 1908SOL    MW4 7953   0.753   3.803   2.556
 1909SOL     OW 7954   0.515   5.037   2.318
 1909SOL    HW2 7955   0.508   5.069   2.408
 1909SOL    HW3 7956   0.425   5.021   2.290
 1909SOL    MW4 7957   0.503   5.039   2.325
 1910SOL     OW 7958   1.110   5.430   3.227
 1910SOL    HW2 7959   1.030   5.415   3.177
 1910SOL    HW3 7960   1.117   5.525   3.234
 1910SOL    MW4 7961   1.101   5.441   3.221
 1911SOL     OW 7962   1.224   5.395   2.717
 1911SOL    HW2 7963   1.271   5.468   2.676
 1911SOL    HW3 7964   1.145   5.434   2.753
 1911SOL    MW4 7965   1.219   5.410   2.716
 1912SOL     OW 7966   1.632   5.490   2.992
 1912SOL    HW2 7967   1.675   5.460   3.072
 1912SOL    HW3 7968   1.551   5.438   2.989
 1912SOL    MW4 7969   1.627   5.479   3.002
 1913SOL     OW 7970   0.717   4.454   3.699
 1913SOL    HW2 7971   0.787   4.396   3.671
 1913SOL    HW3 7972   0.660   4.399   3.754
 1913SOL    MW4 7973   0.719   4.441   3.703
 1914SOL     OW 7974   1.504   4.666   3.332
 1914SOL    HW2 7975   1.509   4.719   3.412
 1914SOL    HW3 7976   1.466   4.583   3.360
 1914SOL    MW4 7977   1.500   4.661   3.347
 1915SOL     OW 7978   1.144   3.801   3.578
 1915SOL    HW2 7979   1.139   3.708   3.559
 1915SOL    HW3 7980   1.227   3.812   3.624
 1915SOL    MW4 7981   1.152   3.790   3.582
 1916SOL     OW 7982   0.518   4.321   2.032
 1916SOL    HW2 7983   0.484   4.377   2.102
 1916SOL    HW3 7984   0.589   4.271   2.072
 1916SOL    MW4 7985   0.524   4.322   2.046
 1917SOL     OW 7986   1.614   5.072   2.854
 1917SOL    HW2 7987   1.649   5.054   2.767
 1917SOL    HW3 7988   1.519   5.073   2.841
 1917SOL    MW4 7989   1.606   5.069   2.841
 1918SOL     OW 7990   1.043   4.720   3.223
 1918SOL    HW2 7991   1.086   4.755   3.301
 1918SOL    HW3 7992   1.026   4.797   3.169
 1918SOL    MW4 7993   1.046   4.735   3.226
 1919SOL     OW 7994   1.574   4.207   2.096
 1919SOL    HW2 7995   1.566   4.278   2.033
 1919SOL    HW3 7996   1.592   4.251   2.179
 1919SOL    MW4 7997   1.575   4.221   2.098
 1920SOL     OW 7998   0.434   3.862   2.525
 1920SOL    HW2 7999   0.484   3.905   2.456
 1920SOL    HW3 8000   0.349   3.906   2.525
 1920SOL    MW4 8001   0.431   3.875   2.516
 1921SOL     OW 8002   0.193   4.924   3.385
 1921SOL    HW2 8003   0.221   4.877   3.463
 1921SOL    HW3 8004   0.114   4.879   3.356
 1921SOL    MW4 8005   0.186   4.913   3.391
 1922SOL     OW 8006   0.701   4.251   3.352
 1922SOL    HW2 8007   0.673   4.339   3.376
 1922SOL    HW3 8008   0.670   4.195   3.423
 1922SOL    MW4 8009   0.693   4.254   3.364
 1923SOL     OW 8010   1.243   4.469   2.071
 1923SOL    HW2 8011   1.290   4.487   1.990
 1923SOL    HW3 8012   1.209   4.553   2.099
 1923SOL    MW4 8013   1.245   4.483   2.064
 1924SOL     OW 8014   0.356   4.647   2.565
 1924SOL    HW2 8015   0.414   4.703   2.513
 1924SOL    HW3 8016   0.400   4.562   2.567
 1924SOL    MW4 8017   0.369   4.644   2.558
 1925SOL     OW 8018   1.496   3.999   2.402
 1925SOL    HW2 8019   1.418   3.949   2.427
 1925SOL    HW3 8020   1.467   4.090   2.402
 1925SOL    MW4 8021   1.482   4.003   2.405
 1926SOL     OW 8022   1.082   3.961   2.561
 1926SOL    HW2 8023   1.102   4.036   2.505
 1926SOL    HW3 8024   1.062   4.000   2.646
 1926SOL    MW4 8025   1.083   3.977   2.565
 1927SOL     OW 8026   0.978   5.211   1.893
 1927SOL    HW2 8027   1.005   5.289   1.845
 1927SOL    HW3 8028   0.885   5.226   1.912
 1927SOL    MW4 8029   0.969   5.224   1.889
 1928SOL     OW 8030   1.842   4.734   3.580
 1928SOL    HW2 8031   1.755   4.714   3.616
 1928SOL    HW3 8032   1.896   4.660   3.605
 1928SOL    MW4 8033   1.837   4.723   3.588
 1929SOL     OW 8034   0.063   5.247   2.737
 1929SOL    HW2 8035   0.095   5.251   2.828
 1929SOL    HW3 8036  -0.032   5.255   2.745
 1929SOL    MW4 8037   0.055   5.250   2.750
 1930SOL     OW 8038   0.018   4.373   2.284
 1930SOL    HW2 8039  -0.042   4.345   2.354
 1930SOL    HW3 8040   0.092   4.313   2.290
 1930SOL    MW4 8041   0.020   4.362   2.293
 1931SOL     OW 8042   1.586   5.585   3.718
 1931SOL    HW2 8043   1.631   5.509   3.683
 1931SOL    HW3 8044   1.624   5.598   3.805
 1931SOL    MW4 8045   1.596   5.578   3.724
 1932SOL     OW 8046   1.186   5.104   2.444
 1932SOL    HW2 8047   1.209   5.055   2.522
 1932SOL    HW3 8048   1.267   5.146   2.416
 1932SOL    MW4 8049   1.199   5.104   2.451
 1933SOL     OW 8050   0.444   4.112   3.173
 1933SOL    HW2 8051   0.477   4.193   3.213
 1933SOL    HW3 8052   0.417   4.138   3.085
 1933SOL    MW4 8053   0.443   4.126   3.167
 1934SOL     OW 8054   0.398   4.079   2.909
 1934SOL    HW2 8055   0.428   3.993   2.880
 1934SOL    HW3 8056   0.303   4.072   2.912
 1934SOL    MW4 8057   0.390   4.068   2.907
 1935SOL     OW 8058   1.227   4.288   3.600
 1935SOL    HW2 8059   1.279   4.223   3.553
 1935SOL    HW3 8060   1.185   4.339   3.530
 1935SOL    MW4 8061   1.228   4.285   3.583
 1936SOL     OW 8062   1.326   4.083   3.461
 1936SOL    HW2 8063   1.233   4.067   3.448
 1936SOL    HW3 8064   1.352   4.021   3.529
 1936SOL    MW4 8065   1.316   4.073   3.468
 1937SOL     OW 8066   0.541   3.857   2.800
 1937SOL    HW2 8067   0.551   3.766   2.826
 1937SOL    HW3 8068   0.497   3.853   2.715
 1937SOL    MW4 8069   0.537   3.845   2.792
 1938SOL     OW 8070   0.635   5.472   3.346
 1938SOL    HW2 8071   0.552   5.457   3.391
 1938SOL    HW3 8072   0.694   5.405   3.381
 1938SOL    MW4 8073   0.633   5.462   3.356
 1939SOL     OW 8074   1.692   4.179   2.971
 1939SOL    HW2 8075   1.625   4.212   3.031
 1939SOL    HW3 8076   1.735   4.257   2.937
 1939SOL    MW4 8077   1.690   4.194   2.975
 1940SOL     OW 8078   1.870   4.899   2.941
 1940SOL    HW2 8079   1.863   4.839   2.866
 1940SOL    HW3 8080   1.796   4.959   2.930
 1940SOL    MW4 8081   1.860   4.899   2.930
 1941SOL     OW 8082   1.252   4.761   2.859
 1941SOL    HW2 8083   1.266   4.733   2.950
 1941SOL    HW3 8084   1.338   4.792   2.831
 1941SOL    MW4 8085   1.265   4.762   2.868
 1942SOL     OW 8086   1.335   4.256   3.138
 1942SOL    HW2 8087   1.356   4.257   3.045
 1942SOL    HW3 8088   1.380   4.178   3.171
 1942SOL    MW4 8089   1.342   4.246   3.130
 1943SOL     OW 8090   1.828   4.387   3.680
 1943SOL    HW2 8091   1.865   4.332   3.749
 1943SOL    HW3 8092   1.853   4.344   3.598
 1943SOL    MW4 8093   1.835   4.375   3.679
 1944SOL     OW 8094   1.375   4.685   3.731
 1944SOL    HW2 8095   1.441   4.633   3.685
 1944SOL    HW3 8096   1.395   4.672   3.824
 1944SOL    MW4 8097   1.386   4.676   3.738
 1945SOL     OW 8098   1.326   3.771   2.080
 1945SOL    HW2 8099   1.400   3.815   2.123
 1945SOL    HW3 8100   1.250   3.825   2.102
 1945SOL    MW4 8101   1.326   3.783   2.088
 1946SOL     OW 8102   1.386   4.546   2.358
 1946SOL    HW2 8103   1.301   4.516   2.328
 1946SOL    HW3 8104   1.378   4.553   2.453
 1946SOL    MW4 8105   1.374   4.544   2.367
 1947SOL     OW 8106   0.462   5.009   3.089
 1947SOL    HW2 8107   0.474   5.036   3.180
 1947SOL    HW3 8108   0.443   5.090   3.042
 1947SOL    MW4 8109   0.461   5.024   3.094
 1948SOL     OW 8110   0.746   3.989   2.912
 1948SOL    HW2 8111   0.719   3.991   3.003
 1948SOL    HW3 8112   0.676   3.941   2.867
 1948SOL    MW4 8113   0.734   3.985   2.919
 1949SOL     OW 8114   0.600   5.481   3.074
 1949SOL    HW2 8115   0.652   5.558   3.051
 1949SOL    HW3 8116   0.609   5.473   3.169
 1949SOL    MW4 8117   0.609   5.488   3.085
 1950SOL     OW 8118   1.502   5.066   3.306
 1950SOL    HW2 8119   1.487   4.995   3.369
 1950SOL    HW3 8120   1.548   5.024   3.234
 1950SOL    MW4 8121   1.508   5.050   3.306
 1951SOL     OW 8122   0.576   4.797   3.423
 1951SOL    HW2 8123   0.613   4.802   3.335
 1951SOL    HW3 8124   0.615   4.870   3.470
 1951SOL    MW4 8125   0.586   4.807   3.418
 1952SOL     OW 8126   0.756   4.840   3.235
 1952SOL    HW2 8127   0.815   4.786   3.288
 1952SOL    HW3 8128   0.771   4.812   3.145
 1952SOL    MW4 8129   0.766   4.829   3.231
 1953SOL     OW 8130   0.759   4.212   2.084
 1953SOL    HW2 8131   0.832   4.261   2.047
 1953SOL    HW3 8132   0.775   4.121   2.058
 1953SOL    MW4 8133   0.771   4.207   2.077
 1954SOL     OW 8134   1.567   5.329   3.407
 1954SOL    HW2 8135   1.609   5.314   3.492
 1954SOL    HW3 8136   1.558   5.242   3.369
 1954SOL    MW4 8137   1.571   5.317   3.414
 1955SOL     OW 8138   1.227   3.808   2.998
 1955SOL    HW2 8139   1.282   3.817   2.920
 1955SOL    HW3 8140   1.282   3.842   3.069
 1955SOL    MW4 8141   1.241   3.813   2.997
 1956SOL     OW 8142   0.234   4.721   2.182
 1956SOL    HW2 8143   0.171   4.737   2.111
 1956SOL    HW3 8144   0.181   4.684   2.253
 1956SOL    MW4 8145   0.219   4.718   2.182
 1957SOL     OW 8146   0.590   5.075   2.041
 1957SOL    HW2 8147   0.605   5.051   2.133
 1957SOL    HW3 8148   0.498   5.053   2.025
 1957SOL    MW4 8149   0.580   5.068   2.051
 1958SOL     OW 8150   1.129   5.306   2.193
 1958SOL    HW2 8151   1.137   5.224   2.144
 1958SOL    HW3 8152   1.048   5.345   2.160
 1958SOL    MW4 8153   1.119   5.301   2.183
 1959SOL     OW 8154   0.388   5.464   2.762
 1959SOL    HW2 8155   0.392   5.375   2.797
 1959SOL    HW3 8156   0.414   5.455   2.671
 1959SOL    MW4 8157   0.391   5.452   2.754
 1960SOL     OW 8158   1.005   4.942   3.005
 1960SOL    HW2 8159   0.937   4.876   3.021
 1960SOL    HW3 8160   1.023   4.936   2.912
 1960SOL    MW4 8161   0.998   4.933   2.996
 1961SOL     OW 8162   0.094   5.217   3.256
 1961SOL    HW2 8163   0.084   5.175   3.342
 1961SOL    HW3 8164   0.015   5.270   3.246
 1961SOL    MW4 8165   0.083   5.218   3.267
 1962SOL     OW 8166   0.998   4.081   2.826
 1962SOL    HW2 8167   0.928   4.033   2.871
 1962SOL    HW3 8168   1.030   4.144   2.890
 1962SOL    MW4 8169   0.993   4.083   2.840
 1963SOL     OW 8170   0.649   4.517   3.446
 1963SOL    HW2 8171   0.642   4.612   3.434
 1963SOL    HW3 8172   0.658   4.506   3.541
 1963SOL    MW4 8173   0.650   4.529   3.456
 1964SOL     OW 8174   0.370   5.032   3.704
 1964SOL    HW2 8175   0.442   5.034   3.641
 1964SOL    HW3 8176   0.340   4.941   3.703
 1964SOL    MW4 8177   0.375   5.021   3.696
 1965SOL     OW 8178   1.454   3.795   3.171
 1965SOL    HW2 8179   1.525   3.741   3.135
 1965SOL    HW3 8180   1.453   3.774   3.264
 1965SOL    MW4 8181   1.463   3.786   3.179
 1966SOL     OW 8182   1.654   5.325   3.655
 1966SOL    HW2 8183   1.627   5.322   3.746
 1966SOL    HW3 8184   1.750   5.329   3.658
 1966SOL    MW4 8185   1.664   5.325   3.667
 1967SOL     OW 8186   0.465   4.187   2.639
 1967SOL    HW2 8187   0.536   4.135   2.602
 1967SOL    HW3 8188   0.451   4.152   2.726
 1967SOL    MW4 8189   0.473   4.176   2.646
 1968SOL     OW 8190   0.020   5.522   3.711
 1968SOL    HW2 8191   0.070   5.500   3.633
 1968SOL    HW3 8192   0.028   5.617   3.719
 1968SOL    MW4 8193   0.028   5.531   3.702
 1969SOL     OW 8194   0.781   5.280   2.715
 1969SOL    HW2 8195   0.709   5.217   2.728
 1969SOL    HW3 8196   0.742   5.365   2.733
 1969SOL    MW4 8197   0.765   5.283   2.718
 1970SOL     OW 8198   1.101   4.128   2.363
 1970SOL    HW2 8199   1.123   4.065   2.295
 1970SOL    HW3 8200   1.006   4.120   2.374
 1970SOL    MW4 8201   1.091   4.119   2.355
 1971SOL     OW 8202   0.186   3.818   2.295
 1971SOL    HW2 8203   0.257   3.839   2.234
 1971SOL    HW3 8204   0.140   3.746   2.253
 1971SOL    MW4 8205   0.190   3.812   2.281
 1972SOL     OW 8206   0.017   4.285   3.438
 1972SOL    HW2 8207   0.081   4.351   3.413
 1972SOL    HW3 8208  -0.064   4.312   3.395
 1972SOL    MW4 8209   0.015   4.297   3.430
 1973SOL     OW 8210   1.755   5.192   2.395
 1973SOL    HW2 8211   1.725   5.125   2.456
 1973SOL    HW3 8212   1.849   5.198   2.409
 1973SOL    MW4 8213   1.763   5.184   2.405
 1974SOL     OW 8214   1.311   4.869   2.325
 1974SOL    HW2 8215   1.283   4.955   2.358
 1974SOL    HW3 8216   1.339   4.885   2.235
 1974SOL    MW4 8217   1.311   4.883   2.317
 1975SOL     OW 8218   0.973   3.789   2.378
 1975SOL    HW2 8219   1.010   3.848   2.443
 1975SOL    HW3 8220   0.950   3.845   2.304
 1975SOL    MW4 8221   0.974   3.804   2.377
 1976SOL     OW 8222   1.826   4.671   2.800
 1976SOL    HW2 8223   1.817   4.703   2.711
 1976SOL    HW3 8224   1.779   4.587   2.800
 1976SOL    MW4 8225   1.819   4.664   2.790
 1977SOL     OW 8226   0.202   4.511   3.379
 1977SOL    HW2 8227   0.223   4.580   3.317
 1977SOL    HW3 8228   0.282   4.458   3.384
 1977SOL    MW4 8229   0.215   4.512   3.373
 1978SOL     OW 8230   1.738   4.602   2.501
 1978SOL    HW2 8231   1.832   4.591   2.489
 1978SOL    HW3 8232   1.714   4.674   2.442
 1978SOL    MW4 8233   1.748   4.610   2.492
 1979SOL     OW 8234   0.187   4.526   3.646
 1979SOL    HW2 8235   0.113   4.470   3.672
 1979SOL    HW3 8236   0.182   4.529   3.551
 1979SOL    MW4 8237   0.176   4.519   3.636
 1980SOL     OW 8238   1.170   4.339   3.338
 1980SOL    HW2 8239   1.206   4.312   3.254
 1980SOL    HW3 8240   1.083   4.373   3.317
 1980SOL    MW4 8241   1.164   4.340   3.325
 1981SOL     OW 8242   0.153   4.211   2.563
 1981SOL    HW2 8243   0.215   4.218   2.636
 1981SOL    HW3 8244   0.153   4.118   2.540
 1981SOL    MW4 8245   0.161   4.200   2.570
 1982SOL     OW 8246   1.700   5.551   2.095
 1982SOL    HW2 8247   1.767   5.584   2.035
 1982SOL    HW3 8248   1.657   5.630   2.129
 1982SOL    MW4 8249   1.702   5.566   2.091
 1983SOL     OW 8250   0.835   4.472   3.047
 1983SOL    HW2 8251   0.793   4.390   3.023
 1983SOL    HW3 8252   0.836   4.471   3.143
 1983SOL    MW4 8253   0.828   4.461   3.056
 1984SOL     OW 8254   1.506   5.605   3.446
 1984SOL    HW2 8255   1.509   5.511   3.429
 1984SOL    HW3 8256   1.529   5.613   3.538
 1984SOL    MW4 8257   1.509   5.593   3.456
 1985SOL     OW 8258   0.639   3.942   3.152
 1985SOL    HW2 8259   0.570   4.005   3.173
 1985SOL    HW3 8260   0.666   3.906   3.237
 1985SOL    MW4 8261   0.633   3.945   3.165
 1986SOL     OW 8262   0.022   4.783   2.021
 1986SOL    HW2 8263  -0.009   4.848   2.084
 1986SOL    HW3 8264  -0.029   4.705   2.040
 1986SOL    MW4 8265   0.012   4.780   2.031
 1987SOL     OW 8266   1.434   3.795   2.769
 1987SOL    HW2 8267   1.522   3.804   2.806
 1987SOL    HW3 8268   1.444   3.736   2.695
 1987SOL    MW4 8269   1.448   3.789   2.763
 1988SOL     OW 8270   1.466   4.534   2.613
 1988SOL    HW2 8271   1.546   4.549   2.562
 1988SOL    HW3 8272   1.459   4.439   2.619
 1988SOL    MW4 8273   1.475   4.523   2.608
 1989SOL     OW 8274   0.606   5.583   1.963
 1989SOL    HW2 8275   0.511   5.583   1.955
 1989SOL    HW3 8276   0.622   5.529   2.041
 1989SOL    MW4 8277   0.596   5.577   1.972
 1990SOL     OW 8278   0.916   4.460   3.310
 1990SOL    HW2 8279   0.985   4.527   3.307
 1990SOL    HW3 8280   0.849   4.498   3.366
 1990SOL    MW4 8281   0.917   4.473   3.317
 1991SOL     OW 8282   0.334   4.760   3.558
 1991SOL    HW2 8283   0.288   4.676   3.560
 1991SOL    HW3 8284   0.391   4.754   3.482
 1991SOL    MW4 8285   0.336   4.748   3.550
 1992SOL     OW 8286   1.451   4.403   1.879
 1992SOL    HW2 8287   1.379   4.379   1.821
 1992SOL    HW3 8288   1.517   4.440   1.821
 1992SOL    MW4 8289   1.450   4.405   1.864
 1993SOL     OW 8290   0.585   5.135   2.559
 1993SOL    HW2 8291   0.650   5.068   2.580
 1993SOL    HW3 8292   0.637   5.212   2.536
 1993SOL    MW4 8293   0.600   5.137   2.558
 1994SOL     OW 8294   0.846   4.300   2.689
 1994SOL    HW2 8295   0.786   4.318   2.761
 1994SOL    HW3 8296   0.880   4.212   2.708
 1994SOL    MW4 8297   0.842   4.290   2.702
 1995SOL     OW 8298   1.787   3.799   3.358
 1995SOL    HW2 8299   1.708   3.845   3.386
 1995SOL    HW3 8300   1.822   3.853   3.287
 1995SOL    MW4 8301   1.781   3.812   3.352
 1996SOL     OW 8302   1.071   4.883   2.708
 1996SOL    HW2 8303   1.163   4.864   2.726
 1996SOL    HW3 8304   1.044   4.813   2.648
 1996SOL    MW4 8305   1.079   4.871   2.702
 1997SOL     OW 8306   0.864   4.703   2.063
 1997SOL    HW2 8307   0.850   4.615   2.028
 1997SOL    HW3 8308   0.815   4.760   2.004
 1997SOL    MW4 8309   0.856   4.698   2.051
 1998SOL     OW 8310   1.345   5.121   2.804
 1998SOL    HW2 8311   1.318   5.205   2.769
 1998SOL    HW3 8312   1.305   5.116   2.891
 1998SOL    MW4 8313   1.338   5.130   2.810
 1999SOL     OW 8314   1.264   5.069   3.072
 1999SOL    HW2 8315   1.275   5.036   3.161
 1999SOL    HW3 8316   1.183   5.028   3.041
 1999SOL    MW4 8317   1.254   5.061   3.078
 2000SOL     OW 8318   0.277   4.427   2.842
 2000SOL    HW2 8319   0.227   4.426   2.923
 2000SOL    HW3 8320   0.297   4.519   2.826
 2000SOL    MW4 8321   0.273   4.439   2.850
 2001SOL     OW 8322   1.344   5.191   3.604
 2001SOL    HW2 8323   1.344   5.285   3.620
 2001SOL    HW3 8324   1.389   5.181   3.520
 2001SOL    MW4 8325   1.350   5.201   3.595
 2002SOL     OW 8326   1.583   3.909   2.165
 2002SOL    HW2 8327   1.576   3.913   2.260
 2002SOL    HW3 8328   1.595   4.000   2.138
 2002SOL    MW4 8329   1.584   3.922   2.173
 2003SOL     OW 8330   0.872   4.472   2.279
 2003SOL    HW2 8331   0.852   4.458   2.186
 2003SOL    HW3 8332   0.965   4.451   2.286
 2003SOL    MW4 8333   0.882   4.467   2.268
 2004SOL     OW 8334   0.199   4.095   3.583
 2004SOL    HW2 8335   0.156   4.154   3.520
 2004SOL    HW3 8336   0.267   4.150   3.623
 2004SOL    MW4 8337   0.203   4.110   3.580
 2005SOL     OW 8338   1.311   4.715   3.128
 2005SOL    HW2 8339   1.374   4.712   3.201
 2005SOL    HW3 8340   1.227   4.733   3.170
 2005SOL    MW4 8341   1.307   4.717   3.143
 2006SOL     OW 8342   0.855   5.430   2.317
 2006SOL    HW2 8343   0.913   5.501   2.344
 2006SOL    HW3 8344   0.878   5.358   2.375
 2006SOL    MW4 8345   0.866   5.430   2.328
 2007SOL     OW 8346   1.650   3.892   2.907
 2007SOL    HW2 8347   1.695   3.810   2.926
 2007SOL    HW3 8348   1.670   3.948   2.983
 2007SOL    MW4 8349   1.660   3.888   2.919
 2008SOL     OW 8350   0.098   3.735   3.006
 2008SOL    HW2 8351   0.089   3.736   2.911
 2008SOL    HW3 8352   0.192   3.747   3.021
 2008SOL    MW4 8353   0.110   3.738   2.997
 2009SOL     OW 8354   1.735   4.928   2.626
 2009SOL    HW2 8355   1.714   4.874   2.549
 2009SOL    HW3 8356   1.831   4.926   2.630
 2009SOL    MW4 8357   1.744   4.921   2.615
 2010SOL     OW 8358   0.427   5.073   3.369
 2010SOL    HW2 8359   0.348   5.023   3.392
 2010SOL    HW3 8360   0.497   5.032   3.419
 2010SOL    MW4 8361   0.425   5.061   3.379
 2011SOL     OW 8362   0.311   3.862   2.052
 2011SOL    HW2 8363   0.240   3.917   2.020
 2011SOL    HW3 8364   0.353   3.828   1.973
 2011SOL    MW4 8365   0.307   3.864   2.038
 2012SOL     OW 8366   1.435   4.359   2.888
 2012SOL    HW2 8367   1.358   4.405   2.854
 2012SOL    HW3 8368   1.492   4.428   2.922
 2012SOL    MW4 8369   1.432   4.374   2.888
 2013SOL     OW 8370   0.067   3.961   1.901
 2013SOL    HW2 8371   0.034   4.040   1.945
 2013SOL    HW3 8372   0.122   3.994   1.830
 2013SOL    MW4 8373   0.070   3.975   1.898
 2014SOL     OW 8374   0.101   5.218   2.090
 2014SOL    HW2 8375   0.118   5.302   2.132
 2014SOL    HW3 8376   0.136   5.227   2.002
 2014SOL    MW4 8377   0.106   5.231   2.084
 2015SOL     OW 8378   1.373   5.307   2.307
 2015SOL    HW2 8379   1.436   5.297   2.236
 2015SOL    HW3 8380   1.290   5.327   2.262
 2015SOL    MW4 8381   1.370   5.308   2.292
 2016SOL     OW 8382   1.736   4.575   3.993
 2016SOL    HW2 8383   1.777   4.517   4.058
 2016SOL    HW3 8384   1.643   4.567   4.010
 2016SOL    MW4 8385   1.730   4.567   4.003
 2017SOL     OW 8386   1.602   4.507   4.988
 2017SOL    HW2 8387   1.557   4.574   5.039
 2017SOL    HW3 8388   1.690   4.543   4.974
 2017SOL    MW4 8389   1.608   4.520   4.992
 2018SOL     OW 8390   0.530   4.758   4.222
 2018SOL    HW2 8391   0.620   4.733   4.206
 2018SOL    HW3 8392   0.526   4.851   4.199
 2018SOL    MW4 8393   0.542   4.767   4.217
 2019SOL     OW 8394   1.646   5.461   4.364
 2019SOL    HW2 8395   1.658   5.407   4.442
 2019SOL    HW3 8396   1.683   5.409   4.293
 2019SOL    MW4 8397   1.652   5.446   4.365
 2020SOL     OW 8398   1.025   5.346   5.365
 2020SOL    HW2 8399   1.066   5.382   5.286
 2020SOL    HW3 8400   1.060   5.257   5.372
 2020SOL    MW4 8401   1.036   5.339   5.356
 2021SOL     OW 8402   1.582   4.901   4.969
 2021SOL    HW2 8403   1.503   4.866   4.927
 2021SOL    HW3 8404   1.609   4.973   4.913
 2021SOL    MW4 8405   1.575   4.906   4.956
 2022SOL     OW 8406   0.814   4.214   4.235
 2022SOL    HW2 8407   0.789   4.302   4.263
 2022SOL    HW3 8408   0.811   4.217   4.139
 2022SOL    MW4 8409   0.810   4.226   4.227
 2023SOL     OW 8410   0.256   4.242   4.163
 2023SOL    HW2 8411   0.288   4.330   4.145
 2023SOL    HW3 8412   0.244   4.240   4.258
 2023SOL    MW4 8413   0.259   4.254   4.175
 2024SOL     OW 8414   0.334   4.655   5.064
 2024SOL    HW2 8415   0.397   4.602   5.015
 2024SOL    HW3 8416   0.315   4.729   5.007
 2024SOL    MW4 8417   0.340   4.657   5.051
 2025SOL     OW 8418   0.655   3.997   4.250
 2025SOL    HW2 8419   0.713   4.073   4.252
 2025SOL    HW3 8420   0.590   4.018   4.183
 2025SOL    MW4 8421   0.654   4.009   4.241
 2026SOL     OW 8422   0.742   4.924   4.425
 2026SOL    HW2 8423   0.822   4.927   4.477
 2026SOL    HW3 8424   0.770   4.891   4.339
 2026SOL    MW4 8425   0.756   4.920   4.420
 2027SOL     OW 8426   0.767   5.265   5.328
 2027SOL    HW2 8427   0.851   5.291   5.367
 2027SOL    HW3 8428   0.791   5.209   5.254
 2027SOL    MW4 8429   0.781   5.261   5.323
 2028SOL     OW 8430   0.519   4.428   4.416
 2028SOL    HW2 8431   0.504   4.348   4.467
 2028SOL    HW3 8432   0.601   4.463   4.450
 2028SOL    MW4 8433   0.527   4.420   4.428
 2029SOL     OW 8434   0.856   5.114   5.101
 2029SOL    HW2 8435   0.820   5.180   5.041
 2029SOL    HW3 8436   0.784   5.052   5.114
 2029SOL    MW4 8437   0.842   5.114   5.095
 2030SOL     OW 8438   0.661   4.254   4.793
 2030SOL    HW2 8439   0.567   4.250   4.811
 2030SOL    HW3 8440   0.691   4.163   4.802
 2030SOL    MW4 8441   0.652   4.242   4.796
 2031SOL     OW 8442   0.407   4.668   4.697
 2031SOL    HW2 8443   0.362   4.675   4.613
 2031SOL    HW3 8444   0.387   4.751   4.741
 2031SOL    MW4 8445   0.399   4.680   4.691
 2032SOL     OW 8446   0.104   5.514   4.572
 2032SOL    HW2 8447   0.193   5.506   4.607
 2032SOL    HW3 8448   0.068   5.426   4.577
 2032SOL    MW4 8449   0.111   5.501   4.577
 2033SOL     OW 8450   1.369   4.906   3.941
 2033SOL    HW2 8451   1.287   4.942   3.907
 2033SOL    HW3 8452   1.437   4.949   3.890
 2033SOL    MW4 8453   1.367   4.916   3.929
 2034SOL     OW 8454   0.368   5.041   4.607
 2034SOL    HW2 8455   0.344   5.094   4.683
 2034SOL    HW3 8456   0.424   5.099   4.555
 2034SOL    MW4 8457   0.372   5.056   4.610
 2035SOL     OW 8458   0.930   4.685   4.417
 2035SOL    HW2 8459   0.844   4.672   4.457
 2035SOL    HW3 8460   0.983   4.612   4.449
 2035SOL    MW4 8461   0.926   4.674   4.426
 2036SOL     OW 8462   0.338   5.337   5.202
 2036SOL    HW2 8463   0.246   5.313   5.187
 2036SOL    HW3 8464   0.382   5.254   5.219
 2036SOL    MW4 8465   0.332   5.322   5.201
 2037SOL     OW 8466   0.921   5.047   4.134
 2037SOL    HW2 8467   0.898   5.109   4.202
 2037SOL    HW3 8468   0.878   4.965   4.160
 2037SOL    MW4 8469   0.913   5.043   4.145
 2038SOL     OW 8470   1.794   4.048   4.590
 2038SOL    HW2 8471   1.731   4.028   4.659
 2038SOL    HW3 8472   1.784   3.977   4.527
 2038SOL    MW4 8473   1.784   4.035   4.591
 2039SOL     OW 8474   0.418   4.020   4.102
 2039SOL    HW2 8475   0.392   3.982   4.018
 2039SOL    HW3 8476   0.355   4.090   4.118
 2039SOL    MW4 8477   0.407   4.023   4.093
 2040SOL     OW 8478   0.253   4.981   4.139
 2040SOL    HW2 8479   0.201   5.049   4.095
 2040SOL    HW3 8480   0.250   4.907   4.079
 2040SOL    MW4 8481   0.245   4.980   4.126
 2041SOL     OW 8482   0.915   5.444   3.917
 2041SOL    HW2 8483   0.870   5.460   4.000
 2041SOL    HW3 8484   0.846   5.409   3.859
 2041SOL    MW4 8485   0.901   5.441   3.919
 2042SOL     OW 8486   1.850   4.217   3.892
 2042SOL    HW2 8487   1.759   4.219   3.920
 2042SOL    HW3 8488   1.895   4.279   3.950
 2042SOL    MW4 8489   1.843   4.225   3.902
 2043SOL     OW 8490   1.595   4.820   4.242
 2043SOL    HW2 8491   1.505   4.820   4.277
 2043SOL    HW3 8492   1.588   4.866   4.159
 2043SOL    MW4 8493   1.582   4.826   4.236
 2044SOL     OW 8494   1.395   4.455   5.314
 2044SOL    HW2 8495   1.464   4.393   5.291
 2044SOL    HW3 8496   1.320   4.429   5.261
 2044SOL    MW4 8497   1.395   4.442   5.305
 2045SOL     OW 8498   0.136   5.335   4.866
 2045SOL    HW2 8499   0.119   5.281   4.943
 2045SOL    HW3 8500   0.124   5.425   4.896
 2045SOL    MW4 8501   0.133   5.339   4.880
 2046SOL     OW 8502   1.131   4.842   5.306
 2046SOL    HW2 8503   1.116   4.935   5.291
 2046SOL    HW3 8504   1.226   4.832   5.306
 2046SOL    MW4 8505   1.140   4.852   5.303
 2047SOL     OW 8506   0.927   4.266   5.507
 2047SOL    HW2 8507   1.017   4.267   5.474
 2047SOL    HW3 8508   0.886   4.191   5.465
 2047SOL    MW4 8509   0.933   4.256   5.498
 2048SOL     OW 8510   1.502   4.798   4.634
 2048SOL    HW2 8511   1.505   4.732   4.565
 2048SOL    HW3 8512   1.587   4.841   4.630
 2048SOL    MW4 8513   1.514   4.794   4.625
 2049SOL     OW 8514   1.122   4.401   4.203
 2049SOL    HW2 8515   1.148   4.425   4.114
 2049SOL    HW3 8516   1.104   4.308   4.199
 2049SOL    MW4 8517   1.124   4.393   4.190
 2050SOL     OW 8518   1.787   5.021   4.054
 2050SOL    HW2 8519   1.743   5.062   4.129
 2050SOL    HW3 8520   1.844   5.089   4.019
 2050SOL    MW4 8521   1.789   5.035   4.059
 2051SOL     OW 8522   0.707   4.070   5.457
 2051SOL    HW2 8523   0.717   3.996   5.397
 2051SOL    HW3 8524   0.743   4.039   5.540
 2051SOL    MW4 8525   0.713   4.056   5.459
 2052SOL     OW 8526   0.443   5.437   4.372
 2052SOL    HW2 8527   0.475   5.525   4.350
 2052SOL    HW3 8528   0.396   5.409   4.294
 2052SOL    MW4 8529   0.442   5.445   4.359
 2053SOL     OW 8530   1.827   3.799   4.421
 2053SOL    HW2 8531   1.881   3.750   4.483
 2053SOL    HW3 8532   1.770   3.733   4.382
 2053SOL    MW4 8533   1.827   3.783   4.423
 2054SOL     OW 8534   0.159   5.497   3.949
 2054SOL    HW2 8535   0.188   5.587   3.941
 2054SOL    HW3 8536   0.109   5.480   3.870
 2054SOL    MW4 8537   0.157   5.505   3.938
 2055SOL     OW 8538   0.946   3.752   4.834
 2055SOL    HW2 8539   0.905   3.830   4.796
 2055SOL    HW3 8540   1.040   3.770   4.829
 2055SOL    MW4 8541   0.952   3.764   4.829
 2056SOL     OW 8542   1.563   5.305   3.920
 2056SOL    HW2 8543   1.611   5.374   3.966
 2056SOL    HW3 8544   1.484   5.349   3.889
 2056SOL    MW4 8545   1.558   5.319   3.923
 2057SOL     OW 8546   0.961   4.430   3.864
 2057SOL    HW2 8547   0.963   4.377   3.785
 2057SOL    HW3 8548   1.049   4.467   3.870
 2057SOL    MW4 8549   0.973   4.429   3.853
 2058SOL     OW 8550   1.575   4.356   4.200
 2058SOL    HW2 8551   1.614   4.356   4.287
 2058SOL    HW3 8552   1.516   4.432   4.200
 2058SOL    MW4 8553   1.572   4.367   4.211
 2059SOL     OW 8554   0.892   4.723   5.329
 2059SOL    HW2 8555   0.869   4.703   5.419
 2059SOL    HW3 8556   0.977   4.767   5.334
 2059SOL    MW4 8557   0.899   4.726   5.341
 2060SOL     OW 8558   0.972   3.860   5.089
 2060SOL    HW2 8559   0.978   3.822   5.002
 2060SOL    HW3 8560   0.961   3.954   5.074
 2060SOL    MW4 8561   0.973   3.868   5.077
 2061SOL     OW 8562   1.061   4.349   4.923
 2061SOL    HW2 8563   1.136   4.378   4.870
 2061SOL    HW3 8564   0.993   4.414   4.907
 2061SOL    MW4 8565   1.062   4.361   4.913
 2062SOL     OW 8566   1.611   4.317   5.200
 2062SOL    HW2 8567   1.592   4.226   5.179
 2062SOL    HW3 8568   1.589   4.366   5.121
 2062SOL    MW4 8569   1.606   4.310   5.187
 2063SOL     OW 8570   1.753   5.411   5.104
 2063SOL    HW2 8571   1.681   5.373   5.155
 2063SOL    HW3 8572   1.770   5.496   5.145
 2063SOL    MW4 8573   1.747   5.416   5.116
 2064SOL     OW 8574   1.058   4.055   5.306
 2064SOL    HW2 8575   1.024   4.094   5.225
 2064SOL    HW3 8576   1.036   3.963   5.299
 2064SOL    MW4 8577   1.051   4.048   5.296
 2065SOL     OW 8578   1.467   4.869   5.382
 2065SOL    HW2 8579   1.549   4.910   5.412
 2065SOL    HW3 8580   1.430   4.831   5.462
 2065SOL    MW4 8581   1.473   4.870   5.397
 2066SOL     OW 8582   1.762   4.242   4.366
 2066SOL    HW2 8583   1.851   4.211   4.383
 2066SOL    HW3 8584   1.705   4.182   4.414
 2066SOL    MW4 8585   1.765   4.230   4.375
 2067SOL     OW 8586   0.188   3.956   4.395
 2067SOL    HW2 8587   0.179   3.896   4.321
 2067SOL    HW3 8588   0.121   3.927   4.458
 2067SOL    MW4 8589   0.178   3.943   4.393
 2068SOL     OW 8590   1.131   5.049   3.956
 2068SOL    HW2 8591   1.081   5.051   4.038
 2068SOL    HW3 8592   1.065   5.067   3.888
 2068SOL    MW4 8593   1.117   5.051   3.958
 2069SOL     OW 8594   0.135   4.129   4.758
 2069SOL    HW2 8595   0.107   4.220   4.767
 2069SOL    HW3 8596   0.072   4.090   4.697
 2069SOL    MW4 8597   0.122   4.135   4.752
 2070SOL     OW 8598   1.722   4.987   5.461
 2070SOL    HW2 8599   1.772   4.913   5.493
 2070SOL    HW3 8600   1.668   5.014   5.536
 2070SOL    MW4 8601   1.722   4.981   5.474
 2071SOL     OW 8602   0.730   4.882   3.771
 2071SOL    HW2 8603   0.652   4.828   3.758
 2071SOL    HW3 8604   0.701   4.955   3.824
 2071SOL    MW4 8605   0.716   4.884   3.776
 2072SOL     OW 8606   1.856   4.622   4.963
 2072SOL    HW2 8607   1.872   4.660   4.876
 2072SOL    HW3 8608   1.890   4.688   5.024
 2072SOL    MW4 8609   1.863   4.635   4.959
 2073SOL     OW 8610   1.648   5.331   4.632
 2073SOL    HW2 8611   1.677   5.398   4.693
 2073SOL    HW3 8612   1.629   5.255   4.687
 2073SOL    MW4 8613   1.650   5.331   4.647
 2074SOL     OW 8614   1.311   5.398   3.839
 2074SOL    HW2 8615   1.237   5.361   3.889
 2074SOL    HW3 8616   1.319   5.488   3.872
 2074SOL    MW4 8617   1.302   5.405   3.851
 2075SOL     OW 8618   0.119   4.404   4.928
 2075SOL    HW2 8619   0.181   4.434   4.994
 2075SOL    HW3 8620   0.053   4.473   4.922
 2075SOL    MW4 8621   0.118   4.417   4.935
 2076SOL     OW 8622   1.535   5.072   3.781
 2076SOL    HW2 8623   1.482   5.121   3.717
 2076SOL    HW3 8624   1.566   5.138   3.842
 2076SOL    MW4 8625   1.533   5.086   3.779
 2077SOL     OW 8626   0.760   3.961   3.836
 2077SOL    HW2 8627   0.708   3.881   3.824
 2077SOL    HW3 8628   0.847   3.938   3.804
 2077SOL    MW4 8629   0.763   3.947   3.830
 2078SOL     OW 8630   0.214   5.513   5.380
 2078SOL    HW2 8631   0.188   5.581   5.318
 2078SOL    HW3 8632   0.262   5.450   5.328
 2078SOL    MW4 8633   0.216   5.513   5.366
 2079SOL     OW 8634   0.266   4.832   4.887
 2079SOL    HW2 8635   0.319   4.907   4.912
 2079SOL    HW3 8636   0.185   4.870   4.853
 2079SOL    MW4 8637   0.262   4.847   4.887
 2080SOL     OW 8638   0.806   4.736   4.875
 2080SOL    HW2 8639   0.834   4.645   4.887
 2080SOL    HW3 8640   0.735   4.730   4.811
 2080SOL    MW4 8641   0.799   4.724   4.870
 2081SOL     OW 8642   0.121   4.601   4.293
 2081SOL    HW2 8643   0.212   4.616   4.320
 2081SOL    HW3 8644   0.124   4.522   4.239
 2081SOL    MW4 8645   0.133   4.593   4.291
 2082SOL     OW 8646   0.357   4.309   5.547
 2082SOL    HW2 8647   0.304   4.389   5.554
 2082SOL    HW3 8648   0.427   4.321   5.612
 2082SOL    MW4 8649   0.359   4.322   5.555
 2083SOL     OW 8650   0.743   3.859   5.254
 2083SOL    HW2 8651   0.720   3.767   5.256
 2083SOL    HW3 8652   0.829   3.861   5.211
 2083SOL    MW4 8653   0.750   3.849   5.250
 2084SOL     OW 8654   0.427   4.383   5.293
 2084SOL    HW2 8655   0.507   4.433   5.279
 2084SOL    HW3 8656   0.418   4.377   5.388
 2084SOL    MW4 8657   0.436   4.389   5.303
 2085SOL     OW 8658   0.748   5.533   4.667
 2085SOL    HW2 8659   0.837   5.548   4.697
 2085SOL    HW3 8660   0.743   5.580   4.583
 2085SOL    MW4 8661   0.758   5.541   4.660
 2086SOL     OW 8662   1.404   3.908   5.564
 2086SOL    HW2 8663   1.460   3.835   5.590
 2086SOL    HW3 8664   1.374   3.946   5.646
 2086SOL    MW4 8665   1.408   3.903   5.577
 2087SOL     OW 8666   0.129   5.213   4.332
 2087SOL    HW2 8667   0.101   5.252   4.414
 2087SOL    HW3 8668   0.149   5.122   4.354
 2087SOL    MW4 8669   0.127   5.205   4.345
 2088SOL     OW 8670   0.962   5.256   4.367
 2088SOL    HW2 8671   1.045   5.210   4.351
 2088SOL    HW3 8672   0.952   5.255   4.463
 2088SOL    MW4 8673   0.972   5.249   4.377
 2089SOL     OW 8674   1.794   4.401   4.681
 2089SOL    HW2 8675   1.883   4.431   4.663
 2089SOL    HW3 8676   1.774   4.341   4.610
 2089SOL    MW4 8677   1.803   4.398   4.670
 2090SOL     OW 8678   1.645   4.580   5.561
 2090SOL    HW2 8679   1.700   4.504   5.542
 2090SOL    HW3 8680   1.647   4.588   5.656
 2090SOL    MW4 8681   1.653   4.571   5.569
 2091SOL     OW 8682   0.695   5.313   3.772
 2091SOL    HW2 8683   0.635   5.382   3.742
 2091SOL    HW3 8684   0.640   5.255   3.825
 2091SOL    MW4 8685   0.679   5.315   3.774
 2092SOL     OW 8686   1.133   3.958   3.995
 2092SOL    HW2 8687   1.066   3.934   3.932
 2092SOL    HW3 8688   1.198   4.007   3.944
 2092SOL    MW4 8689   1.133   3.960   3.980
 2093SOL     OW 8690   0.940   4.142   5.080
 2093SOL    HW2 8691   0.859   4.183   5.108
 2093SOL    HW3 8692   0.987   4.210   5.032
 2093SOL    MW4 8693   0.935   4.157   5.078
 2094SOL     OW 8694   1.200   4.480   4.703
 2094SOL    HW2 8695   1.213   4.574   4.713
 2094SOL    HW3 8696   1.161   4.470   4.617
 2094SOL    MW4 8697   1.196   4.491   4.693
 2095SOL     OW 8698   0.652   4.675   4.507
 2095SOL    HW2 8699   0.563   4.666   4.540
 2095SOL    HW3 8700   0.656   4.765   4.475
 2095SOL    MW4 8701   0.641   4.686   4.507
 2096SOL     OW 8702   1.451   4.258   4.502
 2096SOL    HW2 8703   1.396   4.179   4.501
 2096SOL    HW3 8704   1.433   4.299   4.586
 2096SOL    MW4 8705   1.441   4.253   4.511
 2097SOL     OW 8706   0.422   3.945   5.319
 2097SOL    HW2 8707   0.343   3.963   5.371
 2097SOL    HW3 8708   0.417   4.007   5.246
 2097SOL    MW4 8709   0.412   3.955   5.316
 2098SOL     OW 8710   1.070   4.462   4.459
 2098SOL    HW2 8711   1.007   4.394   4.483
 2098SOL    HW3 8712   1.090   4.443   4.367
 2098SOL    MW4 8713   1.064   4.449   4.451
 2099SOL     OW 8714   0.326   5.357   4.161
 2099SOL    HW2 8715   0.287   5.404   4.087
 2099SOL    HW3 8716   0.260   5.292   4.186
 2099SOL    MW4 8717   0.313   5.355   4.155
 2100SOL     OW 8718   0.818   4.766   4.185
 2100SOL    HW2 8719   0.820   4.740   4.092
 2100SOL    HW3 8720   0.876   4.703   4.228
 2100SOL    MW4 8721   0.826   4.755   4.179
 2101SOL     OW 8722   1.371   5.326   4.957
 2101SOL    HW2 8723   1.296   5.372   4.995
 2101SOL    HW3 8724   1.353   5.233   4.974
 2101SOL    MW4 8725   1.360   5.320   4.965
 2102SOL     OW 8726   1.375   5.534   4.387
 2102SOL    HW2 8727   1.318   5.487   4.326
 2102SOL    HW3 8728   1.461   5.495   4.374
 2102SOL    MW4 8729   1.378   5.525   4.377
 2103SOL     OW 8730   1.328   4.010   4.518
 2103SOL    HW2 8731   1.356   3.942   4.579
 2103SOL    HW3 8732   1.242   3.981   4.488
 2103SOL    MW4 8733   1.321   3.997   4.522
 2104SOL     OW 8734   0.133   4.944   4.452
 2104SOL    HW2 8735   0.197   4.976   4.515
 2104SOL    HW3 8736   0.182   4.880   4.400
 2104SOL    MW4 8737   0.148   4.940   4.453
 2105SOL     OW 8738   0.633   5.020   5.434
 2105SOL    HW2 8739   0.681   5.103   5.421
 2105SOL    HW3 8740   0.690   4.968   5.490
 2105SOL    MW4 8741   0.647   5.024   5.440
 2106SOL     OW 8742   0.209   5.262   5.574
 2106SOL    HW2 8743   0.265   5.186   5.589
 2106SOL    HW3 8744   0.158   5.240   5.496
 2106SOL    MW4 8745   0.209   5.249   5.565
 2107SOL     OW 8746   1.308   4.114   3.853
 2107SOL    HW2 8747   1.281   4.180   3.789
 2107SOL    HW3 8748   1.378   4.157   3.903
 2107SOL    MW4 8749   1.313   4.127   3.850
 2108SOL     OW 8750   0.976   3.819   3.790
 2108SOL    HW2 8751   1.032   3.811   3.712
 2108SOL    HW3 8752   0.953   3.729   3.812
 2108SOL    MW4 8753   0.981   3.806   3.783
 2109SOL     OW 8754   1.481   4.670   3.995
 2109SOL    HW2 8755   1.448   4.759   3.985
 2109SOL    HW3 8756   1.446   4.641   4.080
 2109SOL    MW4 8757   1.471   4.679   4.006
 2110SOL     OW 8758   1.094   5.099   5.183
 2110SOL    HW2 8759   1.005   5.105   5.151
 2110SOL    HW3 8760   1.138   5.178   5.151
 2110SOL    MW4 8761   1.089   5.109   5.175
 2111SOL     OW 8762   0.387   3.767   5.525
 2111SOL    HW2 8763   0.315   3.732   5.473
 2111SOL    HW3 8764   0.445   3.808   5.460
 2111SOL    MW4 8765   0.385   3.768   5.510
 2112SOL     OW 8766   0.411   5.257   4.824
 2112SOL    HW2 8767   0.456   5.319   4.881
 2112SOL    HW3 8768   0.318   5.276   4.837
 2112SOL    MW4 8769   0.404   5.267   4.831
 2113SOL     OW 8770   1.851   4.786   5.178
 2113SOL    HW2 8771   1.766   4.799   5.137
 2113SOL    HW3 8772   1.831   4.750   5.265
 2113SOL    MW4 8773   1.838   4.782   5.183
 2114SOL     OW 8774   0.833   5.325   4.932
 2114SOL    HW2 8775   0.857   5.314   4.841
 2114SOL    HW3 8776   0.756   5.382   4.930
 2114SOL    MW4 8777   0.825   5.330   4.921
 2115SOL     OW 8778   0.475   4.708   3.787
 2115SOL    HW2 8779   0.398   4.721   3.843
 2115SOL    HW3 8780   0.439   4.672   3.706
 2115SOL    MW4 8781   0.461   4.704   3.784
 2116SOL     OW 8782   1.128   4.681   4.030
 2116SOL    HW2 8783   1.038   4.702   4.005
 2116SOL    HW3 8784   1.155   4.754   4.086
 2116SOL    MW4 8785   1.120   4.693   4.033
 2117SOL     OW 8786   0.628   5.030   4.722
 2117SOL    HW2 8787   0.621   5.009   4.816
 2117SOL    HW3 8788   0.546   4.998   4.685
 2117SOL    MW4 8789   0.616   5.024   4.729
 2118SOL     OW 8790   1.492   4.040   5.124
 2118SOL    HW2 8791   1.439   4.042   5.204
 2118SOL    HW3 8792   1.477   3.953   5.087
 2118SOL    MW4 8793   1.484   4.030   5.129
 2119SOL     OW 8794   1.828   3.964   4.997
 2119SOL    HW2 8795   1.809   4.031   4.932
 2119SOL    HW3 8796   1.885   3.902   4.952
 2119SOL    MW4 8797   1.832   3.965   4.983
 2120SOL     OW 8798   0.074   5.122   5.385
 2120SOL    HW2 8799   0.118   5.055   5.331
 2120SOL    HW3 8800  -0.011   5.084   5.405
 2120SOL    MW4 8801   0.069   5.108   5.381
 2121SOL     OW 8802   0.757   3.797   4.437
 2121SOL    HW2 8803   0.686   3.858   4.419
 2121SOL    HW3 8804   0.808   3.794   4.356
 2121SOL    MW4 8805   0.753   3.803   4.424
 2122SOL     OW 8806   0.515   5.037   4.186
 2122SOL    HW2 8807   0.508   5.069   4.276
 2122SOL    HW3 8808   0.425   5.021   4.158
 2122SOL    MW4 8809   0.503   5.039   4.193
 2123SOL     OW 8810   1.110   5.430   5.095
 2123SOL    HW2 8811   1.030   5.415   5.045
 2123SOL    HW3 8812   1.117   5.525   5.102
 2123SOL    MW4 8813   1.101   5.441   5.089
 2124SOL     OW 8814   1.224   5.395   4.585
 2124SOL    HW2 8815   1.271   5.468   4.544
 2124SOL    HW3 8816   1.145   5.434   4.621
 2124SOL    MW4 8817   1.219   5.410   4.584
 2125SOL     OW 8818   1.632   5.490   4.860
 2125SOL    HW2 8819   1.675   5.460   4.940
 2125SOL    HW3 8820   1.551   5.438   4.857
 2125SOL    MW4 8821   1.627   5.479   4.870
 2126SOL     OW 8822   0.717   4.454   5.567
 2126SOL    HW2 8823   0.787   4.396   5.539
 2126SOL    HW3 8824   0.660   4.399   5.622
 2126SOL    MW4 8825   0.719   4.441   5.571
 2127SOL     OW 8826   1.504   4.666   5.200
 2127SOL    HW2 8827   1.509   4.719   5.280
 2127SOL    HW3 8828   1.466   4.583   5.228
 2127SOL    MW4 8829   1.500   4.661   5.215
 2128SOL     OW 8830   1.144   3.801   5.446
 2128SOL    HW2 8831   1.139   3.708   5.427
 2128SOL    HW3 8832   1.227   3.812   5.492
 2128SOL    MW4 8833   1.152   3.790   5.450
 2129SOL     OW 8834   0.518   4.321   3.900
 2129SOL    HW2 8835   0.484   4.377   3.970
 2129SOL    HW3 8836   0.589   4.271   3.940
 2129SOL    MW4 8837   0.524   4.322   3.914
 2130SOL     OW 8838   1.614   5.072   4.722
 2130SOL    HW2 8839   1.649   5.054   4.635
 2130SOL    HW3 8840   1.519   5.073   4.709
 2130SOL    MW4 8841   1.606   5.069   4.709
 2131SOL     OW 8842   1.043   4.720   5.091
 2131SOL    HW2 8843   1.086   4.755   5.169
 2131SOL    HW3 8844   1.026   4.797   5.037
 2131SOL    MW4 8845   1.046   4.735   5.094
 2132SOL     OW 8846   1.574   4.207   3.964
 2132SOL    HW2 8847   1.566   4.278   3.901
 2132SOL    HW3 8848   1.592   4.251   4.047
 2132SOL    MW4 8849   1.575   4.221   3.966
 2133SOL     OW 8850   0.434   3.862   4.393
 2133SOL    HW2 8851   0.484   3.905   4.324
 2133SOL    HW3 8852   0.349   3.906   4.393
 2133SOL    MW4 8853   0.431   3.875   4.384
 2134SOL     OW 8854   0.193   4.924   5.253
 2134SOL    HW2 8855   0.221   4.877   5.331
 2134SOL    HW3 8856   0.114   4.879   5.224
 2134SOL    MW4 8857   0.186   4.913   5.259
 2135SOL     OW 8858   0.701   4.251   5.220
 2135SOL    HW2 8859   0.673   4.339   5.244
 2135SOL    HW3 8860   0.670   4.195   5.291
 2135SOL    MW4 8861   0.693   4.254   5.232
 2136SOL     OW 8862   1.243   4.469   3.939
 2136SOL    HW2 8863   1.290   4.487   3.858
 2136SOL    HW3 8864   1.209   4.553   3.967
 2136SOL    MW4 8865   1.245   4.483   3.932
 2137SOL     OW 8866   0.356   4.647   4.433
 2137SOL    HW2 8867   0.414   4.703   4.381
 2137SOL    HW3 8868   0.400   4.562   4.435
 2137SOL    MW4 8869   0.369   4.644   4.426
 2138SOL     OW 8870   1.496   3.999   4.270
 2138SOL    HW2 8871   1.418   3.949   4.295
 2138SOL    HW3 8872   1.467   4.090   4.270
 2138SOL    MW4 8873   1.482   4.003   4.273
 2139SOL     OW 8874   1.082   3.961   4.429
 2139SOL    HW2 8875   1.102   4.036   4.373
 2139SOL    HW3 8876   1.062   4.000   4.514
 2139SOL    MW4 8877   1.083   3.977   4.433
 2140SOL     OW 8878   0.978   5.211   3.761
 2140SOL    HW2 8879   1.005   5.289   3.713
 2140SOL    HW3 8880   0.885   5.226   3.780
 2140SOL    MW4 8881   0.969   5.224   3.757
 2141SOL     OW 8882   1.842   4.734   5.448
 2141SOL    HW2 8883   1.755   4.714   5.484
 2141SOL    HW3 8884   1.896   4.660   5.473
 2141SOL    MW4 8885   1.837   4.723   5.456
 2142SOL     OW 8886   0.063   5.247   4.605
 2142SOL    HW2 8887   0.095   5.251   4.696
 2142SOL    HW3 8888  -0.032   5.255   4.613
 2142SOL    MW4 8889   0.055   5.250   4.618
 2143SOL     OW 8890   0.018   4.373   4.152
 2143SOL    HW2 8891  -0.042   4.345   4.222
 2143SOL    HW3 8892   0.092   4.313   4.158
 2143SOL    MW4 8893   0.020   4.362   4.161
 2144SOL     OW 8894   1.586   5.585   5.586
 2144SOL    HW2 8895   1.631   5.509   5.551
 2144SOL    HW3 8896   1.624   5.598   5.673
 2144SOL    MW4 8897   1.596   5.578   5.592
 2145SOL     OW 8898   1.186   5.104   4.312
 2145SOL    HW2 8899   1.209   5.055   4.390
 2145SOL    HW3 8900   1.267   5.146   4.284
 2145SOL    MW4 8901   1.199   5.104   4.319
 2146SOL     OW 8902   0.444   4.112   5.041
 2146SOL    HW2 8903   0.477   4.193   5.081
 2146SOL    HW3 8904   0.417   4.138   4.953
 2146SOL    MW4 8905   0.443   4.126   5.035
 2147SOL     OW 8906   0.398   4.079   4.777
 2147SOL    HW2 8907   0.428   3.993   4.748
 2147SOL    HW3 8908   0.303   4.072   4.780
 2147SOL    MW4 8909   0.390   4.068   4.775
 2148SOL     OW 8910   1.227   4.288   5.468
 2148SOL    HW2 8911   1.279   4.223   5.421
 2148SOL    HW3 8912   1.185   4.339   5.398
 2148SOL    MW4 8913   1.228   4.285   5.451
 2149SOL     OW 8914   1.326   4.083   5.329
 2149SOL    HW2 8915   1.233   4.067   5.316
 2149SOL    HW3 8916   1.352   4.021   5.397
 2149SOL    MW4 8917   1.316   4.073   5.336
 2150SOL     OW 8918   0.541   3.857   4.668
 2150SOL    HW2 8919   0.551   3.766   4.694
 2150SOL    HW3 8920   0.497   3.853   4.583
 2150SOL    MW4 8921   0.537   3.845   4.660
 2151SOL     OW 8922   0.635   5.472   5.214
 2151SOL    HW2 8923   0.552   5.457   5.259
 2151SOL    HW3 8924   0.694   5.405   5.249
 2151SOL    MW4 8925   0.633   5.462   5.224
 2152SOL     OW 8926   1.692   4.179   4.839
 2152SOL    HW2 8927   1.625   4.212   4.899
 2152SOL    HW3 8928   1.735   4.257   4.805
 2152SOL    MW4 8929   1.690   4.194   4.843
 2153SOL     OW 8930   1.870   4.899   4.809
 2153SOL    HW2 8931   1.863   4.839   4.734
 2153SOL    HW3 8932   1.796   4.959   4.798
 2153SOL    MW4 8933   1.860   4.899   4.798
 2154SOL     OW 8934   1.252   4.761   4.727
 2154SOL    HW2 8935   1.266   4.733   4.818
 2154SOL    HW3 8936   1.338   4.792   4.699
 2154SOL    MW4 8937   1.265   4.762   4.736
 2155SOL     OW 8938   1.335   4.256   5.006
 2155SOL    HW2 8939   1.356   4.257   4.913
 2155SOL    HW3 8940   1.380   4.178   5.039
 2155SOL    MW4 8941   1.342   4.246   4.998
 2156SOL     OW 8942   1.828   4.387   5.548
 2156SOL    HW2 8943   1.865   4.332   5.617
 2156SOL    HW3 8944   1.853   4.344   5.466
 2156SOL    MW4 8945   1.835   4.375   5.547
 2157SOL     OW 8946   1.375   4.685   5.600
 2157SOL    HW2 8947   1.441   4.633   5.554
 2157SOL    HW3 8948   1.395   4.672   5.693
 2157SOL    MW4 8949   1.386   4.676   5.607
 2158SOL     OW 8950   1.326   3.771   3.948
 2158SOL    HW2 8951   1.400   3.815   3.991
 2158SOL    HW3 8952   1.250   3.825   3.970
 2158SOL    MW4 8953   1.326   3.783   3.956
 2159SOL     OW 8954   1.386   4.546   4.226
 2159SOL    HW2 8955   1.301   4.516   4.196
 2159SOL    HW3 8956   1.378   4.553   4.321
 2159SOL    MW4 8957   1.374   4.544   4.235
 2160SOL     OW 8958   0.462   5.009   4.957
 2160SOL    HW2 8959   0.474   5.036   5.048
 2160SOL    HW3 8960   0.443   5.090   4.910
 2160SOL    MW4 8961   0.461   5.024   4.962
 2161SOL     OW 8962   0.746   3.989   4.780
 2161SOL    HW2 8963   0.719   3.991   4.871
 2161SOL    HW3 8964   0.676   3.941   4.735
 2161SOL    MW4 8965   0.734   3.985   4.787
 2162SOL     OW 8966   0.600   5.481   4.942
 2162SOL    HW2 8967   0.652   5.558   4.919
 2162SOL    HW3 8968   0.609   5.473   5.037
 2162SOL    MW4 8969   0.609   5.488   4.953
 2163SOL     OW 8970   1.502   5.066   5.174
 2163SOL    HW2 8971   1.487   4.995   5.237
 2163SOL    HW3 8972   1.548   5.024   5.102
 2163SOL    MW4 8973   1.508   5.050   5.174
 2164SOL     OW 8974   0.576   4.797   5.291
 2164SOL    HW2 8975   0.613   4.802   5.203
 2164SOL    HW3 8976   0.615   4.870   5.338
 2164SOL    MW4 8977   0.586   4.807   5.286
 2165SOL     OW 8978   0.756   4.840   5.103
 2165SOL    HW2 8979   0.815   4.786   5.156
 2165SOL    HW3 8980   0.771   4.812   5.013
 2165SOL    MW4 8981   0.766   4.829   5.099
 2166SOL     OW 8982   0.759   4.212   3.952
 2166SOL    HW2 8983   0.832   4.261   3.915
 2166SOL    HW3 8984   0.775   4.121   3.926
 2166SOL    MW4 8985   0.771   4.207   3.945
 2167SOL     OW 8986   1.567   5.329   5.275
 2167SOL    HW2 8987   1.609   5.314   5.360
 2167SOL    HW3 8988   1.558   5.242   5.237
 2167SOL    MW4 8989   1.571   5.317   5.282
 2168SOL     OW 8990   1.227   3.808   4.866
 2168SOL    HW2 8991   1.282   3.817   4.788
 2168SOL    HW3 8992   1.282   3.842   4.937
 2168SOL    MW4 8993   1.241   3.813   4.865
 2169SOL     OW 8994   0.234   4.721   4.050
 2169SOL    HW2 8995   0.171   4.737   3.979
 2169SOL    HW3 8996   0.181   4.684   4.121
 2169SOL    MW4 8997   0.219   4.718   4.050
 2170SOL     OW 8998   0.590   5.075   3.909
 2170SOL    HW2 8999   0.605   5.051   4.001
 2170SOL    HW3 9000   0.498   5.053   3.893
 2170SOL    MW4 9001   0.580   5.068   3.919
 2171SOL     OW 9002   1.129   5.306   4.061
 2171SOL    HW2 9003   1.137   5.224   4.012
 2171SOL    HW3 9004   1.048   5.345   4.028
 2171SOL    MW4 9005   1.119   5.301   4.051
 2172SOL     OW 9006   0.388   5.464   4.630
 2172SOL    HW2 9007   0.392   5.375   4.665
 2172SOL    HW3 9008   0.414   5.455   4.539
 2172SOL    MW4 9009   0.391   5.452   4.622
 2173SOL     OW 9010   1.005   4.942   4.873
 2173SOL    HW2 9011   0.937   4.876   4.889
 2173SOL    HW3 9012   1.023   4.936   4.780
 2173SOL    MW4 9013   0.998   4.933   4.864
 2174SOL     OW 9014   0.094   5.217   5.124
 2174SOL    HW2 9015   0.084   5.175   5.210
 2174SOL    HW3 9016   0.015   5.270   5.114
 2174SOL    MW4 9017   0.083   5.218   5.135
 2175SOL     OW 9018   0.998   4.081   4.694
 2175SOL    HW2 9019   0.928   4.033   4.739
 2175SOL    HW3 9020   1.030   4.144   4.758
 2175SOL    MW4 9021   0.993   4.083   4.708
 2176SOL     OW 9022   0.649   4.517   5.314
 2176SOL    HW2 9023   0.642   4.612   5.302
 2176SOL    HW3 9024   0.658   4.506   5.409
 2176SOL    MW4 9025   0.650   4.529   5.324
 2177SOL     OW 9026   0.370   5.032   5.572
 2177SOL    HW2 9027   0.442   5.034   5.509
 2177SOL    HW3 9028   0.340   4.941   5.571
 2177SOL    MW4 9029   0.375   5.021   5.564
 2178SOL     OW 9030   1.454   3.795   5.039
 2178SOL    HW2 9031   1.525   3.741   5.003
 2178SOL    HW3 9032   1.453   3.774   5.132
 2178SOL    MW4 9033   1.463   3.786   5.047
 2179SOL     OW 9034   1.654   5.325   5.523
 2179SOL    HW2 9035   1.627   5.322   5.614
 2179SOL    HW3 9036   1.750   5.329   5.526
 2179SOL    MW4 9037   1.664   5.325   5.535
 2180SOL     OW 9038   0.465   4.187   4.507
 2180SOL    HW2 9039   0.536   4.135   4.470
 2180SOL    HW3 9040   0.451   4.152   4.594
 2180SOL    MW4 9041   0.473   4.176   4.514
 2181SOL     OW 9042   0.020   5.522   5.579
 2181SOL    HW2 9043   0.070   5.500   5.501
 2181SOL    HW3 9044   0.028   5.617   5.587
 2181SOL    MW4 9045   0.028   5.531   5.570
 2182SOL     OW 9046   0.781   5.280   4.583
 2182SOL    HW2 9047   0.709   5.217   4.596
 2182SOL    HW3 9048   0.742   5.365   4.601
 2182SOL    MW4 9049   0.765   5.283   4.586
 2183SOL     OW 9050   1.101   4.128   4.231
 2183SOL    HW2 9051   1.123   4.065   4.163
 2183SOL    HW3 9052   1.006   4.120   4.242
 2183SOL    MW4 9053   1.091   4.119   4.223
 2184SOL     OW 9054   0.186   3.818   4.163
 2184SOL    HW2 9055   0.257   3.839   4.102
 2184SOL    HW3 9056   0.140   3.746   4.121
 2184SOL    MW4 9057   0.190   3.812   4.149
 2185SOL     OW 9058   0.017   4.285   5.306
 2185SOL    HW2 9059   0.081   4.351   5.281
 2185SOL    HW3 9060  -0.064   4.312   5.263
 2185SOL    MW4 9061   0.015   4.297   5.298
 2186SOL     OW 9062   1.755   5.192   4.263
 2186SOL    HW2 9063   1.725   5.125   4.324
 2186SOL    HW3 9064   1.849   5.198   4.277
 2186SOL    MW4 9065   1.763   5.184   4.273
 2187SOL     OW 9066   1.311   4.869   4.193
 2187SOL    HW2 9067   1.283   4.955   4.226
 2187SOL    HW3 9068   1.339   4.885   4.103
 2187SOL    MW4 9069   1.311   4.883   4.185
 2188SOL     OW 9070   0.973   3.789   4.246
 2188SOL    HW2 9071   1.010   3.848   4.311
 2188SOL    HW3 9072   0.950   3.845   4.172
 2188SOL    MW4 9073   0.974   3.804   4.245
 2189SOL     OW 9074   1.826   4.671   4.668
 2189SOL    HW2 9075   1.817   4.703   4.579
 2189SOL    HW3 9076   1.779   4.587   4.668
 2189SOL    MW4 9077   1.819   4.664   4.658
 2190SOL     OW 9078   0.202   4.511   5.247
 2190SOL    HW2 9079   0.223   4.580   5.185
 2190SOL    HW3 9080   0.282   4.458   5.252
 2190SOL    MW4 9081   0.215   4.512   5.241
 2191SOL     OW 9082   1.738   4.602   4.369
 2191SOL    HW2 9083   1.832   4.591   4.357
 2191SOL    HW3 9084   1.714   4.674   4.310
 2191SOL    MW4 9085   1.748   4.610   4.360
 2192SOL     OW 9086   0.187   4.526   5.514
 2192SOL    HW2 9087   0.113   4.470   5.540
 2192SOL    HW3 9088   0.182   4.529   5.419
 2192SOL    MW4 9089   0.176   4.519   5.504
 2193SOL     OW 9090   0.353   3.813   4.964
 2193SOL    HW2 9091   0.396   3.897   4.984
 2193SOL    HW3 9092   0.426   3.751   4.957
 2193SOL    MW4 9093   0.368   3.816   4.965
 2194SOL     OW 9094   0.394   4.480   4.142
 2194SOL    HW2 9095   0.394   4.575   4.127
 2194SOL    HW3 9096   0.471   4.464   4.196
 2194SOL    MW4 9097   0.404   4.491   4.147
 2195SOL     OW 9098   1.170   4.339   5.206
 2195SOL    HW2 9099   1.206   4.312   5.122
 2195SOL    HW3 9100   1.083   4.373   5.185
 2195SOL    MW4 9101   1.164   4.340   5.193
 2196SOL     OW 9102   0.153   4.211   4.431
 2196SOL    HW2 9103   0.215   4.218   4.504
 2196SOL    HW3 9104   0.153   4.118   4.408
 2196SOL    MW4 9105   0.161   4.200   4.438
 2197SOL     OW 9106   1.700   5.551   3.963
 2197SOL    HW2 9107   1.767   5.584   3.903
 2197SOL    HW3 9108   1.657   5.630   3.997
 2197SOL    MW4 9109   1.702   5.566   3.959
 2198SOL     OW 9110   0.835   4.472   4.915
 2198SOL    HW2 9111   0.793   4.390   4.891
 2198SOL    HW3 9112   0.836   4.471   5.011
 2198SOL    MW4 9113   0.828   4.461   4.924
 2199SOL     OW 9114   1.506   5.605   5.314
 2199SOL    HW2 9115   1.509   5.511   5.297
 2199SOL    HW3 9116   1.529   5.613   5.406
 2199SOL    MW4 9117   1.509   5.593   5.324
 2200SOL     OW 9118   0.639   3.942   5.020
 2200SOL    HW2 9119   0.570   4.005   5.041
 2200SOL    HW3 9120   0.666   3.906   5.105
 2200SOL    MW4 9121   0.633   3.945   5.033
 2201SOL     OW 9122   0.022   4.783   3.889
 2201SOL    HW2 9123  -0.009   4.848   3.952
 2201SOL    HW3 9124  -0.029   4.705   3.908
 2201SOL    MW4 9125   0.012   4.780   3.899
 2202SOL     OW 9126   1.434   3.795   4.637
 2202SOL    HW2 9127   1.522   3.804   4.674
 2202SOL    HW3 9128   1.444   3.736   4.563
 2202SOL    MW4 9129   1.448   3.789   4.631
 2203SOL     OW 9130   1.466   4.534   4.481
 2203SOL    HW2 9131   1.546   4.549   4.430
 2203SOL    HW3 9132   1.459   4.439   4.487
 2203SOL    MW4 9133   1.475   4.523   4.476
 2204SOL     OW 9134   0.606   5.583   3.831
 2204SOL    HW2 9135   0.511   5.583   3.823
 2204SOL    HW3 9136   0.622   5.529   3.909
 2204SOL    MW4 9137   0.596   5.577   3.840
 2205SOL     OW 9138   0.916   4.460   5.178
 2205SOL    HW2 9139   0.985   4.527   5.175
 2205SOL    HW3 9140   0.849   4.498   5.234
 2205SOL    MW4 9141   0.917   4.473   5.185
 2206SOL     OW 9142   0.334   4.760   5.426
 2206SOL    HW2 9143   0.288   4.676   5.428
 2206SOL    HW3 9144   0.391   4.754   5.350
 2206SOL    MW4 9145   0.336   4.748   5.418
 2207SOL     OW 9146   1.451   4.403   3.747
 2207SOL    HW2 9147   1.379   4.379   3.689
 2207SOL    HW3 9148   1.517   4.440   3.689
 2207SOL    MW4 9149   1.450   4.405   3.732
 2208SOL     OW 9150   0.585   5.135   4.427
 2208SOL    HW2 9151   0.650   5.068   4.448
 2208SOL    HW3 9152   0.637   5.212   4.404
 2208SOL    MW4 9153   0.600   5.137   4.426
 2209SOL     OW 9154   0.846   4.300   4.557
 2209SOL    HW2 9155   0.786   4.318   4.629
 2209SOL    HW3 9156   0.880   4.212   4.576
 2209SOL    MW4 9157   0.842   4.290   4.570
 2210SOL     OW 9158   1.787   3.799   5.226
 2210SOL    HW2 9159   1.708   3.845   5.254
 2210SOL    HW3 9160   1.822   3.853   5.155
 2210SOL    MW4 9161   1.781   3.812   5.220
 2211SOL     OW 9162   1.071   4.883   4.576
 2211SOL    HW2 9163   1.163   4.864   4.594
 2211SOL    HW3 9164   1.044   4.813   4.516
 2211SOL    MW4 9165   1.079   4.871   4.570
 2212SOL     OW 9166   0.864   4.703   3.931
 2212SOL    HW2 9167   0.850   4.615   3.896
 2212SOL    HW3 9168   0.815   4.760   3.872
 2212SOL    MW4 9169   0.856   4.698   3.919
 2213SOL     OW 9170   1.345   5.121   4.672
 2213SOL    HW2 9171   1.318   5.205   4.637
 2213SOL    HW3 9172   1.305   5.116   4.759
 2213SOL    MW4 9173   1.338   5.130   4.678
 2214SOL     OW 9174   1.264   5.069   4.940
 2214SOL    HW2 9175   1.275   5.036   5.029
 2214SOL    HW3 9176   1.183   5.028   4.909
 2214SOL    MW4 9177   1.254   5.061   4.946
 2215SOL     OW 9178   0.277   4.427   4.710
 2215SOL    HW2 9179   0.227   4.426   4.791
 2215SOL    HW3 9180   0.297   4.519   4.694
 2215SOL    MW4 9181   0.273   4.439   4.718
 2216SOL     OW 9182   1.344   5.191   5.472
 2216SOL    HW2 9183   1.344   5.285   5.488
 2216SOL    HW3 9184   1.389   5.181   5.388
 2216SOL    MW4 9185   1.350   5.201   5.463
 2217SOL     OW 9186   1.583   3.909   4.033
 2217SOL    HW2 9187   1.576   3.913   4.128
 2217SOL    HW3 9188   1.595   4.000   4.006
 2217SOL    MW4 9189   1.584   3.922   4.041
 2218SOL     OW 9190   0.872   4.472   4.147
 2218SOL    HW2 9191   0.852   4.458   4.054
 2218SOL    HW3 9192   0.965   4.451   4.154
 2218SOL    MW4 9193   0.882   4.467   4.136
 2219SOL     OW 9194   0.199   4.095   5.451
 2219SOL    HW2 9195   0.156   4.154   5.388
 2219SOL    HW3 9196   0.267   4.150   5.491
 2219SOL    MW4 9197   0.203   4.110   5.448
 2220SOL     OW 9198   1.311   4.715   4.996
 2220SOL    HW2 9199   1.374   4.712   5.069
 2220SOL    HW3 9200   1.227   4.733   5.038
 2220SOL    MW4 9201   1.307   4.717   5.011
 2221SOL     OW 9202   0.855   5.430   4.185
 2221SOL    HW2 9203   0.913   5.501   4.212
 2221SOL    HW3 9204   0.878   5.358   4.243
 2221SOL    MW4 9205   0.866   5.430   4.196
 2222SOL     OW 9206   1.650   3.892   4.775
 2222SOL    HW2 9207   1.695   3.810   4.794
 2222SOL    HW3 9208   1.670   3.948   4.851
 2222SOL    MW4 9209   1.660   3.888   4.787
 2223SOL     OW 9210   0.098   3.735   4.874
 2223SOL    HW2 9211   0.089   3.736   4.779
 2223SOL    HW3 9212   0.192   3.747   4.889
 2223SOL    MW4 9213   0.110   3.738   4.865
 2224SOL     OW 9214   1.735   4.928   4.494
 2224SOL    HW2 9215   1.714   4.874   4.417
 2224SOL    HW3 9216   1.831   4.926   4.498
 2224SOL    MW4 9217   1.744   4.921   4.483
 2225SOL     OW 9218   0.427   5.073   5.237
 2225SOL    HW2 9219   0.348   5.023   5.260
 2225SOL    HW3 9220   0.497   5.032   5.287
 2225SOL    MW4 9221   0.425   5.061   5.247
 2226SOL     OW 9222   0.311   3.862   3.920
 2226SOL    HW2 9223   0.240   3.917   3.888
 2226SOL    HW3 9224   0.353   3.828   3.841
 2226SOL    MW4 9225   0.307   3.864   3.906
 2227SOL     OW 9226   0.067   3.961   3.769
 2227SOL    HW2 9227   0.034   4.040   3.813
 2227SOL    HW3 9228   0.122   3.994   3.698
 2227SOL    MW4 9229   0.070   3.975   3.766
 2228SOL     OW 9230   0.101   5.218   3.958
 2228SOL    HW2 9231   0.118   5.302   4.000
 2228SOL    HW3 9232   0.136   5.227   3.870
 2228SOL    MW4 9233   0.106   5.231   3.952
 2229SOL     OW 9234   1.373   5.307   4.175
 2229SOL    HW2 9235   1.436   5.297   4.104
 2229SOL    HW3 9236   1.290   5.327   4.130
 2229SOL    MW4 9237   1.370   5.308   4.160
 2230SOL     OW 9238   1.736   4.575   5.862
 2230SOL    HW2 9239   1.777   4.517   5.927
 2230SOL    HW3 9240   1.643   4.567   5.879
 2230SOL    MW4 9241   1.730   4.567   5.872
 2231SOL     OW 9242   0.530   4.758   6.091
 2231SOL    HW2 9243   0.620   4.733   6.075
 2231SOL    HW3 9244   0.526   4.851   6.068
 2231SOL    MW4 9245   0.542   4.767   6.086
 2232SOL     OW 9246   1.646   5.461   6.233
 2232SOL    HW2 9247   1.658   5.407   6.311
 2232SOL    HW3 9248   1.683   5.409   6.162
 2232SOL    MW4 9249   1.652   5.446   6.234
 2233SOL     OW 9250   0.814   4.214   6.104
 2233SOL    HW2 9251   0.789   4.302   6.132
 2233SOL    HW3 9252   0.811   4.217   6.008
 2233SOL    MW4 9253   0.810   4.226   6.096
 2234SOL     OW 9254   0.256   4.242   6.032
 2234SOL    HW2 9255   0.288   4.330   6.014
 2234SOL    HW3 9256   0.244   4.240   6.127
 2234SOL    MW4 9257   0.259   4.254   6.044
 2235SOL     OW 9258   0.655   3.997   6.119
 2235SOL    HW2 9259   0.713   4.073   6.121
 2235SOL    HW3 9260   0.590   4.018   6.052
 2235SOL    MW4 9261   0.654   4.009   6.110
 2236SOL     OW 9262   0.742   4.924   6.294
 2236SOL    HW2 9263   0.822   4.927   6.346
 2236SOL    HW3 9264   0.770   4.891   6.208
 2236SOL    MW4 9265   0.756   4.920   6.289
 2237SOL     OW 9266   0.519   4.428   6.285
 2237SOL    HW2 9267   0.504   4.348   6.336
 2237SOL    HW3 9268   0.601   4.463   6.319
 2237SOL    MW4 9269   0.527   4.420   6.297
 2238SOL     OW 9270   0.661   4.254   6.662
 2238SOL    HW2 9271   0.567   4.250   6.680
 2238SOL    HW3 9272   0.691   4.163   6.671
 2238SOL    MW4 9273   0.652   4.242   6.665
 2239SOL     OW 9274   0.407   4.668   6.566
 2239SOL    HW2 9275   0.362   4.675   6.482
 2239SOL    HW3 9276   0.387   4.751   6.610
 2239SOL    MW4 9277   0.399   4.680   6.560
 2240SOL     OW 9278   0.104   5.514   6.441
 2240SOL    HW2 9279   0.193   5.506   6.476
 2240SOL    HW3 9280   0.068   5.426   6.446
 2240SOL    MW4 9281   0.111   5.501   6.446
 2241SOL     OW 9282   1.369   4.906   5.810
 2241SOL    HW2 9283   1.287   4.942   5.776
 2241SOL    HW3 9284   1.437   4.949   5.759
 2241SOL    MW4 9285   1.367   4.916   5.798
 2242SOL     OW 9286   0.368   5.041   6.476
 2242SOL    HW2 9287   0.344   5.094   6.552
 2242SOL    HW3 9288   0.424   5.099   6.424
 2242SOL    MW4 9289   0.372   5.056   6.479
 2243SOL     OW 9290   0.930   4.685   6.286
 2243SOL    HW2 9291   0.844   4.672   6.326
 2243SOL    HW3 9292   0.983   4.612   6.318
 2243SOL    MW4 9293   0.926   4.674   6.295
 2244SOL     OW 9294   0.921   5.047   6.003
 2244SOL    HW2 9295   0.898   5.109   6.071
 2244SOL    HW3 9296   0.878   4.965   6.029
 2244SOL    MW4 9297   0.913   5.043   6.014
 2245SOL     OW 9298   1.794   4.048   6.459
 2245SOL    HW2 9299   1.731   4.028   6.528
 2245SOL    HW3 9300   1.784   3.977   6.396
 2245SOL    MW4 9301   1.784   4.035   6.460
 2246SOL     OW 9302   0.418   4.020   5.971
 2246SOL    HW2 9303   0.392   3.982   5.887
 2246SOL    HW3 9304   0.355   4.090   5.987
 2246SOL    MW4 9305   0.407   4.023   5.962
 2247SOL     OW 9306   0.253   4.981   6.008
 2247SOL    HW2 9307   0.201   5.049   5.964
 2247SOL    HW3 9308   0.250   4.907   5.948
 2247SOL    MW4 9309   0.245   4.980   5.995
 2248SOL     OW 9310   0.915   5.444   5.786
 2248SOL    HW2 9311   0.870   5.460   5.869
 2248SOL    HW3 9312   0.846   5.409   5.728
 2248SOL    MW4 9313   0.901   5.441   5.788
 2249SOL     OW 9314   1.850   4.217   5.761
 2249SOL    HW2 9315   1.759   4.219   5.789
 2249SOL    HW3 9316   1.895   4.279   5.819
 2249SOL    MW4 9317   1.843   4.225   5.771
 2250SOL     OW 9318   1.595   4.820   6.111
 2250SOL    HW2 9319   1.505   4.820   6.146
 2250SOL    HW3 9320   1.588   4.866   6.028
 2250SOL    MW4 9321   1.582   4.826   6.105
 2251SOL     OW 9322   0.136   5.335   6.735
 2251SOL    HW2 9323   0.119   5.281   6.812
 2251SOL    HW3 9324   0.124   5.425   6.765
 2251SOL    MW4 9325   0.133   5.339   6.749
 2252SOL     OW 9326   1.502   4.798   6.503
 2252SOL    HW2 9327   1.505   4.732   6.434
 2252SOL    HW3 9328   1.587   4.841   6.499
 2252SOL    MW4 9329   1.514   4.794   6.494
 2253SOL     OW 9330   1.122   4.401   6.072
 2253SOL    HW2 9331   1.148   4.425   5.983
 2253SOL    HW3 9332   1.104   4.308   6.068
 2253SOL    MW4 9333   1.124   4.393   6.059
 2254SOL     OW 9334   1.787   5.021   5.923
 2254SOL    HW2 9335   1.743   5.062   5.998
 2254SOL    HW3 9336   1.844   5.089   5.888
 2254SOL    MW4 9337   1.789   5.035   5.928
 2255SOL     OW 9338   0.443   5.437   6.241
 2255SOL    HW2 9339   0.475   5.525   6.219
 2255SOL    HW3 9340   0.396   5.409   6.163
 2255SOL    MW4 9341   0.442   5.445   6.228
 2256SOL     OW 9342   1.827   3.799   6.290
 2256SOL    HW2 9343   1.881   3.750   6.352
 2256SOL    HW3 9344   1.770   3.733   6.251
 2256SOL    MW4 9345   1.827   3.783   6.292
 2257SOL     OW 9346   0.159   5.497   5.818
 2257SOL    HW2 9347   0.188   5.587   5.810
 2257SOL    HW3 9348   0.109   5.480   5.739
 2257SOL    MW4 9349   0.157   5.505   5.807
 2258SOL     OW 9350   0.946   3.752   6.703
 2258SOL    HW2 9351   0.905   3.830   6.665
 2258SOL    HW3 9352   1.040   3.770   6.698
 2258SOL    MW4 9353   0.952   3.764   6.698
 2259SOL     OW 9354   1.563   5.305   5.789
 2259SOL    HW2 9355   1.611   5.374   5.835
 2259SOL    HW3 9356   1.484   5.349   5.758
 2259SOL    MW4 9357   1.558   5.319   5.792
 2260SOL     OW 9358   0.961   4.430   5.733
 2260SOL    HW2 9359   0.963   4.377   5.654
 2260SOL    HW3 9360   1.049   4.467   5.739
 2260SOL    MW4 9361   0.973   4.429   5.722
 2261SOL     OW 9362   1.575   4.356   6.069
 2261SOL    HW2 9363   1.614   4.356   6.156
 2261SOL    HW3 9364   1.516   4.432   6.069
 2261SOL    MW4 9365   1.572   4.367   6.080
 2262SOL     OW 9366   1.061   4.349   6.792
 2262SOL    HW2 9367   1.136   4.378   6.739
 2262SOL    HW3 9368   0.993   4.414   6.776
 2262SOL    MW4 9369   1.062   4.361   6.782
 2263SOL     OW 9370   1.762   4.242   6.235
 2263SOL    HW2 9371   1.851   4.211   6.252
 2263SOL    HW3 9372   1.705   4.182   6.283
 2263SOL    MW4 9373   1.765   4.230   6.244
 2264SOL     OW 9374   0.188   3.956   6.264
 2264SOL    HW2 9375   0.179   3.896   6.190
 2264SOL    HW3 9376   0.121   3.927   6.327
 2264SOL    MW4 9377   0.178   3.943   6.262
 2265SOL     OW 9378   1.131   5.049   5.825
 2265SOL    HW2 9379   1.081   5.051   5.907
 2265SOL    HW3 9380   1.065   5.067   5.757
 2265SOL    MW4 9381   1.117   5.051   5.827
 2266SOL     OW 9382   0.135   4.129   6.627
 2266SOL    HW2 9383   0.107   4.220   6.636
 2266SOL    HW3 9384   0.072   4.090   6.566
 2266SOL    MW4 9385   0.122   4.135   6.621
 2267SOL     OW 9386   0.594   5.467   5.933
 2267SOL    HW2 9387   0.515   5.425   5.966
 2267SOL    HW3 9388   0.660   5.450   6.000
 2267SOL    MW4 9389   0.593   5.459   5.946
 2268SOL     OW 9390   0.730   4.882   5.640
 2268SOL    HW2 9391   0.652   4.828   5.627
 2268SOL    HW3 9392   0.701   4.955   5.693
 2268SOL    MW4 9393   0.716   4.884   5.645
 2269SOL     OW 9394   1.856   4.622   6.832
 2269SOL    HW2 9395   1.872   4.660   6.745
 2269SOL    HW3 9396   1.890   4.688   6.893
 2269SOL    MW4 9397   1.863   4.635   6.828
 2270SOL     OW 9398   1.648   5.331   6.501
 2270SOL    HW2 9399   1.677   5.398   6.562
 2270SOL    HW3 9400   1.629   5.255   6.556
 2270SOL    MW4 9401   1.650   5.331   6.516
 2271SOL     OW 9402   1.311   5.398   5.708
 2271SOL    HW2 9403   1.237   5.361   5.758
 2271SOL    HW3 9404   1.319   5.488   5.741
 2271SOL    MW4 9405   1.302   5.405   5.720
 2272SOL     OW 9406   1.535   5.072   5.650
 2272SOL    HW2 9407   1.482   5.121   5.586
 2272SOL    HW3 9408   1.566   5.138   5.711
 2272SOL    MW4 9409   1.533   5.086   5.648
 2273SOL     OW 9410   0.760   3.961   5.705
 2273SOL    HW2 9411   0.708   3.881   5.693
 2273SOL    HW3 9412   0.847   3.938   5.673
 2273SOL    MW4 9413   0.763   3.947   5.699
 2274SOL     OW 9414   0.266   4.832   6.756
 2274SOL    HW2 9415   0.319   4.907   6.781
 2274SOL    HW3 9416   0.185   4.870   6.722
 2274SOL    MW4 9417   0.262   4.847   6.756
 2275SOL     OW 9418   0.806   4.736   6.744
 2275SOL    HW2 9419   0.834   4.645   6.756
 2275SOL    HW3 9420   0.735   4.730   6.680
 2275SOL    MW4 9421   0.799   4.724   6.739
 2276SOL     OW 9422   0.121   4.601   6.162
 2276SOL    HW2 9423   0.212   4.616   6.189
 2276SOL    HW3 9424   0.124   4.522   6.108
 2276SOL    MW4 9425   0.133   4.593   6.160
 2277SOL     OW 9426   0.748   5.533   6.536
 2277SOL    HW2 9427   0.837   5.548   6.566
 2277SOL    HW3 9428   0.743   5.580   6.452
 2277SOL    MW4 9429   0.758   5.541   6.529
 2278SOL     OW 9430   0.129   5.213   6.201
 2278SOL    HW2 9431   0.101   5.252   6.283
 2278SOL    HW3 9432   0.149   5.122   6.223
 2278SOL    MW4 9433   0.127   5.205   6.214
 2279SOL     OW 9434   0.962   5.256   6.236
 2279SOL    HW2 9435   1.045   5.210   6.220
 2279SOL    HW3 9436   0.952   5.255   6.332
 2279SOL    MW4 9437   0.972   5.249   6.246
 2280SOL     OW 9438   1.794   4.401   6.550
 2280SOL    HW2 9439   1.883   4.431   6.532
 2280SOL    HW3 9440   1.774   4.341   6.479
 2280SOL    MW4 9441   1.803   4.398   6.539
 2281SOL     OW 9442   0.695   5.313   5.641
 2281SOL    HW2 9443   0.635   5.382   5.611
 2281SOL    HW3 9444   0.640   5.255   5.694
 2281SOL    MW4 9445   0.679   5.315   5.643
 2282SOL     OW 9446   1.133   3.958   5.864
 2282SOL    HW2 9447   1.066   3.934   5.801
 2282SOL    HW3 9448   1.198   4.007   5.813
 2282SOL    MW4 9449   1.133   3.960   5.849
 2283SOL     OW 9450   1.200   4.480   6.572
 2283SOL    HW2 9451   1.213   4.574   6.582
 2283SOL    HW3 9452   1.161   4.470   6.486
 2283SOL    MW4 9453   1.196   4.491   6.562
 2284SOL     OW 9454   0.652   4.675   6.376
 2284SOL    HW2 9455   0.563   4.666   6.409
 2284SOL    HW3 9456   0.656   4.765   6.344
 2284SOL    MW4 9457   0.641   4.686   6.376
 2285SOL     OW 9458   1.451   4.258   6.371
 2285SOL    HW2 9459   1.396   4.179   6.370
 2285SOL    HW3 9460   1.433   4.299   6.455
 2285SOL    MW4 9461   1.441   4.253   6.380
 2286SOL     OW 9462   1.070   4.462   6.328
 2286SOL    HW2 9463   1.007   4.394   6.352
 2286SOL    HW3 9464   1.090   4.443   6.236
 2286SOL    MW4 9465   1.064   4.449   6.320
 2287SOL     OW 9466   0.326   5.357   6.030
 2287SOL    HW2 9467   0.287   5.404   5.956
 2287SOL    HW3 9468   0.260   5.292   6.055
 2287SOL    MW4 9469   0.313   5.355   6.024
 2288SOL     OW 9470   0.818   4.766   6.054
 2288SOL    HW2 9471   0.820   4.740   5.961
 2288SOL    HW3 9472   0.876   4.703   6.097
 2288SOL    MW4 9473   0.826   4.755   6.048
 2289SOL     OW 9474   1.375   5.534   6.256
 2289SOL    HW2 9475   1.318   5.487   6.195
 2289SOL    HW3 9476   1.461   5.495   6.243
 2289SOL    MW4 9477   1.378   5.525   6.246
 2290SOL     OW 9478   1.328   4.010   6.387
 2290SOL    HW2 9479   1.356   3.942   6.448
 2290SOL    HW3 9480   1.242   3.981   6.357
 2290SOL    MW4 9481   1.321   3.997   6.391
 2291SOL     OW 9482   0.133   4.944   6.321
 2291SOL    HW2 9483   0.197   4.976   6.384
 2291SOL    HW3 9484   0.182   4.880   6.269
 2291SOL    MW4 9485   0.148   4.940   6.322
 2292SOL     OW 9486   1.308   4.114   5.722
 2292SOL    HW2 9487   1.281   4.180   5.658
 2292SOL    HW3 9488   1.378   4.157   5.772
 2292SOL    MW4 9489   1.313   4.127   5.719
 2293SOL     OW 9490   0.976   3.819   5.659
 2293SOL    HW2 9491   1.032   3.811   5.581
 2293SOL    HW3 9492   0.953   3.729   5.681
 2293SOL    MW4 9493   0.981   3.806   5.652
 2294SOL     OW 9494   1.481   4.670   5.864
 2294SOL    HW2 9495   1.448   4.759   5.854
 2294SOL    HW3 9496   1.446   4.641   5.949
 2294SOL    MW4 9497   1.471   4.679   5.875
 2295SOL     OW 9498   0.411   5.257   6.693
 2295SOL    HW2 9499   0.456   5.319   6.750
 2295SOL    HW3 9500   0.318   5.276   6.706
 2295SOL    MW4 9501   0.404   5.267   6.700
 2296SOL     OW 9502   0.833   5.325   6.801
 2296SOL    HW2 9503   0.857   5.314   6.710
 2296SOL    HW3 9504   0.756   5.382   6.799
 2296SOL    MW4 9505   0.825   5.330   6.790
 2297SOL     OW 9506   0.475   4.708   5.656
 2297SOL    HW2 9507   0.398   4.721   5.712
 2297SOL    HW3 9508   0.439   4.672   5.575
 2297SOL    MW4 9509   0.461   4.704   5.653
 2298SOL     OW 9510   1.128   4.681   5.899
 2298SOL    HW2 9511   1.038   4.702   5.874
 2298SOL    HW3 9512   1.155   4.754   5.955
 2298SOL    MW4 9513   1.120   4.693   5.902
 2299SOL     OW 9514   0.628   5.030   6.591
 2299SOL    HW2 9515   0.621   5.009   6.685
 2299SOL    HW3 9516   0.546   4.998   6.554
 2299SOL    MW4 9517   0.616   5.024   6.598
 2300SOL     OW 9518   0.757   3.797   6.306
 2300SOL    HW2 9519   0.686   3.858   6.288
 2300SOL    HW3 9520   0.808   3.794   6.225
 2300SOL    MW4 9521   0.753   3.803   6.293
 2301SOL     OW 9522   0.515   5.037   6.055
 2301SOL    HW2 9523   0.508   5.069   6.145
 2301SOL    HW3 9524   0.425   5.021   6.027
 2301SOL    MW4 9525   0.503   5.039   6.062
 2302SOL     OW 9526   1.224   5.395   6.454
 2302SOL    HW2 9527   1.271   5.468   6.413
 2302SOL    HW3 9528   1.145   5.434   6.490
 2302SOL    MW4 9529   1.219   5.410   6.453
 2303SOL     OW 9530   1.632   5.490   6.729
 2303SOL    HW2 9531   1.675   5.460   6.809
 2303SOL    HW3 9532   1.551   5.438   6.726
 2303SOL    MW4 9533   1.627   5.479   6.739
 2304SOL     OW 9534   0.518   4.321   5.769
 2304SOL    HW2 9535   0.484   4.377   5.839
 2304SOL    HW3 9536   0.589   4.271   5.809
 2304SOL    MW4 9537   0.524   4.322   5.783
 2305SOL     OW 9538   1.614   5.072   6.591
 2305SOL    HW2 9539   1.649   5.054   6.504
 2305SOL    HW3 9540   1.519   5.073   6.578
 2305SOL    MW4 9541   1.606   5.069   6.578
 2306SOL     OW 9542   1.574   4.207   5.833
 2306SOL    HW2 9543   1.566   4.278   5.770
 2306SOL    HW3 9544   1.592   4.251   5.916
 2306SOL    MW4 9545   1.575   4.221   5.835
 2307SOL     OW 9546   0.434   3.862   6.262
 2307SOL    HW2 9547   0.484   3.905   6.193
 2307SOL    HW3 9548   0.349   3.906   6.262
 2307SOL    MW4 9549   0.431   3.875   6.253
 2308SOL     OW 9550   1.243   4.469   5.808
 2308SOL    HW2 9551   1.290   4.487   5.727
 2308SOL    HW3 9552   1.209   4.553   5.836
 2308SOL    MW4 9553   1.245   4.483   5.801
 2309SOL     OW 9554   0.356   4.647   6.302
 2309SOL    HW2 9555   0.414   4.703   6.250
 2309SOL    HW3 9556   0.400   4.562   6.304
 2309SOL    MW4 9557   0.369   4.644   6.295
 2310SOL     OW 9558   1.496   3.999   6.139
 2310SOL    HW2 9559   1.418   3.949   6.164
 2310SOL    HW3 9560   1.467   4.090   6.139
 2310SOL    MW4 9561   1.482   4.003   6.142
 2311SOL     OW 9562   1.082   3.961   6.298
 2311SOL    HW2 9563   1.102   4.036   6.242
 2311SOL    HW3 9564   1.062   4.000   6.383
 2311SOL    MW4 9565   1.083   3.977   6.302
 2312SOL     OW 9566   0.978   5.211   5.630
 2312SOL    HW2 9567   1.005   5.289   5.582
 2312SOL    HW3 9568   0.885   5.226   5.649
 2312SOL    MW4 9569   0.969   5.224   5.626
 2313SOL     OW 9570   0.063   5.247   6.474
 2313SOL    HW2 9571   0.095   5.251   6.565
 2313SOL    HW3 9572  -0.032   5.255   6.482
 2313SOL    MW4 9573   0.055   5.250   6.487
 2314SOL     OW 9574   0.018   4.373   6.021
 2314SOL    HW2 9575  -0.042   4.345   6.091
 2314SOL    HW3 9576   0.092   4.313   6.027
 2314SOL    MW4 9577   0.020   4.362   6.030
 2315SOL     OW 9578   1.186   5.104   6.181
 2315SOL    HW2 9579   1.209   5.055   6.259
 2315SOL    HW3 9580   1.267   5.146   6.153
 2315SOL    MW4 9581   1.199   5.104   6.188
 2316SOL     OW 9582   0.398   4.079   6.646
 2316SOL    HW2 9583   0.428   3.993   6.617
 2316SOL    HW3 9584   0.303   4.072   6.649
 2316SOL    MW4 9585   0.390   4.068   6.644
 2317SOL     OW 9586   0.541   3.857   6.537
 2317SOL    HW2 9587   0.551   3.766   6.563
 2317SOL    HW3 9588   0.497   3.853   6.452
 2317SOL    MW4 9589   0.537   3.845   6.529
 2318SOL     OW 9590   1.692   4.179   6.708
 2318SOL    HW2 9591   1.625   4.212   6.768
 2318SOL    HW3 9592   1.735   4.257   6.674
 2318SOL    MW4 9593   1.690   4.194   6.712
 2319SOL     OW 9594   1.870   4.899   6.678
 2319SOL    HW2 9595   1.863   4.839   6.603
 2319SOL    HW3 9596   1.796   4.959   6.667
 2319SOL    MW4 9597   1.860   4.899   6.667
 2320SOL     OW 9598   1.252   4.761   6.596
 2320SOL    HW2 9599   1.266   4.733   6.687
 2320SOL    HW3 9600   1.338   4.792   6.568
 2320SOL    MW4 9601   1.265   4.762   6.605
 2321SOL     OW 9602   1.326   3.771   5.817
 2321SOL    HW2 9603   1.400   3.815   5.860
 2321SOL    HW3 9604   1.250   3.825   5.839
 2321SOL    MW4 9605   1.326   3.783   5.825
 2322SOL     OW 9606   1.386   4.546   6.095
 2322SOL    HW2 9607   1.301   4.516   6.065
 2322SOL    HW3 9608   1.378   4.553   6.190
 2322SOL    MW4 9609   1.374   4.544   6.104
 2323SOL     OW 9610   0.746   3.989   6.649
 2323SOL    HW2 9611   0.719   3.991   6.740
 2323SOL    HW3 9612   0.676   3.941   6.604
 2323SOL    MW4 9613   0.734   3.985   6.656
 2324SOL     OW 9614   0.759   4.212   5.821
 2324SOL    HW2 9615   0.832   4.261   5.784
 2324SOL    HW3 9616   0.775   4.121   5.795
 2324SOL    MW4 9617   0.771   4.207   5.814
 2325SOL     OW 9618   1.227   3.808   6.735
 2325SOL    HW2 9619   1.282   3.817   6.657
 2325SOL    HW3 9620   1.282   3.842   6.806
 2325SOL    MW4 9621   1.241   3.813   6.734
 2326SOL     OW 9622   0.234   4.721   5.919
 2326SOL    HW2 9623   0.171   4.737   5.848
 2326SOL    HW3 9624   0.181   4.684   5.990
 2326SOL    MW4 9625   0.219   4.718   5.919
 2327SOL     OW 9626   0.590   5.075   5.778
 2327SOL    HW2 9627   0.605   5.051   5.870
 2327SOL    HW3 9628   0.498   5.053   5.762
 2327SOL    MW4 9629   0.580   5.068   5.788
 2328SOL     OW 9630   1.129   5.306   5.930
 2328SOL    HW2 9631   1.137   5.224   5.881
 2328SOL    HW3 9632   1.048   5.345   5.897
 2328SOL    MW4 9633   1.119   5.301   5.920
 2329SOL     OW 9634   0.388   5.464   6.499
 2329SOL    HW2 9635   0.392   5.375   6.534
 2329SOL    HW3 9636   0.414   5.455   6.408
 2329SOL    MW4 9637   0.391   5.452   6.491
 2330SOL     OW 9638   1.005   4.942   6.742
 2330SOL    HW2 9639   0.937   4.876   6.758
 2330SOL    HW3 9640   1.023   4.936   6.649
 2330SOL    MW4 9641   0.998   4.933   6.733
 2331SOL     OW 9642   0.998   4.081   6.563
 2331SOL    HW2 9643   0.928   4.033   6.608
 2331SOL    HW3 9644   1.030   4.144   6.627
 2331SOL    MW4 9645   0.993   4.083   6.577
 2332SOL     OW 9646   0.465   4.187   6.376
 2332SOL    HW2 9647   0.536   4.135   6.339
 2332SOL    HW3 9648   0.451   4.152   6.463
 2332SOL    MW4 9649   0.473   4.176   6.383
 2333SOL     OW 9650   0.781   5.280   6.452
 2333SOL    HW2 9651   0.709   5.217   6.465
 2333SOL    HW3 9652   0.742   5.365   6.470
 2333SOL    MW4 9653   0.765   5.283   6.455
 2334SOL     OW 9654   1.101   4.128   6.100
 2334SOL    HW2 9655   1.123   4.065   6.032
 2334SOL    HW3 9656   1.006   4.120   6.111
 2334SOL    MW4 9657   1.091   4.119   6.092
 2335SOL     OW 9658   0.186   3.818   6.032
 2335SOL    HW2 9659   0.257   3.839   5.971
 2335SOL    HW3 9660   0.140   3.746   5.990
 2335SOL    MW4 9661   0.190   3.812   6.018
 2336SOL     OW 9662   1.755   5.192   6.132
 2336SOL    HW2 9663   1.725   5.125   6.193
 2336SOL    HW3 9664   1.849   5.198   6.146
 2336SOL    MW4 9665   1.763   5.184   6.142
 2337SOL     OW 9666   1.311   4.869   6.062
 2337SOL    HW2 9667   1.283   4.955   6.095
 2337SOL    HW3 9668   1.339   4.885   5.972
 2337SOL    MW4 9669   1.311   4.883   6.054
 2338SOL     OW 9670   0.973   3.789   6.115
 2338SOL    HW2 9671   1.010   3.848   6.180
 2338SOL    HW3 9672   0.950   3.845   6.041
 2338SOL    MW4 9673   0.974   3.804   6.114
 2339SOL     OW 9674   1.826   4.671   6.537
 2339SOL    HW2 9675   1.817   4.703   6.448
 2339SOL    HW3 9676   1.779   4.587   6.537
 2339SOL    MW4 9677   1.819   4.664   6.527
 2340SOL     OW 9678   1.738   4.602   6.238
 2340SOL    HW2 9679   1.832   4.591   6.226
 2340SOL    HW3 9680   1.714   4.674   6.179
 2340SOL    MW4 9681   1.748   4.610   6.229
 2341SOL     OW 9682   0.394   4.480   6.011
 2341SOL    HW2 9683   0.394   4.575   5.996
 2341SOL    HW3 9684   0.471   4.464   6.065
 2341SOL    MW4 9685   0.404   4.491   6.016
 2342SOL     OW 9686   0.153   4.211   6.300
 2342SOL    HW2 9687   0.215   4.218   6.373
 2342SOL    HW3 9688   0.153   4.118   6.277
 2342SOL    MW4 9689   0.161   4.200   6.307
 2343SOL     OW 9690   1.700   5.551   5.832
 2343SOL    HW2 9691   1.767   5.584   5.772
 2343SOL    HW3 9692   1.657   5.630   5.866
 2343SOL    MW4 9693   1.702   5.566   5.828
 2344SOL     OW 9694   0.835   4.472   6.784
 2344SOL    HW2 9695   0.793   4.390   6.760
 2344SOL    HW3 9696   0.836   4.471   6.880
 2344SOL    MW4 9697   0.828   4.461   6.793
 2345SOL     OW 9698   0.022   4.783   5.758
 2345SOL    HW2 9699  -0.009   4.848   5.821
 2345SOL    HW3 9700  -0.029   4.705   5.777
 2345SOL    MW4 9701   0.012   4.780   5.768
 2346SOL     OW 9702   1.434   3.795   6.506
 2346SOL    HW2 9703   1.522   3.804   6.543
 2346SOL    HW3 9704   1.444   3.736   6.432
 2346SOL    MW4 9705   1.448   3.789   6.500
 2347SOL     OW 9706   0.606   5.583   5.700
 2347SOL    HW2 9707   0.511   5.583   5.692
 2347SOL    HW3 9708   0.622   5.529   5.778
 2347SOL    MW4 9709   0.596   5.577   5.709
 2348SOL     OW 9710   1.451   4.403   5.615
 2348SOL    HW2 9711   1.379   4.379   5.557
 2348SOL    HW3 9712   1.517   4.440   5.557
 2348SOL    MW4 9713   1.450   4.405   5.600
 2349SOL     OW 9714   0.585   5.135   6.296
 2349SOL    HW2 9715   0.650   5.068   6.317
 2349SOL    HW3 9716   0.637   5.212   6.273
 2349SOL    MW4 9717   0.600   5.137   6.295
 2350SOL     OW 9718   0.846   4.300   6.426
 2350SOL    HW2 9719   0.786   4.318   6.498
 2350SOL    HW3 9720   0.880   4.212   6.445
 2350SOL    MW4 9721   0.842   4.290   6.439
 2351SOL     OW 9722   1.071   4.883   6.445
 2351SOL    HW2 9723   1.163   4.864   6.463
 2351SOL    HW3 9724   1.044   4.813   6.385
 2351SOL    MW4 9725   1.079   4.871   6.439
 2352SOL     OW 9726   0.864   4.703   5.800
 2352SOL    HW2 9727   0.850   4.615   5.765
 2352SOL    HW3 9728   0.815   4.760   5.741
 2352SOL    MW4 9729   0.856   4.698   5.788
 2353SOL     OW 9730   1.345   5.121   6.541
 2353SOL    HW2 9731   1.318   5.205   6.506
 2353SOL    HW3 9732   1.305   5.116   6.628
 2353SOL    MW4 9733   1.338   5.130   6.547
 2354SOL     OW 9734   0.277   4.427   6.579
 2354SOL    HW2 9735   0.227   4.426   6.660
 2354SOL    HW3 9736   0.297   4.519   6.563
 2354SOL    MW4 9737   0.273   4.439   6.587
 2355SOL     OW 9738   1.583   3.909   5.902
 2355SOL    HW2 9739   1.576   3.913   5.997
 2355SOL    HW3 9740   1.595   4.000   5.875
 2355SOL    MW4 9741   1.584   3.922   5.910
 2356SOL     OW 9742   0.872   4.472   6.016
 2356SOL    HW2 9743   0.852   4.458   5.923
 2356SOL    HW3 9744   0.965   4.451   6.023
 2356SOL    MW4 9745   0.882   4.467   6.005
 2357SOL     OW 9746   0.855   5.430   6.054
 2357SOL    HW2 9747   0.913   5.501   6.081
 2357SOL    HW3 9748   0.878   5.358   6.112
 2357SOL    MW4 9749   0.866   5.430   6.065
 2358SOL     OW 9750   1.650   3.892   6.644
 2358SOL    HW2 9751   1.695   3.810   6.663
 2358SOL    HW3 9752   1.670   3.948   6.720
 2358SOL    MW4 9753   1.660   3.888   6.656
 2359SOL     OW 9754   0.098   3.735   6.743
 2359SOL    HW2 9755   0.089   3.736   6.648
 2359SOL    HW3 9756   0.192   3.747   6.758
 2359SOL    MW4 9757   0.110   3.738   6.734
 2360SOL     OW 9758   1.735   4.928   6.363
 2360SOL    HW2 9759   1.714   4.874   6.286
 2360SOL    HW3 9760   1.831   4.926   6.367
 2360SOL    MW4 9761   1.744   4.921   6.352
 2361SOL     OW 9762   0.311   3.862   5.789
 2361SOL    HW2 9763   0.240   3.917   5.757
 2361SOL    HW3 9764   0.353   3.828   5.710
 2361SOL    MW4 9765   0.307   3.864   5.775
 2362SOL     OW 9766   1.435   4.359   6.625
 2362SOL    HW2 9767   1.358   4.405   6.591
 2362SOL    HW3 9768   1.492   4.428   6.659
 2362SOL    MW4 9769   1.432   4.374   6.625
 2363SOL     OW 9770   0.101   5.218   5.827
 2363SOL    HW2 9771   0.118   5.302   5.869
 2363SOL    HW3 9772   0.136   5.227   5.739
 2363SOL    MW4 9773   0.106   5.231   5.821
 2364SOL     OW 9774   1.373   5.307   6.044
 2364SOL    HW2 9775   1.436   5.297   5.973
 2364SOL    HW3 9776   1.290   5.327   5.999
 2364SOL    MW4 9777   1.370   5.308   6.029
 2365SOL     OW 9778   1.736   6.444   0.257
 2365SOL    HW2 9779   1.777   6.386   0.322
 2365SOL    HW3 9780   1.643   6.436   0.274
 2365SOL    MW4 9781   1.730   6.436   0.267
 2366SOL     OW 9782   1.602   6.376   1.252
 2366SOL    HW2 9783   1.557   6.443   1.303
 2366SOL    HW3 9784   1.690   6.412   1.238
 2366SOL    MW4 9785   1.608   6.389   1.256
 2367SOL     OW 9786   0.530   6.627   0.486
 2367SOL    HW2 9787   0.620   6.602   0.470
 2367SOL    HW3 9788   0.526   6.720   0.463
 2367SOL    MW4 9789   0.542   6.636   0.481
 2368SOL     OW 9790   1.646   7.330   0.628
 2368SOL    HW2 9791   1.658   7.276   0.706
 2368SOL    HW3 9792   1.683   7.278   0.557
 2368SOL    MW4 9793   1.652   7.315   0.629
 2369SOL     OW 9794   1.025   7.215   1.629
 2369SOL    HW2 9795   1.066   7.251   1.550
 2369SOL    HW3 9796   1.060   7.126   1.636
 2369SOL    MW4 9797   1.036   7.208   1.620
 2370SOL     OW 9798   1.582   6.770   1.233
 2370SOL    HW2 9799   1.503   6.735   1.191
 2370SOL    HW3 9800   1.609   6.842   1.177
 2370SOL    MW4 9801   1.575   6.775   1.220
 2371SOL     OW 9802   0.814   6.083   0.499
 2371SOL    HW2 9803   0.789   6.171   0.527
 2371SOL    HW3 9804   0.811   6.086   0.403
 2371SOL    MW4 9805   0.810   6.095   0.491
 2372SOL     OW 9806   0.256   6.111   0.427
 2372SOL    HW2 9807   0.288   6.199   0.409
 2372SOL    HW3 9808   0.244   6.109   0.522
 2372SOL    MW4 9809   0.259   6.123   0.439
 2373SOL     OW 9810   0.334   6.524   1.328
 2373SOL    HW2 9811   0.397   6.471   1.279
 2373SOL    HW3 9812   0.315   6.598   1.271
 2373SOL    MW4 9813   0.340   6.526   1.315
 2374SOL     OW 9814   0.655   5.866   0.514
 2374SOL    HW2 9815   0.713   5.942   0.516
 2374SOL    HW3 9816   0.590   5.887   0.447
 2374SOL    MW4 9817   0.654   5.878   0.505
 2375SOL     OW 9818   0.742   6.793   0.689
 2375SOL    HW2 9819   0.822   6.796   0.741
 2375SOL    HW3 9820   0.770   6.760   0.603
 2375SOL    MW4 9821   0.756   6.789   0.684
 2376SOL     OW 9822   0.767   7.134   1.592
 2376SOL    HW2 9823   0.851   7.160   1.631
 2376SOL    HW3 9824   0.791   7.078   1.518
 2376SOL    MW4 9825   0.781   7.130   1.587
 2377SOL     OW 9826   0.519   6.297   0.680
 2377SOL    HW2 9827   0.504   6.217   0.731
 2377SOL    HW3 9828   0.601   6.332   0.714
 2377SOL    MW4 9829   0.527   6.289   0.692
 2378SOL     OW 9830   0.856   6.983   1.365
 2378SOL    HW2 9831   0.820   7.049   1.305
 2378SOL    HW3 9832   0.784   6.921   1.378
 2378SOL    MW4 9833   0.842   6.983   1.359
 2379SOL     OW 9834   0.661   6.123   1.057
 2379SOL    HW2 9835   0.567   6.119   1.075
 2379SOL    HW3 9836   0.691   6.032   1.066
 2379SOL    MW4 9837   0.652   6.111   1.060
 2380SOL     OW 9838   0.407   6.537   0.961
 2380SOL    HW2 9839   0.362   6.544   0.877
 2380SOL    HW3 9840   0.387   6.620   1.005
 2380SOL    MW4 9841   0.399   6.549   0.955
 2381SOL     OW 9842   0.104   7.383   0.836
 2381SOL    HW2 9843   0.193   7.375   0.871
 2381SOL    HW3 9844   0.068   7.295   0.841
 2381SOL    MW4 9845   0.111   7.370   0.841
 2382SOL     OW 9846   1.369   6.775   0.205
 2382SOL    HW2 9847   1.287   6.811   0.171
 2382SOL    HW3 9848   1.437   6.818   0.154
 2382SOL    MW4 9849   1.367   6.785   0.193
 2383SOL     OW 9850   0.368   6.910   0.871
 2383SOL    HW2 9851   0.344   6.963   0.947
 2383SOL    HW3 9852   0.424   6.968   0.819
 2383SOL    MW4 9853   0.372   6.925   0.874
 2384SOL     OW 9854   0.930   6.554   0.681
 2384SOL    HW2 9855   0.844   6.541   0.721
 2384SOL    HW3 9856   0.983   6.481   0.713
 2384SOL    MW4 9857   0.926   6.543   0.690
 2385SOL     OW 9858   0.338   7.206   1.466
 2385SOL    HW2 9859   0.246   7.182   1.451
 2385SOL    HW3 9860   0.382   7.123   1.483
 2385SOL    MW4 9861   0.332   7.191   1.465
 2386SOL     OW 9862   0.921   6.916   0.398
 2386SOL    HW2 9863   0.898   6.978   0.466
 2386SOL    HW3 9864   0.878   6.834   0.424
 2386SOL    MW4 9865   0.913   6.912   0.409
 2387SOL     OW 9866   1.794   5.917   0.854
 2387SOL    HW2 9867   1.731   5.897   0.923
 2387SOL    HW3 9868   1.784   5.846   0.791
 2387SOL    MW4 9869   1.784   5.904   0.855
 2388SOL     OW 9870   0.418   5.889   0.366
 2388SOL    HW2 9871   0.392   5.851   0.282
 2388SOL    HW3 9872   0.355   5.959   0.382
 2388SOL    MW4 9873   0.407   5.892   0.357
 2389SOL     OW 9874   0.253   6.850   0.403
 2389SOL    HW2 9875   0.201   6.918   0.359
 2389SOL    HW3 9876   0.250   6.776   0.343
 2389SOL    MW4 9877   0.245   6.849   0.390
 2390SOL     OW 9878   0.915   7.313   0.181
 2390SOL    HW2 9879   0.870   7.329   0.264
 2390SOL    HW3 9880   0.846   7.278   0.123
 2390SOL    MW4 9881   0.901   7.310   0.183
 2391SOL     OW 9882   1.850   6.086   0.156
 2391SOL    HW2 9883   1.759   6.088   0.184
 2391SOL    HW3 9884   1.895   6.148   0.214
 2391SOL    MW4 9885   1.843   6.094   0.166
 2392SOL     OW 9886   1.595   6.689   0.506
 2392SOL    HW2 9887   1.505   6.689   0.541
 2392SOL    HW3 9888   1.588   6.735   0.423
 2392SOL    MW4 9889   1.582   6.695   0.500
 2393SOL     OW 9890   1.395   6.324   1.578
 2393SOL    HW2 9891   1.464   6.262   1.555
 2393SOL    HW3 9892   1.320   6.298   1.525
 2393SOL    MW4 9893   1.395   6.311   1.569
 2394SOL     OW 9894   0.136   7.204   1.130
 2394SOL    HW2 9895   0.119   7.150   1.207
 2394SOL    HW3 9896   0.124   7.294   1.160
 2394SOL    MW4 9897   0.133   7.208   1.144
 2395SOL     OW 9898   1.131   6.711   1.570
 2395SOL    HW2 9899   1.116   6.804   1.555
 2395SOL    HW3 9900   1.226   6.701   1.570
 2395SOL    MW4 9901   1.140   6.721   1.567
 2396SOL     OW 9902   0.927   6.135   1.771
 2396SOL    HW2 9903   1.017   6.136   1.738
 2396SOL    HW3 9904   0.886   6.060   1.729
 2396SOL    MW4 9905   0.933   6.125   1.762
 2397SOL     OW 9906   1.502   6.667   0.898
 2397SOL    HW2 9907   1.505   6.601   0.829
 2397SOL    HW3 9908   1.587   6.710   0.894
 2397SOL    MW4 9909   1.514   6.663   0.889
 2398SOL     OW 9910   1.122   6.270   0.467
 2398SOL    HW2 9911   1.148   6.294   0.378
 2398SOL    HW3 9912   1.104   6.177   0.463
 2398SOL    MW4 9913   1.124   6.262   0.454
 2399SOL     OW 9914   1.787   6.890   0.318
 2399SOL    HW2 9915   1.743   6.931   0.393
 2399SOL    HW3 9916   1.844   6.958   0.283
 2399SOL    MW4 9917   1.789   6.904   0.323
 2400SOL     OW 9918   0.707   5.939   1.721
 2400SOL    HW2 9919   0.717   5.865   1.661
 2400SOL    HW3 9920   0.743   5.908   1.804
 2400SOL    MW4 9921   0.713   5.925   1.723
 2401SOL     OW 9922   0.443   7.306   0.636
 2401SOL    HW2 9923   0.475   7.394   0.614
 2401SOL    HW3 9924   0.396   7.278   0.558
 2401SOL    MW4 9925   0.442   7.314   0.623
 2402SOL     OW 9926   1.827   5.668   0.685
 2402SOL    HW2 9927   1.881   5.619   0.747
 2402SOL    HW3 9928   1.770   5.602   0.646
 2402SOL    MW4 9929   1.827   5.652   0.687
 2403SOL     OW 9930   0.159   7.366   0.213
 2403SOL    HW2 9931   0.188   7.456   0.205
 2403SOL    HW3 9932   0.109   7.349   0.134
 2403SOL    MW4 9933   0.157   7.374   0.202
 2404SOL     OW 9934   0.946   5.621   1.098
 2404SOL    HW2 9935   0.905   5.699   1.060
 2404SOL    HW3 9936   1.040   5.639   1.093
 2404SOL    MW4 9937   0.952   5.633   1.093
 2405SOL     OW 9938   1.563   7.174   0.184
 2405SOL    HW2 9939   1.611   7.243   0.230
 2405SOL    HW3 9940   1.484   7.218   0.153
 2405SOL    MW4 9941   1.558   7.188   0.187
 2406SOL     OW 9942   0.961   6.299   0.128
 2406SOL    HW2 9943   0.963   6.246   0.049
 2406SOL    HW3 9944   1.049   6.336   0.134
 2406SOL    MW4 9945   0.973   6.298   0.117
 2407SOL     OW 9946   1.575   6.225   0.464
 2407SOL    HW2 9947   1.614   6.225   0.551
 2407SOL    HW3 9948   1.516   6.301   0.464
 2407SOL    MW4 9949   1.572   6.236   0.475
 2408SOL     OW 9950   0.892   6.592   1.593
 2408SOL    HW2 9951   0.869   6.572   1.683
 2408SOL    HW3 9952   0.977   6.636   1.598
 2408SOL    MW4 9953   0.899   6.595   1.605
 2409SOL     OW 9954   0.972   5.729   1.353
 2409SOL    HW2 9955   0.978   5.691   1.266
 2409SOL    HW3 9956   0.961   5.823   1.338
 2409SOL    MW4 9957   0.973   5.737   1.341
 2410SOL     OW 9958   1.061   6.218   1.187
 2410SOL    HW2 9959   1.136   6.247   1.134
 2410SOL    HW3 9960   0.993   6.283   1.171
 2410SOL    MW4 9961   1.062   6.230   1.177
 2411SOL     OW 9962   1.611   6.186   1.464
 2411SOL    HW2 9963   1.592   6.095   1.443
 2411SOL    HW3 9964   1.589   6.235   1.385
 2411SOL    MW4 9965   1.606   6.179   1.451
 2412SOL     OW 9966   1.753   7.280   1.368
 2412SOL    HW2 9967   1.681   7.242   1.419
 2412SOL    HW3 9968   1.770   7.365   1.409
 2412SOL    MW4 9969   1.747   7.285   1.380
 2413SOL     OW 9970   1.058   5.924   1.570
 2413SOL    HW2 9971   1.024   5.963   1.489
 2413SOL    HW3 9972   1.036   5.832   1.563
 2413SOL    MW4 9973   1.051   5.917   1.560
 2414SOL     OW 9974   1.467   6.738   1.646
 2414SOL    HW2 9975   1.549   6.779   1.676
 2414SOL    HW3 9976   1.430   6.700   1.726
 2414SOL    MW4 9977   1.473   6.739   1.661
 2415SOL     OW 9978   1.762   6.111   0.630
 2415SOL    HW2 9979   1.851   6.080   0.647
 2415SOL    HW3 9980   1.705   6.051   0.678
 2415SOL    MW4 9981   1.765   6.099   0.639
 2416SOL     OW 9982   0.188   5.825   0.659
 2416SOL    HW2 9983   0.179   5.765   0.585
 2416SOL    HW3 9984   0.121   5.796   0.722
 2416SOL    MW4 9985   0.178   5.812   0.657
 2417SOL     OW 9986   1.131   6.918   0.220
 2417SOL    HW2 9987   1.081   6.920   0.302
 2417SOL    HW3 9988   1.065   6.936   0.152
 2417SOL    MW4 9989   1.117   6.920   0.222
 2418SOL     OW 9990   0.135   5.998   1.022
 2418SOL    HW2 9991   0.107   6.089   1.031
 2418SOL    HW3 9992   0.072   5.959   0.961
 2418SOL    MW4 9993   0.122   6.004   1.016
 2419SOL     OW 9994   0.594   7.336   0.328
 2419SOL    HW2 9995   0.515   7.294   0.361
 2419SOL    HW3 9996   0.660   7.319   0.395
 2419SOL    MW4 9997   0.593   7.328   0.341
 2420SOL     OW 9998   1.722   6.856   1.725
 2420SOL    HW2 9999   1.772   6.782   1.757
 2420SOL    HW310000   1.668   6.883   1.800
 2420SOL    MW410001   1.722   6.850   1.738
 2421SOL     OW10002   0.730   6.751   0.035
 2421SOL    HW210003   0.652   6.697   0.022
 2421SOL    HW310004   0.701   6.824   0.088
 2421SOL    MW410005   0.716   6.753   0.040
 2422SOL     OW10006   1.856   6.491   1.227
 2422SOL    HW210007   1.872   6.529   1.140
 2422SOL    HW310008   1.890   6.557   1.288
 2422SOL    MW410009   1.863   6.504   1.223
 2423SOL     OW10010   1.648   7.200   0.896
 2423SOL    HW210011   1.677   7.267   0.957
 2423SOL    HW310012   1.629   7.124   0.951
 2423SOL    MW410013   1.650   7.200   0.911
 2424SOL     OW10014   1.311   7.267   0.103
 2424SOL    HW210015   1.237   7.230   0.153
 2424SOL    HW310016   1.319   7.357   0.136
 2424SOL    MW410017   1.302   7.274   0.115
 2425SOL     OW10018   0.119   6.273   1.192
 2425SOL    HW210019   0.181   6.303   1.258
 2425SOL    HW310020   0.053   6.342   1.186
 2425SOL    MW410021   0.118   6.286   1.199
 2426SOL     OW10022   1.535   6.941   0.045
 2426SOL    HW210023   1.482   6.990  -0.019
 2426SOL    HW310024   1.566   7.007   0.106
 2426SOL    MW410025   1.533   6.955   0.043
 2427SOL     OW10026   0.760   5.830   0.100
 2427SOL    HW210027   0.708   5.750   0.088
 2427SOL    HW310028   0.847   5.807   0.068
 2427SOL    MW410029   0.763   5.816   0.094
 2428SOL     OW10030   0.214   7.382   1.644
 2428SOL    HW210031   0.188   7.450   1.582
 2428SOL    HW310032   0.262   7.319   1.592
 2428SOL    MW410033   0.216   7.382   1.630
 2429SOL     OW10034   0.266   6.701   1.151
 2429SOL    HW210035   0.319   6.776   1.176
 2429SOL    HW310036   0.185   6.739   1.117
 2429SOL    MW410037   0.262   6.716   1.151
 2430SOL     OW10038   0.806   6.605   1.139
 2430SOL    HW210039   0.834   6.514   1.151
 2430SOL    HW310040   0.735   6.599   1.075
 2430SOL    MW410041   0.799   6.593   1.134
 2431SOL     OW10042   0.121   6.470   0.557
 2431SOL    HW210043   0.212   6.485   0.584
 2431SOL    HW310044   0.124   6.391   0.503
 2431SOL    MW410045   0.133   6.462   0.555
 2432SOL     OW10046   0.357   6.178   1.811
 2432SOL    HW210047   0.304   6.258   1.818
 2432SOL    HW310048   0.427   6.190   1.876
 2432SOL    MW410049   0.359   6.191   1.819
 2433SOL     OW10050   0.743   5.728   1.518
 2433SOL    HW210051   0.720   5.636   1.520
 2433SOL    HW310052   0.829   5.730   1.475
 2433SOL    MW410053   0.750   5.718   1.514
 2434SOL     OW10054   0.427   6.252   1.557
 2434SOL    HW210055   0.507   6.302   1.543
 2434SOL    HW310056   0.418   6.246   1.652
 2434SOL    MW410057   0.436   6.258   1.567
 2435SOL     OW10058   0.748   7.402   0.931
 2435SOL    HW210059   0.837   7.417   0.961
 2435SOL    HW310060   0.743   7.449   0.847
 2435SOL    MW410061   0.758   7.410   0.924
 2436SOL     OW10062   1.404   5.777   1.828
 2436SOL    HW210063   1.460   5.704   1.854
 2436SOL    HW310064   1.374   5.815   1.910
 2436SOL    MW410065   1.408   5.772   1.841
 2437SOL     OW10066   0.129   7.082   0.596
 2437SOL    HW210067   0.101   7.121   0.678
 2437SOL    HW310068   0.149   6.991   0.618
 2437SOL    MW410069   0.127   7.074   0.609
 2438SOL     OW10070   0.962   7.125   0.631
 2438SOL    HW210071   1.045   7.079   0.615
 2438SOL    HW310072   0.952   7.124   0.727
 2438SOL    MW410073   0.972   7.118   0.641
 2439SOL     OW10074   1.645   6.449   1.825
 2439SOL    HW210075   1.700   6.373   1.806
 2439SOL    HW310076   1.647   6.457   1.920
 2439SOL    MW410077   1.653   6.440   1.833
 2440SOL     OW10078   0.695   7.182   0.036
 2440SOL    HW210079   0.635   7.251   0.006
 2440SOL    HW310080   0.640   7.124   0.089
 2440SOL    MW410081   0.679   7.184   0.038
 2441SOL     OW10082   1.133   5.827   0.259
 2441SOL    HW210083   1.066   5.803   0.196
 2441SOL    HW310084   1.198   5.876   0.208
 2441SOL    MW410085   1.133   5.829   0.244
 2442SOL     OW10086   0.940   6.011   1.344
 2442SOL    HW210087   0.859   6.052   1.372
 2442SOL    HW310088   0.987   6.079   1.296
 2442SOL    MW410089   0.935   6.026   1.342
 2443SOL     OW10090   1.200   6.349   0.967
 2443SOL    HW210091   1.213   6.443   0.977
 2443SOL    HW310092   1.161   6.339   0.881
 2443SOL    MW410093   1.196   6.360   0.957
 2444SOL     OW10094   0.652   6.544   0.771
 2444SOL    HW210095   0.563   6.535   0.804
 2444SOL    HW310096   0.656   6.634   0.739
 2444SOL    MW410097   0.641   6.555   0.771
 2445SOL     OW10098   1.451   6.127   0.766
 2445SOL    HW210099   1.396   6.048   0.765
 2445SOL    HW310100   1.433   6.168   0.850
 2445SOL    MW410101   1.441   6.122   0.775
 2446SOL     OW10102   0.422   5.814   1.583
 2446SOL    HW210103   0.343   5.832   1.635
 2446SOL    HW310104   0.417   5.876   1.510
 2446SOL    MW410105   0.412   5.824   1.580
 2447SOL     OW10106   1.070   6.331   0.723
 2447SOL    HW210107   1.007   6.263   0.747
 2447SOL    HW310108   1.090   6.312   0.631
 2447SOL    MW410109   1.064   6.318   0.715
 2448SOL     OW10110   0.326   7.226   0.425
 2448SOL    HW210111   0.287   7.273   0.351
 2448SOL    HW310112   0.260   7.161   0.450
 2448SOL    MW410113   0.313   7.224   0.419
 2449SOL     OW10114   0.818   6.635   0.449
 2449SOL    HW210115   0.820   6.609   0.356
 2449SOL    HW310116   0.876   6.572   0.492
 2449SOL    MW410117   0.826   6.624   0.443
 2450SOL     OW10118   1.371   7.195   1.221
 2450SOL    HW210119   1.296   7.241   1.259
 2450SOL    HW310120   1.353   7.102   1.238
 2450SOL    MW410121   1.360   7.189   1.229
 2451SOL     OW10122   1.375   7.403   0.651
 2451SOL    HW210123   1.318   7.356   0.590
 2451SOL    HW310124   1.461   7.364   0.638
 2451SOL    MW410125   1.378   7.394   0.641
 2452SOL     OW10126   1.328   5.879   0.782
 2452SOL    HW210127   1.356   5.811   0.843
 2452SOL    HW310128   1.242   5.850   0.752
 2452SOL    MW410129   1.321   5.866   0.786
 2453SOL     OW10130   0.133   6.813   0.716
 2453SOL    HW210131   0.197   6.845   0.779
 2453SOL    HW310132   0.182   6.749   0.664
 2453SOL    MW410133   0.148   6.809   0.717
 2454SOL     OW10134   0.633   6.889   1.698
 2454SOL    HW210135   0.681   6.972   1.685
 2454SOL    HW310136   0.690   6.837   1.754
 2454SOL    MW410137   0.647   6.893   1.704
 2455SOL     OW10138   0.209   7.131   1.838
 2455SOL    HW210139   0.265   7.055   1.853
 2455SOL    HW310140   0.158   7.109   1.760
 2455SOL    MW410141   0.209   7.118   1.829
 2456SOL     OW10142   1.308   5.983   0.117
 2456SOL    HW210143   1.281   6.049   0.053
 2456SOL    HW310144   1.378   6.026   0.167
 2456SOL    MW410145   1.313   5.996   0.114
 2457SOL     OW10146   0.976   5.688   0.054
 2457SOL    HW210147   1.032   5.680  -0.024
 2457SOL    HW310148   0.953   5.598   0.076
 2457SOL    MW410149   0.981   5.675   0.047
 2458SOL     OW10150   1.481   6.539   0.259
 2458SOL    HW210151   1.448   6.628   0.249
 2458SOL    HW310152   1.446   6.510   0.344
 2458SOL    MW410153   1.471   6.548   0.270
 2459SOL     OW10154   1.094   6.968   1.447
 2459SOL    HW210155   1.005   6.974   1.415
 2459SOL    HW310156   1.138   7.047   1.415
 2459SOL    MW410157   1.089   6.978   1.439
 2460SOL     OW10158   0.387   5.636   1.789
 2460SOL    HW210159   0.315   5.601   1.737
 2460SOL    HW310160   0.445   5.677   1.724
 2460SOL    MW410161   0.385   5.637   1.774
 2461SOL     OW10162   0.411   7.126   1.088
 2461SOL    HW210163   0.456   7.188   1.145
 2461SOL    HW310164   0.318   7.145   1.101
 2461SOL    MW410165   0.404   7.136   1.095
 2462SOL     OW10166   1.851   6.655   1.442
 2462SOL    HW210167   1.766   6.668   1.401
 2462SOL    HW310168   1.831   6.619   1.529
 2462SOL    MW410169   1.838   6.651   1.447
 2463SOL     OW10170   0.833   7.194   1.196
 2463SOL    HW210171   0.857   7.183   1.105
 2463SOL    HW310172   0.756   7.251   1.194
 2463SOL    MW410173   0.825   7.199   1.185
 2464SOL     OW10174   0.475   6.577   0.051
 2464SOL    HW210175   0.398   6.590   0.107
 2464SOL    HW310176   0.439   6.541  -0.030
 2464SOL    MW410177   0.461   6.573   0.048
 2465SOL     OW10178   1.128   6.550   0.294
 2465SOL    HW210179   1.038   6.571   0.269
 2465SOL    HW310180   1.155   6.623   0.350
 2465SOL    MW410181   1.120   6.562   0.297
 2466SOL     OW10182   0.628   6.899   0.986
 2466SOL    HW210183   0.621   6.878   1.080
 2466SOL    HW310184   0.546   6.867   0.949
 2466SOL    MW410185   0.616   6.893   0.993
 2467SOL     OW10186   1.492   5.909   1.388
 2467SOL    HW210187   1.439   5.911   1.468
 2467SOL    HW310188   1.477   5.822   1.351
 2467SOL    MW410189   1.484   5.899   1.393
 2468SOL     OW10190   1.828   5.833   1.261
 2468SOL    HW210191   1.809   5.900   1.196
 2468SOL    HW310192   1.885   5.771   1.216
 2468SOL    MW410193   1.832   5.834   1.247
 2469SOL     OW10194   0.074   6.991   1.649
 2469SOL    HW210195   0.118   6.924   1.595
 2469SOL    HW310196  -0.011   6.953   1.669
 2469SOL    MW410197   0.069   6.977   1.645
 2470SOL     OW10198   0.757   5.666   0.701
 2470SOL    HW210199   0.686   5.727   0.683
 2470SOL    HW310200   0.808   5.663   0.620
 2470SOL    MW410201   0.753   5.672   0.688
 2471SOL     OW10202   0.515   6.906   0.450
 2471SOL    HW210203   0.508   6.938   0.540
 2471SOL    HW310204   0.425   6.890   0.422
 2471SOL    MW410205   0.503   6.908   0.457
 2472SOL     OW10206   1.110   7.299   1.359
 2472SOL    HW210207   1.030   7.284   1.309
 2472SOL    HW310208   1.117   7.394   1.366
 2472SOL    MW410209   1.101   7.310   1.353
 2473SOL     OW10210   1.224   7.264   0.849
 2473SOL    HW210211   1.271   7.337   0.808
 2473SOL    HW310212   1.145   7.303   0.885
 2473SOL    MW410213   1.219   7.279   0.848
 2474SOL     OW10214   1.632   7.359   1.124
 2474SOL    HW210215   1.675   7.329   1.204
 2474SOL    HW310216   1.551   7.307   1.121
 2474SOL    MW410217   1.627   7.348   1.134
 2475SOL     OW10218   0.717   6.323   1.831
 2475SOL    HW210219   0.787   6.265   1.803
 2475SOL    HW310220   0.660   6.268   1.886
 2475SOL    MW410221   0.719   6.310   1.835
 2476SOL     OW10222   1.504   6.535   1.464
 2476SOL    HW210223   1.509   6.588   1.544
 2476SOL    HW310224   1.466   6.452   1.492
 2476SOL    MW410225   1.500   6.530   1.479
 2477SOL     OW10226   1.144   5.670   1.710
 2477SOL    HW210227   1.139   5.577   1.691
 2477SOL    HW310228   1.227   5.681   1.756
 2477SOL    MW410229   1.152   5.659   1.714
 2478SOL     OW10230   0.518   6.190   0.164
 2478SOL    HW210231   0.484   6.246   0.234
 2478SOL    HW310232   0.589   6.140   0.204
 2478SOL    MW410233   0.524   6.191   0.178
 2479SOL     OW10234   1.614   6.941   0.986
 2479SOL    HW210235   1.649   6.923   0.899
 2479SOL    HW310236   1.519   6.942   0.973
 2479SOL    MW410237   1.606   6.938   0.973
 2480SOL     OW10238   1.043   6.589   1.355
 2480SOL    HW210239   1.086   6.624   1.433
 2480SOL    HW310240   1.026   6.666   1.301
 2480SOL    MW410241   1.046   6.604   1.358
 2481SOL     OW10242   1.574   6.076   0.228
 2481SOL    HW210243   1.566   6.147   0.165
 2481SOL    HW310244   1.592   6.120   0.311
 2481SOL    MW410245   1.575   6.090   0.230
 2482SOL     OW10246   0.434   5.731   0.657
 2482SOL    HW210247   0.484   5.774   0.588
 2482SOL    HW310248   0.349   5.775   0.657
 2482SOL    MW410249   0.431   5.744   0.648
 2483SOL     OW10250   0.193   6.793   1.517
 2483SOL    HW210251   0.221   6.746   1.595
 2483SOL    HW310252   0.114   6.748   1.488
 2483SOL    MW410253   0.186   6.782   1.523
 2484SOL     OW10254   0.701   6.120   1.484
 2484SOL    HW210255   0.673   6.208   1.508
 2484SOL    HW310256   0.670   6.064   1.555
 2484SOL    MW410257   0.693   6.123   1.496
 2485SOL     OW10258   1.243   6.338   0.203
 2485SOL    HW210259   1.290   6.356   0.122
 2485SOL    HW310260   1.209   6.422   0.231
 2485SOL    MW410261   1.245   6.352   0.196
 2486SOL     OW10262   0.356   6.516   0.697
 2486SOL    HW210263   0.414   6.572   0.645
 2486SOL    HW310264   0.400   6.431   0.699
 2486SOL    MW410265   0.369   6.513   0.690
 2487SOL     OW10266   1.496   5.868   0.534
 2487SOL    HW210267   1.418   5.818   0.559
 2487SOL    HW310268   1.467   5.959   0.534
 2487SOL    MW410269   1.482   5.872   0.537
 2488SOL     OW10270   1.082   5.830   0.693
 2488SOL    HW210271   1.102   5.905   0.637
 2488SOL    HW310272   1.062   5.869   0.778
 2488SOL    MW410273   1.083   5.846   0.697
 2489SOL     OW10274   0.978   7.080   0.025
 2489SOL    HW210275   1.005   7.158  -0.023
 2489SOL    HW310276   0.885   7.095   0.044
 2489SOL    MW410277   0.969   7.093   0.021
 2490SOL     OW10278   1.842   6.603   1.712
 2490SOL    HW210279   1.755   6.583   1.748
 2490SOL    HW310280   1.896   6.529   1.737
 2490SOL    MW410281   1.837   6.592   1.720
 2491SOL     OW10282   0.063   7.116   0.869
 2491SOL    HW210283   0.095   7.120   0.960
 2491SOL    HW310284  -0.032   7.124   0.877
 2491SOL    MW410285   0.055   7.119   0.882
 2492SOL     OW10286   0.018   6.242   0.416
 2492SOL    HW210287  -0.042   6.214   0.486
 2492SOL    HW310288   0.092   6.182   0.422
 2492SOL    MW410289   0.020   6.231   0.425
 2493SOL     OW10290   1.586   7.454   1.850
 2493SOL    HW210291   1.631   7.378   1.815
 2493SOL    HW310292   1.624   7.467   1.937
 2493SOL    MW410293   1.596   7.447   1.856
 2494SOL     OW10294   1.186   6.973   0.576
 2494SOL    HW210295   1.209   6.924   0.654
 2494SOL    HW310296   1.267   7.015   0.548
 2494SOL    MW410297   1.199   6.973   0.583
 2495SOL     OW10298   0.444   5.981   1.305
 2495SOL    HW210299   0.477   6.062   1.345
 2495SOL    HW310300   0.417   6.007   1.217
 2495SOL    MW410301   0.443   5.995   1.299
 2496SOL     OW10302   0.398   5.948   1.041
 2496SOL    HW210303   0.428   5.862   1.012
 2496SOL    HW310304   0.303   5.941   1.044
 2496SOL    MW410305   0.390   5.937   1.039
 2497SOL     OW10306   1.227   6.157   1.732
 2497SOL    HW210307   1.279   6.092   1.685
 2497SOL    HW310308   1.185   6.208   1.662
 2497SOL    MW410309   1.228   6.154   1.715
 2498SOL     OW10310   1.326   5.952   1.593
 2498SOL    HW210311   1.233   5.936   1.580
 2498SOL    HW310312   1.352   5.890   1.661
 2498SOL    MW410313   1.316   5.942   1.600
 2499SOL     OW10314   0.541   5.726   0.932
 2499SOL    HW210315   0.551   5.635   0.958
 2499SOL    HW310316   0.497   5.722   0.847
 2499SOL    MW410317   0.537   5.714   0.924
 2500SOL     OW10318   0.635   7.341   1.478
 2500SOL    HW210319   0.552   7.326   1.523
 2500SOL    HW310320   0.694   7.274   1.513
 2500SOL    MW410321   0.633   7.331   1.488
 2501SOL     OW10322   1.692   6.048   1.103
 2501SOL    HW210323   1.625   6.081   1.163
 2501SOL    HW310324   1.735   6.126   1.069
 2501SOL    MW410325   1.690   6.063   1.107
 2502SOL     OW10326   1.870   6.768   1.073
 2502SOL    HW210327   1.863   6.708   0.998
 2502SOL    HW310328   1.796   6.828   1.062
 2502SOL    MW410329   1.860   6.768   1.062
 2503SOL     OW10330   1.252   6.630   0.991
 2503SOL    HW210331   1.266   6.602   1.082
 2503SOL    HW310332   1.338   6.661   0.963
 2503SOL    MW410333   1.265   6.631   1.000
 2504SOL     OW10334   1.335   6.125   1.270
 2504SOL    HW210335   1.356   6.126   1.177
 2504SOL    HW310336   1.380   6.047   1.303
 2504SOL    MW410337   1.342   6.115   1.262
 2505SOL     OW10338   1.828   6.256   1.812
 2505SOL    HW210339   1.865   6.201   1.881
 2505SOL    HW310340   1.853   6.213   1.730
 2505SOL    MW410341   1.835   6.244   1.811
 2506SOL     OW10342   1.375   6.554   1.863
 2506SOL    HW210343   1.441   6.502   1.817
 2506SOL    HW310344   1.395   6.541   1.956
 2506SOL    MW410345   1.386   6.545   1.870
 2507SOL     OW10346   1.326   5.640   0.212
 2507SOL    HW210347   1.400   5.684   0.255
 2507SOL    HW310348   1.250   5.694   0.234
 2507SOL    MW410349   1.326   5.652   0.220
 2508SOL     OW10350   1.386   6.415   0.490
 2508SOL    HW210351   1.301   6.385   0.460
 2508SOL    HW310352   1.378   6.422   0.585
 2508SOL    MW410353   1.374   6.413   0.499
 2509SOL     OW10354   0.462   6.878   1.221
 2509SOL    HW210355   0.474   6.905   1.312
 2509SOL    HW310356   0.443   6.959   1.174
 2509SOL    MW410357   0.461   6.893   1.226
 2510SOL     OW10358   0.746   5.858   1.044
 2510SOL    HW210359   0.719   5.860   1.135
 2510SOL    HW310360   0.676   5.810   0.999
 2510SOL    MW410361   0.734   5.854   1.051
 2511SOL     OW10362   0.600   7.350   1.206
 2511SOL    HW210363   0.652   7.427   1.183
 2511SOL    HW310364   0.609   7.342   1.301
 2511SOL    MW410365   0.609   7.357   1.217
 2512SOL     OW10366   1.502   6.935   1.438
 2512SOL    HW210367   1.487   6.864   1.501
 2512SOL    HW310368   1.548   6.893   1.366
 2512SOL    MW410369   1.508   6.919   1.438
 2513SOL     OW10370   0.576   6.666   1.555
 2513SOL    HW210371   0.613   6.671   1.467
 2513SOL    HW310372   0.615   6.739   1.602
 2513SOL    MW410373   0.586   6.676   1.550
 2514SOL     OW10374   0.756   6.709   1.367
 2514SOL    HW210375   0.815   6.655   1.420
 2514SOL    HW310376   0.771   6.681   1.277
 2514SOL    MW410377   0.766   6.698   1.363
 2515SOL     OW10378   0.759   6.081   0.216
 2515SOL    HW210379   0.832   6.130   0.179
 2515SOL    HW310380   0.775   5.990   0.190
 2515SOL    MW410381   0.771   6.076   0.209
 2516SOL     OW10382   1.567   7.198   1.539
 2516SOL    HW210383   1.609   7.183   1.624
 2516SOL    HW310384   1.558   7.111   1.501
 2516SOL    MW410385   1.571   7.186   1.546
 2517SOL     OW10386   1.227   5.677   1.130
 2517SOL    HW210387   1.282   5.686   1.052
 2517SOL    HW310388   1.282   5.711   1.201
 2517SOL    MW410389   1.241   5.682   1.129
 2518SOL     OW10390   0.234   6.590   0.314
 2518SOL    HW210391   0.171   6.606   0.243
 2518SOL    HW310392   0.181   6.553   0.385
 2518SOL    MW410393   0.219   6.587   0.314
 2519SOL     OW10394   0.590   6.944   0.173
 2519SOL    HW210395   0.605   6.920   0.265
 2519SOL    HW310396   0.498   6.922   0.157
 2519SOL    MW410397   0.580   6.937   0.183
 2520SOL     OW10398   1.129   7.175   0.325
 2520SOL    HW210399   1.137   7.093   0.276
 2520SOL    HW310400   1.048   7.214   0.292
 2520SOL    MW410401   1.119   7.170   0.315
 2521SOL     OW10402   0.388   7.333   0.894
 2521SOL    HW210403   0.392   7.244   0.929
 2521SOL    HW310404   0.414   7.324   0.803
 2521SOL    MW410405   0.391   7.321   0.886
 2522SOL     OW10406   1.005   6.811   1.137
 2522SOL    HW210407   0.937   6.745   1.153
 2522SOL    HW310408   1.023   6.805   1.044
 2522SOL    MW410409   0.998   6.802   1.128
 2523SOL     OW10410   0.094   7.086   1.388
 2523SOL    HW210411   0.084   7.044   1.474
 2523SOL    HW310412   0.015   7.139   1.378
 2523SOL    MW410413   0.083   7.087   1.399
 2524SOL     OW10414   0.998   5.950   0.958
 2524SOL    HW210415   0.928   5.902   1.003
 2524SOL    HW310416   1.030   6.013   1.022
 2524SOL    MW410417   0.993   5.952   0.972
 2525SOL     OW10418   0.649   6.386   1.578
 2525SOL    HW210419   0.642   6.481   1.566
 2525SOL    HW310420   0.658   6.375   1.673
 2525SOL    MW410421   0.650   6.398   1.588
 2526SOL     OW10422   0.370   6.901   1.836
 2526SOL    HW210423   0.442   6.903   1.773
 2526SOL    HW310424   0.340   6.810   1.835
 2526SOL    MW410425   0.375   6.890   1.828
 2527SOL     OW10426   1.454   5.664   1.303
 2527SOL    HW210427   1.525   5.610   1.267
 2527SOL    HW310428   1.453   5.643   1.396
 2527SOL    MW410429   1.463   5.655   1.311
 2528SOL     OW10430   1.654   7.194   1.787
 2528SOL    HW210431   1.627   7.191   1.878
 2528SOL    HW310432   1.750   7.198   1.790
 2528SOL    MW410433   1.664   7.194   1.799
 2529SOL     OW10434   0.465   6.056   0.771
 2529SOL    HW210435   0.536   6.004   0.734
 2529SOL    HW310436   0.451   6.021   0.858
 2529SOL    MW410437   0.473   6.045   0.778
 2530SOL     OW10438   0.020   7.391   1.843
 2530SOL    HW210439   0.070   7.369   1.765
 2530SOL    HW310440   0.028   7.486   1.851
 2530SOL    MW410441   0.028   7.400   1.834
 2531SOL     OW10442   0.781   7.149   0.847
 2531SOL    HW210443   0.709   7.086   0.860
 2531SOL    HW310444   0.742   7.234   0.865
 2531SOL    MW410445   0.765   7.152   0.850
 2532SOL     OW10446   1.101   5.997   0.495
 2532SOL    HW210447   1.123   5.934   0.427
 2532SOL    HW310448   1.006   5.989   0.506
 2532SOL    MW410449   1.091   5.988   0.487
 2533SOL     OW10450   0.186   5.687   0.427
 2533SOL    HW210451   0.257   5.708   0.366
 2533SOL    HW310452   0.140   5.615   0.385
 2533SOL    MW410453   0.190   5.681   0.413
 2534SOL     OW10454   0.017   6.154   1.570
 2534SOL    HW210455   0.081   6.220   1.545
 2534SOL    HW310456  -0.064   6.181   1.527
 2534SOL    MW410457   0.015   6.166   1.562
 2535SOL     OW10458   1.755   7.061   0.527
 2535SOL    HW210459   1.725   6.994   0.588
 2535SOL    HW310460   1.849   7.067   0.541
 2535SOL    MW410461   1.763   7.053   0.537
 2536SOL     OW10462   1.311   6.738   0.457
 2536SOL    HW210463   1.283   6.824   0.490
 2536SOL    HW310464   1.339   6.754   0.367
 2536SOL    MW410465   1.311   6.752   0.449
 2537SOL     OW10466   0.973   5.658   0.510
 2537SOL    HW210467   1.010   5.717   0.575
 2537SOL    HW310468   0.950   5.714   0.436
 2537SOL    MW410469   0.974   5.673   0.509
 2538SOL     OW10470   1.826   6.540   0.932
 2538SOL    HW210471   1.817   6.572   0.843
 2538SOL    HW310472   1.779   6.456   0.932
 2538SOL    MW410473   1.819   6.533   0.922
 2539SOL     OW10474   0.202   6.380   1.511
 2539SOL    HW210475   0.223   6.449   1.449
 2539SOL    HW310476   0.282   6.327   1.516
 2539SOL    MW410477   0.215   6.381   1.505
 2540SOL     OW10478   1.738   6.471   0.633
 2540SOL    HW210479   1.832   6.460   0.621
 2540SOL    HW310480   1.714   6.543   0.574
 2540SOL    MW410481   1.748   6.479   0.624
 2541SOL     OW10482   0.187   6.395   1.778
 2541SOL    HW210483   0.113   6.339   1.804
 2541SOL    HW310484   0.182   6.398   1.683
 2541SOL    MW410485   0.176   6.388   1.768
 2542SOL     OW10486   0.353   5.682   1.228
 2542SOL    HW210487   0.396   5.766   1.248
 2542SOL    HW310488   0.426   5.620   1.221
 2542SOL    MW410489   0.368   5.685   1.229
 2543SOL     OW10490   0.394   6.349   0.406
 2543SOL    HW210491   0.394   6.444   0.391
 2543SOL    HW310492   0.471   6.333   0.460
 2543SOL    MW410493   0.404   6.360   0.411
 2544SOL     OW10494   1.170   6.208   1.470
 2544SOL    HW210495   1.206   6.181   1.386
 2544SOL    HW310496   1.083   6.242   1.449
 2544SOL    MW410497   1.164   6.209   1.457
 2545SOL     OW10498   0.153   6.080   0.695
 2545SOL    HW210499   0.215   6.087   0.768
 2545SOL    HW310500   0.153   5.987   0.672
 2545SOL    MW410501   0.161   6.069   0.702
 2546SOL     OW10502   1.700   7.420   0.227
 2546SOL    HW210503   1.767   7.453   0.167
 2546SOL    HW310504   1.657   7.499   0.261
 2546SOL    MW410505   1.702   7.435   0.223
 2547SOL     OW10506   0.835   6.341   1.179
 2547SOL    HW210507   0.793   6.259   1.155
 2547SOL    HW310508   0.836   6.340   1.275
 2547SOL    MW410509   0.828   6.330   1.188
 2548SOL     OW10510   1.506   7.474   1.578
 2548SOL    HW210511   1.509   7.380   1.561
 2548SOL    HW310512   1.529   7.482   1.670
 2548SOL    MW410513   1.509   7.462   1.588
 2549SOL     OW10514   0.639   5.811   1.284
 2549SOL    HW210515   0.570   5.874   1.305
 2549SOL    HW310516   0.666   5.775   1.369
 2549SOL    MW410517   0.633   5.814   1.297
 2550SOL     OW10518   0.022   6.652   0.153
 2550SOL    HW210519  -0.009   6.717   0.216
 2550SOL    HW310520  -0.029   6.574   0.172
 2550SOL    MW410521   0.012   6.649   0.163
 2551SOL     OW10522   1.434   5.664   0.901
 2551SOL    HW210523   1.522   5.673   0.938
 2551SOL    HW310524   1.444   5.605   0.827
 2551SOL    MW410525   1.448   5.658   0.895
 2552SOL     OW10526   1.466   6.403   0.745
 2552SOL    HW210527   1.546   6.418   0.694
 2552SOL    HW310528   1.459   6.308   0.751
 2552SOL    MW410529   1.475   6.392   0.740
 2553SOL     OW10530   0.606   7.452   0.095
 2553SOL    HW210531   0.511   7.452   0.087
 2553SOL    HW310532   0.622   7.398   0.173
 2553SOL    MW410533   0.596   7.446   0.104
 2554SOL     OW10534   0.916   6.329   1.442
 2554SOL    HW210535   0.985   6.396   1.439
 2554SOL    HW310536   0.849   6.367   1.498
 2554SOL    MW410537   0.917   6.342   1.449
 2555SOL     OW10538   0.334   6.629   1.690
 2555SOL    HW210539   0.288   6.545   1.692
 2555SOL    HW310540   0.391   6.623   1.614
 2555SOL    MW410541   0.336   6.617   1.682
 2556SOL     OW10542   1.451   6.272   0.011
 2556SOL    HW210543   1.379   6.248  -0.047
 2556SOL    HW310544   1.517   6.309  -0.047
 2556SOL    MW410545   1.450   6.274  -0.004
 2557SOL     OW10546   0.585   7.004   0.691
 2557SOL    HW210547   0.650   6.937   0.712
 2557SOL    HW310548   0.637   7.081   0.668
 2557SOL    MW410549   0.600   7.006   0.690
 2558SOL     OW10550   0.846   6.169   0.821
 2558SOL    HW210551   0.786   6.187   0.893
 2558SOL    HW310552   0.880   6.081   0.840
 2558SOL    MW410553   0.842   6.159   0.834
 2559SOL     OW10554   1.787   5.668   1.490
 2559SOL    HW210555   1.708   5.714   1.518
 2559SOL    HW310556   1.822   5.722   1.419
 2559SOL    MW410557   1.781   5.681   1.484
 2560SOL     OW10558   1.071   6.752   0.840
 2560SOL    HW210559   1.163   6.733   0.858
 2560SOL    HW310560   1.044   6.682   0.780
 2560SOL    MW410561   1.079   6.740   0.834
 2561SOL     OW10562   0.864   6.572   0.195
 2561SOL    HW210563   0.850   6.484   0.160
 2561SOL    HW310564   0.815   6.629   0.136
 2561SOL    MW410565   0.856   6.567   0.183
 2562SOL     OW10566   1.345   6.990   0.936
 2562SOL    HW210567   1.318   7.074   0.901
 2562SOL    HW310568   1.305   6.985   1.023
 2562SOL    MW410569   1.338   6.999   0.942
 2563SOL     OW10570   1.264   6.938   1.204
 2563SOL    HW210571   1.275   6.905   1.293
 2563SOL    HW310572   1.183   6.897   1.173
 2563SOL    MW410573   1.254   6.930   1.210
 2564SOL     OW10574   0.277   6.296   0.974
 2564SOL    HW210575   0.227   6.295   1.055
 2564SOL    HW310576   0.297   6.388   0.958
 2564SOL    MW410577   0.273   6.308   0.982
 2565SOL     OW10578   1.344   7.060   1.736
 2565SOL    HW210579   1.344   7.154   1.752
 2565SOL    HW310580   1.389   7.050   1.652
 2565SOL    MW410581   1.350   7.070   1.727
 2566SOL     OW10582   1.583   5.778   0.297
 2566SOL    HW210583   1.576   5.782   0.392
 2566SOL    HW310584   1.595   5.869   0.270
 2566SOL    MW410585   1.584   5.791   0.305
 2567SOL     OW10586   0.872   6.341   0.411
 2567SOL    HW210587   0.852   6.327   0.318
 2567SOL    HW310588   0.965   6.320   0.418
 2567SOL    MW410589   0.882   6.336   0.400
 2568SOL     OW10590   0.199   5.964   1.715
 2568SOL    HW210591   0.156   6.023   1.652
 2568SOL    HW310592   0.267   6.019   1.755
 2568SOL    MW410593   0.203   5.979   1.712
 2569SOL     OW10594   1.311   6.584   1.260
 2569SOL    HW210595   1.374   6.581   1.333
 2569SOL    HW310596   1.227   6.602   1.302
 2569SOL    MW410597   1.307   6.586   1.275
 2570SOL     OW10598   0.855   7.299   0.449
 2570SOL    HW210599   0.913   7.370   0.476
 2570SOL    HW310600   0.878   7.227   0.507
 2570SOL    MW410601   0.866   7.299   0.460
 2571SOL     OW10602   1.650   5.761   1.039
 2571SOL    HW210603   1.695   5.679   1.058
 2571SOL    HW310604   1.670   5.817   1.115
 2571SOL    MW410605   1.660   5.757   1.051
 2572SOL     OW10606   0.098   5.604   1.138
 2572SOL    HW210607   0.089   5.605   1.043
 2572SOL    HW310608   0.192   5.616   1.153
 2572SOL    MW410609   0.110   5.607   1.129
 2573SOL     OW10610   1.735   6.797   0.758
 2573SOL    HW210611   1.714   6.743   0.681
 2573SOL    HW310612   1.831   6.795   0.762
 2573SOL    MW410613   1.744   6.790   0.747
 2574SOL     OW10614   0.427   6.942   1.501
 2574SOL    HW210615   0.348   6.892   1.524
 2574SOL    HW310616   0.497   6.901   1.551
 2574SOL    MW410617   0.425   6.930   1.511
 2575SOL     OW10618   0.311   5.731   0.184
 2575SOL    HW210619   0.240   5.786   0.152
 2575SOL    HW310620   0.353   5.697   0.105
 2575SOL    MW410621   0.307   5.733   0.170
 2576SOL     OW10622   1.435   6.228   1.020
 2576SOL    HW210623   1.358   6.274   0.986
 2576SOL    HW310624   1.492   6.297   1.054
 2576SOL    MW410625   1.432   6.243   1.020
 2577SOL     OW10626   0.067   5.830   0.033
 2577SOL    HW210627   0.034   5.909   0.077
 2577SOL    HW310628   0.122   5.863  -0.038
 2577SOL    MW410629   0.070   5.844   0.030
 2578SOL     OW10630   0.101   7.087   0.222
 2578SOL    HW210631   0.118   7.171   0.264
 2578SOL    HW310632   0.136   7.096   0.134
 2578SOL    MW410633   0.106   7.100   0.216
 2579SOL     OW10634   1.373   7.176   0.439
 2579SOL    HW210635   1.436   7.166   0.368
 2579SOL    HW310636   1.290   7.196   0.394
 2579SOL    MW410637   1.370   7.177   0.424
 2580SOL     OW10638   1.736   6.444   2.125
 2580SOL    HW210639   1.777   6.386   2.190
 2580SOL    HW310640   1.643   6.436   2.142
 2580SOL    MW410641   1.730   6.436   2.135
 2581SOL     OW10642   1.602   6.376   3.120
 2581SOL    HW210643   1.557   6.443   3.171
 2581SOL    HW310644   1.690   6.412   3.106
 2581SOL    MW410645   1.608   6.389   3.124
 2582SOL     OW10646   0.530   6.627   2.354
 2582SOL    HW210647   0.620   6.602   2.338
 2582SOL    HW310648   0.526   6.720   2.331
 2582SOL    MW410649   0.542   6.636   2.349
 2583SOL     OW10650   1.646   7.330   2.496
 2583SOL    HW210651   1.658   7.276   2.574
 2583SOL    HW310652   1.683   7.278   2.425
 2583SOL    MW410653   1.652   7.315   2.497
 2584SOL     OW10654   1.025   7.215   3.497
 2584SOL    HW210655   1.066   7.251   3.418
 2584SOL    HW310656   1.060   7.126   3.504
 2584SOL    MW410657   1.036   7.208   3.488
 2585SOL     OW10658   1.582   6.770   3.101
 2585SOL    HW210659   1.503   6.735   3.059
 2585SOL    HW310660   1.609   6.842   3.045
 2585SOL    MW410661   1.575   6.775   3.088
 2586SOL     OW10662   0.814   6.083   2.367
 2586SOL    HW210663   0.789   6.171   2.395
 2586SOL    HW310664   0.811   6.086   2.271
 2586SOL    MW410665   0.810   6.095   2.359
 2587SOL     OW10666   0.256   6.111   2.295
 2587SOL    HW210667   0.288   6.199   2.277
 2587SOL    HW310668   0.244   6.109   2.390
 2587SOL    MW410669   0.259   6.123   2.307
 2588SOL     OW10670   0.334   6.524   3.196
 2588SOL    HW210671   0.397   6.471   3.147
 2588SOL    HW310672   0.315   6.598   3.139
 2588SOL    MW410673   0.340   6.526   3.183
 2589SOL     OW10674   0.655   5.866   2.382
 2589SOL    HW210675   0.713   5.942   2.384
 2589SOL    HW310676   0.590   5.887   2.315
 2589SOL    MW410677   0.654   5.878   2.373
 2590SOL     OW10678   0.742   6.793   2.557
 2590SOL    HW210679   0.822   6.796   2.609
 2590SOL    HW310680   0.770   6.760   2.471
 2590SOL    MW410681   0.756   6.789   2.552
 2591SOL     OW10682   0.767   7.134   3.460
 2591SOL    HW210683   0.851   7.160   3.499
 2591SOL    HW310684   0.791   7.078   3.386
 2591SOL    MW410685   0.781   7.130   3.455
 2592SOL     OW10686   0.519   6.297   2.548
 2592SOL    HW210687   0.504   6.217   2.599
 2592SOL    HW310688   0.601   6.332   2.582
 2592SOL    MW410689   0.527   6.289   2.560
 2593SOL     OW10690   0.856   6.983   3.233
 2593SOL    HW210691   0.820   7.049   3.173
 2593SOL    HW310692   0.784   6.921   3.246
 2593SOL    MW410693   0.842   6.983   3.227
 2594SOL     OW10694   0.661   6.123   2.925
 2594SOL    HW210695   0.567   6.119   2.943
 2594SOL    HW310696   0.691   6.032   2.934
 2594SOL    MW410697   0.652   6.111   2.928
 2595SOL     OW10698   0.407   6.537   2.829
 2595SOL    HW210699   0.362   6.544   2.745
 2595SOL    HW310700   0.387   6.620   2.873
 2595SOL    MW410701   0.399   6.549   2.823
 2596SOL     OW10702   0.104   7.383   2.704
 2596SOL    HW210703   0.193   7.375   2.739
 2596SOL    HW310704   0.068   7.295   2.709
 2596SOL    MW410705   0.111   7.370   2.709
 2597SOL     OW10706   1.369   6.775   2.073
 2597SOL    HW210707   1.287   6.811   2.039
 2597SOL    HW310708   1.437   6.818   2.022
 2597SOL    MW410709   1.367   6.785   2.061
 2598SOL     OW10710   0.368   6.910   2.739
 2598SOL    HW210711   0.344   6.963   2.815
 2598SOL    HW310712   0.424   6.968   2.687
 2598SOL    MW410713   0.372   6.925   2.742
 2599SOL     OW10714   0.930   6.554   2.549
 2599SOL    HW210715   0.844   6.541   2.589
 2599SOL    HW310716   0.983   6.481   2.581
 2599SOL    MW410717   0.926   6.543   2.558
 2600SOL     OW10718   0.338   7.206   3.334
 2600SOL    HW210719   0.246   7.182   3.319
 2600SOL    HW310720   0.382   7.123   3.351
 2600SOL    MW410721   0.332   7.191   3.333
 2601SOL     OW10722   0.921   6.916   2.266
 2601SOL    HW210723   0.898   6.978   2.334
 2601SOL    HW310724   0.878   6.834   2.292
 2601SOL    MW410725   0.913   6.912   2.277
 2602SOL     OW10726   1.794   5.917   2.722
 2602SOL    HW210727   1.731   5.897   2.791
 2602SOL    HW310728   1.784   5.846   2.659
 2602SOL    MW410729   1.784   5.904   2.723
 2603SOL     OW10730   0.418   5.889   2.234
 2603SOL    HW210731   0.392   5.851   2.150
 2603SOL    HW310732   0.355   5.959   2.250
 2603SOL    MW410733   0.407   5.892   2.225
 2604SOL     OW10734   0.253   6.850   2.271
 2604SOL    HW210735   0.201   6.918   2.227
 2604SOL    HW310736   0.250   6.776   2.211
 2604SOL    MW410737   0.245   6.849   2.258
 2605SOL     OW10738   0.915   7.313   2.049
 2605SOL    HW210739   0.870   7.329   2.132
 2605SOL    HW310740   0.846   7.278   1.991
 2605SOL    MW410741   0.901   7.310   2.051
 2606SOL     OW10742   1.850   6.086   2.024
 2606SOL    HW210743   1.759   6.088   2.052
 2606SOL    HW310744   1.895   6.148   2.082
 2606SOL    MW410745   1.843   6.094   2.034
 2607SOL     OW10746   1.595   6.689   2.374
 2607SOL    HW210747   1.505   6.689   2.409
 2607SOL    HW310748   1.588   6.735   2.291
 2607SOL    MW410749   1.582   6.695   2.368
 2608SOL     OW10750   1.395   6.324   3.446
 2608SOL    HW210751   1.464   6.262   3.423
 2608SOL    HW310752   1.320   6.298   3.393
 2608SOL    MW410753   1.395   6.311   3.437
 2609SOL     OW10754   0.136   7.204   2.998
 2609SOL    HW210755   0.119   7.150   3.075
 2609SOL    HW310756   0.124   7.294   3.028
 2609SOL    MW410757   0.133   7.208   3.012
 2610SOL     OW10758   1.131   6.711   3.438
 2610SOL    HW210759   1.116   6.804   3.423
 2610SOL    HW310760   1.226   6.701   3.438
 2610SOL    MW410761   1.140   6.721   3.435
 2611SOL     OW10762   0.927   6.135   3.639
 2611SOL    HW210763   1.017   6.136   3.606
 2611SOL    HW310764   0.886   6.060   3.597
 2611SOL    MW410765   0.933   6.125   3.630
 2612SOL     OW10766   1.502   6.667   2.766
 2612SOL    HW210767   1.505   6.601   2.697
 2612SOL    HW310768   1.587   6.710   2.762
 2612SOL    MW410769   1.514   6.663   2.757
 2613SOL     OW10770   1.122   6.270   2.335
 2613SOL    HW210771   1.148   6.294   2.246
 2613SOL    HW310772   1.104   6.177   2.331
 2613SOL    MW410773   1.124   6.262   2.322
 2614SOL     OW10774   1.787   6.890   2.186
 2614SOL    HW210775   1.743   6.931   2.261
 2614SOL    HW310776   1.844   6.958   2.151
 2614SOL    MW410777   1.789   6.904   2.191
 2615SOL     OW10778   0.707   5.939   3.589
 2615SOL    HW210779   0.717   5.865   3.529
 2615SOL    HW310780   0.743   5.908   3.672
 2615SOL    MW410781   0.713   5.925   3.591
 2616SOL     OW10782   0.443   7.306   2.504
 2616SOL    HW210783   0.475   7.394   2.482
 2616SOL    HW310784   0.396   7.278   2.426
 2616SOL    MW410785   0.442   7.314   2.491
 2617SOL     OW10786   1.827   5.668   2.553
 2617SOL    HW210787   1.881   5.619   2.615
 2617SOL    HW310788   1.770   5.602   2.514
 2617SOL    MW410789   1.827   5.652   2.555
 2618SOL     OW10790   0.159   7.366   2.081
 2618SOL    HW210791   0.188   7.456   2.073
 2618SOL    HW310792   0.109   7.349   2.002
 2618SOL    MW410793   0.157   7.374   2.070
 2619SOL     OW10794   0.946   5.621   2.966
 2619SOL    HW210795   0.905   5.699   2.928
 2619SOL    HW310796   1.040   5.639   2.961
 2619SOL    MW410797   0.952   5.633   2.961
 2620SOL     OW10798   1.563   7.174   2.052
 2620SOL    HW210799   1.611   7.243   2.098
 2620SOL    HW310800   1.484   7.218   2.021
 2620SOL    MW410801   1.558   7.188   2.055
 2621SOL     OW10802   0.961   6.299   1.996
 2621SOL    HW210803   0.963   6.246   1.917
 2621SOL    HW310804   1.049   6.336   2.002
 2621SOL    MW410805   0.973   6.298   1.985
 2622SOL     OW10806   1.575   6.225   2.332
 2622SOL    HW210807   1.614   6.225   2.419
 2622SOL    HW310808   1.516   6.301   2.332
 2622SOL    MW410809   1.572   6.236   2.343
 2623SOL     OW10810   0.892   6.592   3.461
 2623SOL    HW210811   0.869   6.572   3.551
 2623SOL    HW310812   0.977   6.636   3.466
 2623SOL    MW410813   0.899   6.595   3.473
 2624SOL     OW10814   0.972   5.729   3.221
 2624SOL    HW210815   0.978   5.691   3.134
 2624SOL    HW310816   0.961   5.823   3.206
 2624SOL    MW410817   0.973   5.737   3.209
 2625SOL     OW10818   1.061   6.218   3.055
 2625SOL    HW210819   1.136   6.247   3.002
 2625SOL    HW310820   0.993   6.283   3.039
 2625SOL    MW410821   1.062   6.230   3.045
 2626SOL     OW10822   1.611   6.186   3.332
 2626SOL    HW210823   1.592   6.095   3.311
 2626SOL    HW310824   1.589   6.235   3.253
 2626SOL    MW410825   1.606   6.179   3.319
 2627SOL     OW10826   1.753   7.280   3.236
 2627SOL    HW210827   1.681   7.242   3.287
 2627SOL    HW310828   1.770   7.365   3.277
 2627SOL    MW410829   1.747   7.285   3.248
 2628SOL     OW10830   1.058   5.924   3.438
 2628SOL    HW210831   1.024   5.963   3.357
 2628SOL    HW310832   1.036   5.832   3.431
 2628SOL    MW410833   1.051   5.917   3.428
 2629SOL     OW10834   1.467   6.738   3.514
 2629SOL    HW210835   1.549   6.779   3.544
 2629SOL    HW310836   1.430   6.700   3.594
 2629SOL    MW410837   1.473   6.739   3.529
 2630SOL     OW10838   1.762   6.111   2.498
 2630SOL    HW210839   1.851   6.080   2.515
 2630SOL    HW310840   1.705   6.051   2.546
 2630SOL    MW410841   1.765   6.099   2.507
 2631SOL     OW10842   0.188   5.825   2.527
 2631SOL    HW210843   0.179   5.765   2.453
 2631SOL    HW310844   0.121   5.796   2.590
 2631SOL    MW410845   0.178   5.812   2.525
 2632SOL     OW10846   1.131   6.918   2.088
 2632SOL    HW210847   1.081   6.920   2.170
 2632SOL    HW310848   1.065   6.936   2.020
 2632SOL    MW410849   1.117   6.920   2.090
 2633SOL     OW10850   0.135   5.998   2.890
 2633SOL    HW210851   0.107   6.089   2.899
 2633SOL    HW310852   0.072   5.959   2.829
 2633SOL    MW410853   0.122   6.004   2.884
 2634SOL     OW10854   0.594   7.336   2.196
 2634SOL    HW210855   0.515   7.294   2.229
 2634SOL    HW310856   0.660   7.319   2.263
 2634SOL    MW410857   0.593   7.328   2.209
 2635SOL     OW10858   1.722   6.856   3.593
 2635SOL    HW210859   1.772   6.782   3.625
 2635SOL    HW310860   1.668   6.883   3.668
 2635SOL    MW410861   1.722   6.850   3.606
 2636SOL     OW10862   0.730   6.751   1.903
 2636SOL    HW210863   0.652   6.697   1.890
 2636SOL    HW310864   0.701   6.824   1.956
 2636SOL    MW410865   0.716   6.753   1.908
 2637SOL     OW10866   1.856   6.491   3.095
 2637SOL    HW210867   1.872   6.529   3.008
 2637SOL    HW310868   1.890   6.557   3.156
 2637SOL    MW410869   1.863   6.504   3.091
 2638SOL     OW10870   1.648   7.200   2.764
 2638SOL    HW210871   1.677   7.267   2.825
 2638SOL    HW310872   1.629   7.124   2.819
 2638SOL    MW410873   1.650   7.200   2.779
 2639SOL     OW10874   1.311   7.267   1.971
 2639SOL    HW210875   1.237   7.230   2.021
 2639SOL    HW310876   1.319   7.357   2.004
 2639SOL    MW410877   1.302   7.274   1.983
 2640SOL     OW10878   0.119   6.273   3.060
 2640SOL    HW210879   0.181   6.303   3.126
 2640SOL    HW310880   0.053   6.342   3.054
 2640SOL    MW410881   0.118   6.286   3.067
 2641SOL     OW10882   1.535   6.941   1.913
 2641SOL    HW210883   1.482   6.990   1.849
 2641SOL    HW310884   1.566   7.007   1.974
 2641SOL    MW410885   1.533   6.955   1.911
 2642SOL     OW10886   0.760   5.830   1.968
 2642SOL    HW210887   0.708   5.750   1.956
 2642SOL    HW310888   0.847   5.807   1.936
 2642SOL    MW410889   0.763   5.816   1.962
 2643SOL     OW10890   0.214   7.382   3.512
 2643SOL    HW210891   0.188   7.450   3.450
 2643SOL    HW310892   0.262   7.319   3.460
 2643SOL    MW410893   0.216   7.382   3.498
 2644SOL     OW10894   0.266   6.701   3.019
 2644SOL    HW210895   0.319   6.776   3.044
 2644SOL    HW310896   0.185   6.739   2.985
 2644SOL    MW410897   0.262   6.716   3.019
 2645SOL     OW10898   0.806   6.605   3.007
 2645SOL    HW210899   0.834   6.514   3.019
 2645SOL    HW310900   0.735   6.599   2.943
 2645SOL    MW410901   0.799   6.593   3.002
 2646SOL     OW10902   0.121   6.470   2.425
 2646SOL    HW210903   0.212   6.485   2.452
 2646SOL    HW310904   0.124   6.391   2.371
 2646SOL    MW410905   0.133   6.462   2.423
 2647SOL     OW10906   0.357   6.178   3.679
 2647SOL    HW210907   0.304   6.258   3.686
 2647SOL    HW310908   0.427   6.190   3.744
 2647SOL    MW410909   0.359   6.191   3.687
 2648SOL     OW10910   0.743   5.728   3.386
 2648SOL    HW210911   0.720   5.636   3.388
 2648SOL    HW310912   0.829   5.730   3.343
 2648SOL    MW410913   0.750   5.718   3.382
 2649SOL     OW10914   0.427   6.252   3.425
 2649SOL    HW210915   0.507   6.302   3.411
 2649SOL    HW310916   0.418   6.246   3.520
 2649SOL    MW410917   0.436   6.258   3.435
 2650SOL     OW10918   0.748   7.402   2.799
 2650SOL    HW210919   0.837   7.417   2.829
 2650SOL    HW310920   0.743   7.449   2.715
 2650SOL    MW410921   0.758   7.410   2.792
 2651SOL     OW10922   1.404   5.777   3.696
 2651SOL    HW210923   1.460   5.704   3.722
 2651SOL    HW310924   1.374   5.815   3.778
 2651SOL    MW410925   1.408   5.772   3.709
 2652SOL     OW10926   0.129   7.082   2.464
 2652SOL    HW210927   0.101   7.121   2.546
 2652SOL    HW310928   0.149   6.991   2.486
 2652SOL    MW410929   0.127   7.074   2.477
 2653SOL     OW10930   0.962   7.125   2.499
 2653SOL    HW210931   1.045   7.079   2.483
 2653SOL    HW310932   0.952   7.124   2.595
 2653SOL    MW410933   0.972   7.118   2.509
 2654SOL     OW10934   1.794   6.270   2.813
 2654SOL    HW210935   1.883   6.300   2.795
 2654SOL    HW310936   1.774   6.210   2.742
 2654SOL    MW410937   1.803   6.267   2.802
 2655SOL     OW10938   1.645   6.449   3.693
 2655SOL    HW210939   1.700   6.373   3.674
 2655SOL    HW310940   1.647   6.457   3.788
 2655SOL    MW410941   1.653   6.440   3.701
 2656SOL     OW10942   0.695   7.182   1.904
 2656SOL    HW210943   0.635   7.251   1.874
 2656SOL    HW310944   0.640   7.124   1.957
 2656SOL    MW410945   0.679   7.184   1.906
 2657SOL     OW10946   1.133   5.827   2.127
 2657SOL    HW210947   1.066   5.803   2.064
 2657SOL    HW310948   1.198   5.876   2.076
 2657SOL    MW410949   1.133   5.829   2.112
 2658SOL     OW10950   0.940   6.011   3.212
 2658SOL    HW210951   0.859   6.052   3.240
 2658SOL    HW310952   0.987   6.079   3.164
 2658SOL    MW410953   0.935   6.026   3.210
 2659SOL     OW10954   1.200   6.349   2.835
 2659SOL    HW210955   1.213   6.443   2.845
 2659SOL    HW310956   1.161   6.339   2.749
 2659SOL    MW410957   1.196   6.360   2.825
 2660SOL     OW10958   0.652   6.544   2.639
 2660SOL    HW210959   0.563   6.535   2.672
 2660SOL    HW310960   0.656   6.634   2.607
 2660SOL    MW410961   0.641   6.555   2.639
 2661SOL     OW10962   1.451   6.127   2.634
 2661SOL    HW210963   1.396   6.048   2.633
 2661SOL    HW310964   1.433   6.168   2.718
 2661SOL    MW410965   1.441   6.122   2.643
 2662SOL     OW10966   0.422   5.814   3.451
 2662SOL    HW210967   0.343   5.832   3.503
 2662SOL    HW310968   0.417   5.876   3.378
 2662SOL    MW410969   0.412   5.824   3.448
 2663SOL     OW10970   1.070   6.331   2.591
 2663SOL    HW210971   1.007   6.263   2.615
 2663SOL    HW310972   1.090   6.312   2.499
 2663SOL    MW410973   1.064   6.318   2.583
 2664SOL     OW10974   0.326   7.226   2.293
 2664SOL    HW210975   0.287   7.273   2.219
 2664SOL    HW310976   0.260   7.161   2.318
 2664SOL    MW410977   0.313   7.224   2.287
 2665SOL     OW10978   0.818   6.635   2.317
 2665SOL    HW210979   0.820   6.609   2.224
 2665SOL    HW310980   0.876   6.572   2.360
 2665SOL    MW410981   0.826   6.624   2.311
 2666SOL     OW10982   1.371   7.195   3.089
 2666SOL    HW210983   1.296   7.241   3.127
 2666SOL    HW310984   1.353   7.102   3.106
 2666SOL    MW410985   1.360   7.189   3.097
 2667SOL     OW10986   1.375   7.403   2.519
 2667SOL    HW210987   1.318   7.356   2.458
 2667SOL    HW310988   1.461   7.364   2.506
 2667SOL    MW410989   1.378   7.394   2.509
 2668SOL     OW10990   1.328   5.879   2.650
 2668SOL    HW210991   1.356   5.811   2.711
 2668SOL    HW310992   1.242   5.850   2.620
 2668SOL    MW410993   1.321   5.866   2.654
 2669SOL     OW10994   0.133   6.813   2.584
 2669SOL    HW210995   0.197   6.845   2.647
 2669SOL    HW310996   0.182   6.749   2.532
 2669SOL    MW410997   0.148   6.809   2.585
 2670SOL     OW10998   0.633   6.889   3.566
 2670SOL    HW210999   0.681   6.972   3.553
 2670SOL    HW311000   0.690   6.837   3.622
 2670SOL    MW411001   0.647   6.893   3.572
 2671SOL     OW11002   0.209   7.131   3.706
 2671SOL    HW211003   0.265   7.055   3.721
 2671SOL    HW311004   0.158   7.109   3.628
 2671SOL    MW411005   0.209   7.118   3.697
 2672SOL     OW11006   1.308   5.983   1.985
 2672SOL    HW211007   1.281   6.049   1.921
 2672SOL    HW311008   1.378   6.026   2.035
 2672SOL    MW411009   1.313   5.996   1.982
 2673SOL     OW11010   0.976   5.688   1.922
 2673SOL    HW211011   1.032   5.680   1.844
 2673SOL    HW311012   0.953   5.598   1.944
 2673SOL    MW411013   0.981   5.675   1.915
 2674SOL     OW11014   1.481   6.539   2.127
 2674SOL    HW211015   1.448   6.628   2.117
 2674SOL    HW311016   1.446   6.510   2.212
 2674SOL    MW411017   1.471   6.548   2.138
 2675SOL     OW11018   1.094   6.968   3.315
 2675SOL    HW211019   1.005   6.974   3.283
 2675SOL    HW311020   1.138   7.047   3.283
 2675SOL    MW411021   1.089   6.978   3.307
 2676SOL     OW11022   0.387   5.636   3.657
 2676SOL    HW211023   0.315   5.601   3.605
 2676SOL    HW311024   0.445   5.677   3.592
 2676SOL    MW411025   0.385   5.637   3.642
 2677SOL     OW11026   0.411   7.126   2.956
 2677SOL    HW211027   0.456   7.188   3.013
 2677SOL    HW311028   0.318   7.145   2.969
 2677SOL    MW411029   0.404   7.136   2.963
 2678SOL     OW11030   1.851   6.655   3.310
 2678SOL    HW211031   1.766   6.668   3.269
 2678SOL    HW311032   1.831   6.619   3.397
 2678SOL    MW411033   1.838   6.651   3.315
 2679SOL     OW11034   0.833   7.194   3.064
 2679SOL    HW211035   0.857   7.183   2.973
 2679SOL    HW311036   0.756   7.251   3.062
 2679SOL    MW411037   0.825   7.199   3.053
 2680SOL     OW11038   0.475   6.577   1.919
 2680SOL    HW211039   0.398   6.590   1.975
 2680SOL    HW311040   0.439   6.541   1.838
 2680SOL    MW411041   0.461   6.573   1.916
 2681SOL     OW11042   1.128   6.550   2.162
 2681SOL    HW211043   1.038   6.571   2.137
 2681SOL    HW311044   1.155   6.623   2.218
 2681SOL    MW411045   1.120   6.562   2.165
 2682SOL     OW11046   0.628   6.899   2.854
 2682SOL    HW211047   0.621   6.878   2.948
 2682SOL    HW311048   0.546   6.867   2.817
 2682SOL    MW411049   0.616   6.893   2.861
 2683SOL     OW11050   1.492   5.909   3.256
 2683SOL    HW211051   1.439   5.911   3.336
 2683SOL    HW311052   1.477   5.822   3.219
 2683SOL    MW411053   1.484   5.899   3.261
 2684SOL     OW11054   1.828   5.833   3.129
 2684SOL    HW211055   1.809   5.900   3.064
 2684SOL    HW311056   1.885   5.771   3.084
 2684SOL    MW411057   1.832   5.834   3.115
 2685SOL     OW11058   0.074   6.991   3.517
 2685SOL    HW211059   0.118   6.924   3.463
 2685SOL    HW311060  -0.011   6.953   3.537
 2685SOL    MW411061   0.069   6.977   3.513
 2686SOL     OW11062   0.757   5.666   2.569
 2686SOL    HW211063   0.686   5.727   2.551
 2686SOL    HW311064   0.808   5.663   2.488
 2686SOL    MW411065   0.753   5.672   2.556
 2687SOL     OW11066   0.515   6.906   2.318
 2687SOL    HW211067   0.508   6.938   2.408
 2687SOL    HW311068   0.425   6.890   2.290
 2687SOL    MW411069   0.503   6.908   2.325
 2688SOL     OW11070   1.110   7.299   3.227
 2688SOL    HW211071   1.030   7.284   3.177
 2688SOL    HW311072   1.117   7.394   3.234
 2688SOL    MW411073   1.101   7.310   3.221
 2689SOL     OW11074   1.224   7.264   2.717
 2689SOL    HW211075   1.271   7.337   2.676
 2689SOL    HW311076   1.145   7.303   2.753
 2689SOL    MW411077   1.219   7.279   2.716
 2690SOL     OW11078   1.632   7.359   2.992
 2690SOL    HW211079   1.675   7.329   3.072
 2690SOL    HW311080   1.551   7.307   2.989
 2690SOL    MW411081   1.627   7.348   3.002
 2691SOL     OW11082   0.717   6.323   3.699
 2691SOL    HW211083   0.787   6.265   3.671
 2691SOL    HW311084   0.660   6.268   3.754
 2691SOL    MW411085   0.719   6.310   3.703
 2692SOL     OW11086   1.504   6.535   3.332
 2692SOL    HW211087   1.509   6.588   3.412
 2692SOL    HW311088   1.466   6.452   3.360
 2692SOL    MW411089   1.500   6.530   3.347
 2693SOL     OW11090   1.144   5.670   3.578
 2693SOL    HW211091   1.139   5.577   3.559
 2693SOL    HW311092   1.227   5.681   3.624
 2693SOL    MW411093   1.152   5.659   3.582
 2694SOL     OW11094   0.518   6.190   2.032
 2694SOL    HW211095   0.484   6.246   2.102
 2694SOL    HW311096   0.589   6.140   2.072
 2694SOL    MW411097   0.524   6.191   2.046
 2695SOL     OW11098   1.614   6.941   2.854
 2695SOL    HW211099   1.649   6.923   2.767
 2695SOL    HW311100   1.519   6.942   2.841
 2695SOL    MW411101   1.606   6.938   2.841
 2696SOL     OW11102   1.043   6.589   3.223
 2696SOL    HW211103   1.086   6.624   3.301
 2696SOL    HW311104   1.026   6.666   3.169
 2696SOL    MW411105   1.046   6.604   3.226
 2697SOL     OW11106   1.574   6.076   2.096
 2697SOL    HW211107   1.566   6.147   2.033
 2697SOL    HW311108   1.592   6.120   2.179
 2697SOL    MW411109   1.575   6.090   2.098
 2698SOL     OW11110   0.434   5.731   2.525
 2698SOL    HW211111   0.484   5.774   2.456
 2698SOL    HW311112   0.349   5.775   2.525
 2698SOL    MW411113   0.431   5.744   2.516
 2699SOL     OW11114   0.193   6.793   3.385
 2699SOL    HW211115   0.221   6.746   3.463
 2699SOL    HW311116   0.114   6.748   3.356
 2699SOL    MW411117   0.186   6.782   3.391
 2700SOL     OW11118   0.701   6.120   3.352
 2700SOL    HW211119   0.673   6.208   3.376
 2700SOL    HW311120   0.670   6.064   3.423
 2700SOL    MW411121   0.693   6.123   3.364
 2701SOL     OW11122   1.243   6.338   2.071
 2701SOL    HW211123   1.290   6.356   1.990
 2701SOL    HW311124   1.209   6.422   2.099
 2701SOL    MW411125   1.245   6.352   2.064
 2702SOL     OW11126   0.356   6.516   2.565
 2702SOL    HW211127   0.414   6.572   2.513
 2702SOL    HW311128   0.400   6.431   2.567
 2702SOL    MW411129   0.369   6.513   2.558
 2703SOL     OW11130   1.496   5.868   2.402
 2703SOL    HW211131   1.418   5.818   2.427
 2703SOL    HW311132   1.467   5.959   2.402
 2703SOL    MW411133   1.482   5.872   2.405
 2704SOL     OW11134   1.082   5.830   2.561
 2704SOL    HW211135   1.102   5.905   2.505
 2704SOL    HW311136   1.062   5.869   2.646
 2704SOL    MW411137   1.083   5.846   2.565
 2705SOL     OW11138   0.978   7.080   1.893
 2705SOL    HW211139   1.005   7.158   1.845
 2705SOL    HW311140   0.885   7.095   1.912
 2705SOL    MW411141   0.969   7.093   1.889
 2706SOL     OW11142   1.842   6.603   3.580
 2706SOL    HW211143   1.755   6.583   3.616
 2706SOL    HW311144   1.896   6.529   3.605
 2706SOL    MW411145   1.837   6.592   3.588
 2707SOL     OW11146   0.063   7.116   2.737
 2707SOL    HW211147   0.095   7.120   2.828
 2707SOL    HW311148  -0.032   7.124   2.745
 2707SOL    MW411149   0.055   7.119   2.750
 2708SOL     OW11150   0.018   6.242   2.284
 2708SOL    HW211151  -0.042   6.214   2.354
 2708SOL    HW311152   0.092   6.182   2.290
 2708SOL    MW411153   0.020   6.231   2.293
 2709SOL     OW11154   1.586   7.454   3.718
 2709SOL    HW211155   1.631   7.378   3.683
 2709SOL    HW311156   1.624   7.467   3.805
 2709SOL    MW411157   1.596   7.447   3.724
 2710SOL     OW11158   1.186   6.973   2.444
 2710SOL    HW211159   1.209   6.924   2.522
 2710SOL    HW311160   1.267   7.015   2.416
 2710SOL    MW411161   1.199   6.973   2.451
 2711SOL     OW11162   0.444   5.981   3.173
 2711SOL    HW211163   0.477   6.062   3.213
 2711SOL    HW311164   0.417   6.007   3.085
 2711SOL    MW411165   0.443   5.995   3.167
 2712SOL     OW11166   0.398   5.948   2.909
 2712SOL    HW211167   0.428   5.862   2.880
 2712SOL    HW311168   0.303   5.941   2.912
 2712SOL    MW411169   0.390   5.937   2.907
 2713SOL     OW11170   1.227   6.157   3.600
 2713SOL    HW211171   1.279   6.092   3.553
 2713SOL    HW311172   1.185   6.208   3.530
 2713SOL    MW411173   1.228   6.154   3.583
 2714SOL     OW11174   1.326   5.952   3.461
 2714SOL    HW211175   1.233   5.936   3.448
 2714SOL    HW311176   1.352   5.890   3.529
 2714SOL    MW411177   1.316   5.942   3.468
 2715SOL     OW11178   0.541   5.726   2.800
 2715SOL    HW211179   0.551   5.635   2.826
 2715SOL    HW311180   0.497   5.722   2.715
 2715SOL    MW411181   0.537   5.714   2.792
 2716SOL     OW11182   0.635   7.341   3.346
 2716SOL    HW211183   0.552   7.326   3.391
 2716SOL    HW311184   0.694   7.274   3.381
 2716SOL    MW411185   0.633   7.331   3.356
 2717SOL     OW11186   1.692   6.048   2.971
 2717SOL    HW211187   1.625   6.081   3.031
 2717SOL    HW311188   1.735   6.126   2.937
 2717SOL    MW411189   1.690   6.063   2.975
 2718SOL     OW11190   1.870   6.768   2.941
 2718SOL    HW211191   1.863   6.708   2.866
 2718SOL    HW311192   1.796   6.828   2.930
 2718SOL    MW411193   1.860   6.768   2.930
 2719SOL     OW11194   1.252   6.630   2.859
 2719SOL    HW211195   1.266   6.602   2.950
 2719SOL    HW311196   1.338   6.661   2.831
 2719SOL    MW411197   1.265   6.631   2.868
 2720SOL     OW11198   1.335   6.125   3.138
 2720SOL    HW211199   1.356   6.126   3.045
 2720SOL    HW311200   1.380   6.047   3.171
 2720SOL    MW411201   1.342   6.115   3.130
 2721SOL     OW11202   1.828   6.256   3.680
 2721SOL    HW211203   1.865   6.201   3.749
 2721SOL    HW311204   1.853   6.213   3.598
 2721SOL    MW411205   1.835   6.244   3.679
 2722SOL     OW11206   1.375   6.554   3.731
 2722SOL    HW211207   1.441   6.502   3.685
 2722SOL    HW311208   1.395   6.541   3.824
 2722SOL    MW411209   1.386   6.545   3.738
 2723SOL     OW11210   1.326   5.640   2.080
 2723SOL    HW211211   1.400   5.684   2.123
 2723SOL    HW311212   1.250   5.694   2.102
 2723SOL    MW411213   1.326   5.652   2.088
 2724SOL     OW11214   1.386   6.415   2.358
 2724SOL    HW211215   1.301   6.385   2.328
 2724SOL    HW311216   1.378   6.422   2.453
 2724SOL    MW411217   1.374   6.413   2.367
 2725SOL     OW11218   0.462   6.878   3.089
 2725SOL    HW211219   0.474   6.905   3.180
 2725SOL    HW311220   0.443   6.959   3.042
 2725SOL    MW411221   0.461   6.893   3.094
 2726SOL     OW11222   0.746   5.858   2.912
 2726SOL    HW211223   0.719   5.860   3.003
 2726SOL    HW311224   0.676   5.810   2.867
 2726SOL    MW411225   0.734   5.854   2.919
 2727SOL     OW11226   0.600   7.350   3.074
 2727SOL    HW211227   0.652   7.427   3.051
 2727SOL    HW311228   0.609   7.342   3.169
 2727SOL    MW411229   0.609   7.357   3.085
 2728SOL     OW11230   1.502   6.935   3.306
 2728SOL    HW211231   1.487   6.864   3.369
 2728SOL    HW311232   1.548   6.893   3.234
 2728SOL    MW411233   1.508   6.919   3.306
 2729SOL     OW11234   0.576   6.666   3.423
 2729SOL    HW211235   0.613   6.671   3.335
 2729SOL    HW311236   0.615   6.739   3.470
 2729SOL    MW411237   0.586   6.676   3.418
 2730SOL     OW11238   0.756   6.709   3.235
 2730SOL    HW211239   0.815   6.655   3.288
 2730SOL    HW311240   0.771   6.681   3.145
 2730SOL    MW411241   0.766   6.698   3.231
 2731SOL     OW11242   0.759   6.081   2.084
 2731SOL    HW211243   0.832   6.130   2.047
 2731SOL    HW311244   0.775   5.990   2.058
 2731SOL    MW411245   0.771   6.076   2.077
 2732SOL     OW11246   1.567   7.198   3.407
 2732SOL    HW211247   1.609   7.183   3.492
 2732SOL    HW311248   1.558   7.111   3.369
 2732SOL    MW411249   1.571   7.186   3.414
 2733SOL     OW11250   1.227   5.677   2.998
 2733SOL    HW211251   1.282   5.686   2.920
 2733SOL    HW311252   1.282   5.711   3.069
 2733SOL    MW411253   1.241   5.682   2.997
 2734SOL     OW11254   0.234   6.590   2.182
 2734SOL    HW211255   0.171   6.606   2.111
 2734SOL    HW311256   0.181   6.553   2.253
 2734SOL    MW411257   0.219   6.587   2.182
 2735SOL     OW11258   0.590   6.944   2.041
 2735SOL    HW211259   0.605   6.920   2.133
 2735SOL    HW311260   0.498   6.922   2.025
 2735SOL    MW411261   0.580   6.937   2.051
 2736SOL     OW11262   1.129   7.175   2.193
 2736SOL    HW211263   1.137   7.093   2.144
 2736SOL    HW311264   1.048   7.214   2.160
 2736SOL    MW411265   1.119   7.170   2.183
 2737SOL     OW11266   0.388   7.333   2.762
 2737SOL    HW211267   0.392   7.244   2.797
 2737SOL    HW311268   0.414   7.324   2.671
 2737SOL    MW411269   0.391   7.321   2.754
 2738SOL     OW11270   1.005   6.811   3.005
 2738SOL    HW211271   0.937   6.745   3.021
 2738SOL    HW311272   1.023   6.805   2.912
 2738SOL    MW411273   0.998   6.802   2.996
 2739SOL     OW11274   0.094   7.086   3.256
 2739SOL    HW211275   0.084   7.044   3.342
 2739SOL    HW311276   0.015   7.139   3.246
 2739SOL    MW411277   0.083   7.087   3.267
 2740SOL     OW11278   0.998   5.950   2.826
 2740SOL    HW211279   0.928   5.902   2.871
 2740SOL    HW311280   1.030   6.013   2.890
 2740SOL    MW411281   0.993   5.952   2.840
 2741SOL     OW11282   0.649   6.386   3.446
 2741SOL    HW211283   0.642   6.481   3.434
 2741SOL    HW311284   0.658   6.375   3.541
 2741SOL    MW411285   0.650   6.398   3.456
 2742SOL     OW11286   0.370   6.901   3.704
 2742SOL    HW211287   0.442   6.903   3.641
 2742SOL    HW311288   0.340   6.810   3.703
 2742SOL    MW411289   0.375   6.890   3.696
 2743SOL     OW11290   1.454   5.664   3.171
 2743SOL    HW211291   1.525   5.610   3.135
 2743SOL    HW311292   1.453   5.643   3.264
 2743SOL    MW411293   1.463   5.655   3.179
 2744SOL     OW11294   1.654   7.194   3.655
 2744SOL    HW211295   1.627   7.191   3.746
 2744SOL    HW311296   1.750   7.198   3.658
 2744SOL    MW411297   1.664   7.194   3.667
 2745SOL     OW11298   0.465   6.056   2.639
 2745SOL    HW211299   0.536   6.004   2.602
 2745SOL    HW311300   0.451   6.021   2.726
 2745SOL    MW411301   0.473   6.045   2.646
 2746SOL     OW11302   0.020   7.391   3.711
 2746SOL    HW211303   0.070   7.369   3.633
 2746SOL    HW311304   0.028   7.486   3.719
 2746SOL    MW411305   0.028   7.400   3.702
 2747SOL     OW11306   0.781   7.149   2.715
 2747SOL    HW211307   0.709   7.086   2.728
 2747SOL    HW311308   0.742   7.234   2.733
 2747SOL    MW411309   0.765   7.152   2.718
 2748SOL     OW11310   1.101   5.997   2.363
 2748SOL    HW211311   1.123   5.934   2.295
 2748SOL    HW311312   1.006   5.989   2.374
 2748SOL    MW411313   1.091   5.988   2.355
 2749SOL     OW11314   0.186   5.687   2.295
 2749SOL    HW211315   0.257   5.708   2.234
 2749SOL    HW311316   0.140   5.615   2.253
 2749SOL    MW411317   0.190   5.681   2.281
 2750SOL     OW11318   0.017   6.154   3.438
 2750SOL    HW211319   0.081   6.220   3.413
 2750SOL    HW311320  -0.064   6.181   3.395
 2750SOL    MW411321   0.015   6.166   3.430
 2751SOL     OW11322   1.755   7.061   2.395
 2751SOL    HW211323   1.725   6.994   2.456
 2751SOL    HW311324   1.849   7.067   2.409
 2751SOL    MW411325   1.763   7.053   2.405
 2752SOL     OW11326   1.311   6.738   2.325
 2752SOL    HW211327   1.283   6.824   2.358
 2752SOL    HW311328   1.339   6.754   2.235
 2752SOL    MW411329   1.311   6.752   2.317
 2753SOL     OW11330   0.973   5.658   2.378
 2753SOL    HW211331   1.010   5.717   2.443
 2753SOL    HW311332   0.950   5.714   2.304
 2753SOL    MW411333   0.974   5.673   2.377
 2754SOL     OW11334   1.826   6.540   2.800
 2754SOL    HW211335   1.817   6.572   2.711
 2754SOL    HW311336   1.779   6.456   2.800
 2754SOL    MW411337   1.819   6.533   2.790
 2755SOL     OW11338   0.202   6.380   3.379
 2755SOL    HW211339   0.223   6.449   3.317
 2755SOL    HW311340   0.282   6.327   3.384
 2755SOL    MW411341   0.215   6.381   3.373
 2756SOL     OW11342   1.738   6.471   2.501
 2756SOL    HW211343   1.832   6.460   2.489
 2756SOL    HW311344   1.714   6.543   2.442
 2756SOL    MW411345   1.748   6.479   2.492
 2757SOL     OW11346   0.187   6.395   3.646
 2757SOL    HW211347   0.113   6.339   3.672
 2757SOL    HW311348   0.182   6.398   3.551
 2757SOL    MW411349   0.176   6.388   3.636
 2758SOL     OW11350   0.353   5.682   3.096
 2758SOL    HW211351   0.396   5.766   3.116
 2758SOL    HW311352   0.426   5.620   3.089
 2758SOL    MW411353   0.368   5.685   3.097
 2759SOL     OW11354   0.394   6.349   2.274
 2759SOL    HW211355   0.394   6.444   2.259
 2759SOL    HW311356   0.471   6.333   2.328
 2759SOL    MW411357   0.404   6.360   2.279
 2760SOL     OW11358   1.170   6.208   3.338
 2760SOL    HW211359   1.206   6.181   3.254
 2760SOL    HW311360   1.083   6.242   3.317
 2760SOL    MW411361   1.164   6.209   3.325
 2761SOL     OW11362   0.153   6.080   2.563
 2761SOL    HW211363   0.215   6.087   2.636
 2761SOL    HW311364   0.153   5.987   2.540
 2761SOL    MW411365   0.161   6.069   2.570
 2762SOL     OW11366   1.700   7.420   2.095
 2762SOL    HW211367   1.767   7.453   2.035
 2762SOL    HW311368   1.657   7.499   2.129
 2762SOL    MW411369   1.702   7.435   2.091
 2763SOL     OW11370   0.835   6.341   3.047
 2763SOL    HW211371   0.793   6.259   3.023
 2763SOL    HW311372   0.836   6.340   3.143
 2763SOL    MW411373   0.828   6.330   3.056
 2764SOL     OW11374   1.506   7.474   3.446
 2764SOL    HW211375   1.509   7.380   3.429
 2764SOL    HW311376   1.529   7.482   3.538
 2764SOL    MW411377   1.509   7.462   3.456
 2765SOL     OW11378   0.639   5.811   3.152
 2765SOL    HW211379   0.570   5.874   3.173
 2765SOL    HW311380   0.666   5.775   3.237
 2765SOL    MW411381   0.633   5.814   3.165
 2766SOL     OW11382   0.022   6.652   2.021
 2766SOL    HW211383  -0.009   6.717   2.084
 2766SOL    HW311384  -0.029   6.574   2.040
 2766SOL    MW411385   0.012   6.649   2.031
 2767SOL     OW11386   1.434   5.664   2.769
 2767SOL    HW211387   1.522   5.673   2.806
 2767SOL    HW311388   1.444   5.605   2.695
 2767SOL    MW411389   1.448   5.658   2.763
 2768SOL     OW11390   1.466   6.403   2.613
 2768SOL    HW211391   1.546   6.418   2.562
 2768SOL    HW311392   1.459   6.308   2.619
 2768SOL    MW411393   1.475   6.392   2.608
 2769SOL     OW11394   0.606   7.452   1.963
 2769SOL    HW211395   0.511   7.452   1.955
 2769SOL    HW311396   0.622   7.398   2.041
 2769SOL    MW411397   0.596   7.446   1.972
 2770SOL     OW11398   0.916   6.329   3.310
 2770SOL    HW211399   0.985   6.396   3.307
 2770SOL    HW311400   0.849   6.367   3.366
 2770SOL    MW411401   0.917   6.342   3.317
 2771SOL     OW11402   0.334   6.629   3.558
 2771SOL    HW211403   0.288   6.545   3.560
 2771SOL    HW311404   0.391   6.623   3.482
 2771SOL    MW411405   0.336   6.617   3.550
 2772SOL     OW11406   1.451   6.272   1.879
 2772SOL    HW211407   1.379   6.248   1.821
 2772SOL    HW311408   1.517   6.309   1.821
 2772SOL    MW411409   1.450   6.274   1.864
 2773SOL     OW11410   0.585   7.004   2.559
 2773SOL    HW211411   0.650   6.937   2.580
 2773SOL    HW311412   0.637   7.081   2.536
 2773SOL    MW411413   0.600   7.006   2.558
 2774SOL     OW11414   0.846   6.169   2.689
 2774SOL    HW211415   0.786   6.187   2.761
 2774SOL    HW311416   0.880   6.081   2.708
 2774SOL    MW411417   0.842   6.159   2.702
 2775SOL     OW11418   1.787   5.668   3.358
 2775SOL    HW211419   1.708   5.714   3.386
 2775SOL    HW311420   1.822   5.722   3.287
 2775SOL    MW411421   1.781   5.681   3.352
 2776SOL     OW11422   1.071   6.752   2.708
 2776SOL    HW211423   1.163   6.733   2.726
 2776SOL    HW311424   1.044   6.682   2.648
 2776SOL    MW411425   1.079   6.740   2.702
 2777SOL     OW11426   0.864   6.572   2.063
 2777SOL    HW211427   0.850   6.484   2.028
 2777SOL    HW311428   0.815   6.629   2.004
 2777SOL    MW411429   0.856   6.567   2.051
 2778SOL     OW11430   1.345   6.990   2.804
 2778SOL    HW211431   1.318   7.074   2.769
 2778SOL    HW311432   1.305   6.985   2.891
 2778SOL    MW411433   1.338   6.999   2.810
 2779SOL     OW11434   1.264   6.938   3.072
 2779SOL    HW211435   1.275   6.905   3.161
 2779SOL    HW311436   1.183   6.897   3.041
 2779SOL    MW411437   1.254   6.930   3.078
 2780SOL     OW11438   0.277   6.296   2.842
 2780SOL    HW211439   0.227   6.295   2.923
 2780SOL    HW311440   0.297   6.388   2.826
 2780SOL    MW411441   0.273   6.308   2.850
 2781SOL     OW11442   1.344   7.060   3.604
 2781SOL    HW211443   1.344   7.154   3.620
 2781SOL    HW311444   1.389   7.050   3.520
 2781SOL    MW411445   1.350   7.070   3.595
 2782SOL     OW11446   1.583   5.778   2.165
 2782SOL    HW211447   1.576   5.782   2.260
 2782SOL    HW311448   1.595   5.869   2.138
 2782SOL    MW411449   1.584   5.791   2.173
 2783SOL     OW11450   0.872   6.341   2.279
 2783SOL    HW211451   0.852   6.327   2.186
 2783SOL    HW311452   0.965   6.320   2.286
 2783SOL    MW411453   0.882   6.336   2.268
 2784SOL     OW11454   0.199   5.964   3.583
 2784SOL    HW211455   0.156   6.023   3.520
 2784SOL    HW311456   0.267   6.019   3.623
 2784SOL    MW411457   0.203   5.979   3.580
 2785SOL     OW11458   1.311   6.584   3.128
 2785SOL    HW211459   1.374   6.581   3.201
 2785SOL    HW311460   1.227   6.602   3.170
 2785SOL    MW411461   1.307   6.586   3.143
 2786SOL     OW11462   0.855   7.299   2.317
 2786SOL    HW211463   0.913   7.370   2.344
 2786SOL    HW311464   0.878   7.227   2.375
 2786SOL    MW411465   0.866   7.299   2.328
 2787SOL     OW11466   1.650   5.761   2.907
 2787SOL    HW211467   1.695   5.679   2.926
 2787SOL    HW311468   1.670   5.817   2.983
 2787SOL    MW411469   1.660   5.757   2.919
 2788SOL     OW11470   0.098   5.604   3.006
 2788SOL    HW211471   0.089   5.605   2.911
 2788SOL    HW311472   0.192   5.616   3.021
 2788SOL    MW411473   0.110   5.607   2.997
 2789SOL     OW11474   1.735   6.797   2.626
 2789SOL    HW211475   1.714   6.743   2.549
 2789SOL    HW311476   1.831   6.795   2.630
 2789SOL    MW411477   1.744   6.790   2.615
 2790SOL     OW11478   0.427   6.942   3.369
 2790SOL    HW211479   0.348   6.892   3.392
 2790SOL    HW311480   0.497   6.901   3.419
 2790SOL    MW411481   0.425   6.930   3.379
 2791SOL     OW11482   0.311   5.731   2.052
 2791SOL    HW211483   0.240   5.786   2.020
 2791SOL    HW311484   0.353   5.697   1.973
 2791SOL    MW411485   0.307   5.733   2.038
 2792SOL     OW11486   1.435   6.228   2.888
 2792SOL    HW211487   1.358   6.274   2.854
 2792SOL    HW311488   1.492   6.297   2.922
 2792SOL    MW411489   1.432   6.243   2.888
 2793SOL     OW11490   0.067   5.830   1.901
 2793SOL    HW211491   0.034   5.909   1.945
 2793SOL    HW311492   0.122   5.863   1.830
 2793SOL    MW411493   0.070   5.844   1.898
 2794SOL     OW11494   0.101   7.087   2.090
 2794SOL    HW211495   0.118   7.171   2.132
 2794SOL    HW311496   0.136   7.096   2.002
 2794SOL    MW411497   0.106   7.100   2.084
 2795SOL     OW11498   1.373   7.176   2.307
 2795SOL    HW211499   1.436   7.166   2.236
 2795SOL    HW311500   1.290   7.196   2.262
 2795SOL    MW411501   1.370   7.177   2.292
 2796SOL     OW11502   1.736   6.444   3.993
 2796SOL    HW211503   1.777   6.386   4.058
 2796SOL    HW311504   1.643   6.436   4.010
 2796SOL    MW411505   1.730   6.436   4.003
 2797SOL     OW11506   1.602   6.376   4.988
 2797SOL    HW211507   1.557   6.443   5.039
 2797SOL    HW311508   1.690   6.412   4.974
 2797SOL    MW411509   1.608   6.389   4.992
 2798SOL     OW11510   0.530   6.627   4.222
 2798SOL    HW211511   0.620   6.602   4.206
 2798SOL    HW311512   0.526   6.720   4.199
 2798SOL    MW411513   0.542   6.636   4.217
 2799SOL     OW11514   1.646   7.330   4.364
 2799SOL    HW211515   1.658   7.276   4.442
 2799SOL    HW311516   1.683   7.278   4.293
 2799SOL    MW411517   1.652   7.315   4.365
 2800SOL     OW11518   1.025   7.215   5.365
 2800SOL    HW211519   1.066   7.251   5.286
 2800SOL    HW311520   1.060   7.126   5.372
 2800SOL    MW411521   1.036   7.208   5.356
 2801SOL     OW11522   1.582   6.770   4.969
 2801SOL    HW211523   1.503   6.735   4.927
 2801SOL    HW311524   1.609   6.842   4.913
 2801SOL    MW411525   1.575   6.775   4.956
 2802SOL     OW11526   0.814   6.083   4.235
 2802SOL    HW211527   0.789   6.171   4.263
 2802SOL    HW311528   0.811   6.086   4.139
 2802SOL    MW411529   0.810   6.095   4.227
 2803SOL     OW11530   0.256   6.111   4.163
 2803SOL    HW211531   0.288   6.199   4.145
 2803SOL    HW311532   0.244   6.109   4.258
 2803SOL    MW411533   0.259   6.123   4.175
 2804SOL     OW11534   0.334   6.524   5.064
 2804SOL    HW211535   0.397   6.471   5.015
 2804SOL    HW311536   0.315   6.598   5.007
 2804SOL    MW411537   0.340   6.526   5.051
 2805SOL     OW11538   0.655   5.866   4.250
 2805SOL    HW211539   0.713   5.942   4.252
 2805SOL    HW311540   0.590   5.887   4.183
 2805SOL    MW411541   0.654   5.878   4.241
 2806SOL     OW11542   0.742   6.793   4.425
 2806SOL    HW211543   0.822   6.796   4.477
 2806SOL    HW311544   0.770   6.760   4.339
 2806SOL    MW411545   0.756   6.789   4.420
 2807SOL     OW11546   0.767   7.134   5.328
 2807SOL    HW211547   0.851   7.160   5.367
 2807SOL    HW311548   0.791   7.078   5.254
 2807SOL    MW411549   0.781   7.130   5.323
 2808SOL     OW11550   0.519   6.297   4.416
 2808SOL    HW211551   0.504   6.217   4.467
 2808SOL    HW311552   0.601   6.332   4.450
 2808SOL    MW411553   0.527   6.289   4.428
 2809SOL     OW11554   0.856   6.983   5.101
 2809SOL    HW211555   0.820   7.049   5.041
 2809SOL    HW311556   0.784   6.921   5.114
 2809SOL    MW411557   0.842   6.983   5.095
 2810SOL     OW11558   0.661   6.123   4.793
 2810SOL    HW211559   0.567   6.119   4.811
 2810SOL    HW311560   0.691   6.032   4.802
 2810SOL    MW411561   0.652   6.111   4.796
 2811SOL     OW11562   0.407   6.537   4.697
 2811SOL    HW211563   0.362   6.544   4.613
 2811SOL    HW311564   0.387   6.620   4.741
 2811SOL    MW411565   0.399   6.549   4.691
 2812SOL     OW11566   0.104   7.383   4.572
 2812SOL    HW211567   0.193   7.375   4.607
 2812SOL    HW311568   0.068   7.295   4.577
 2812SOL    MW411569   0.111   7.370   4.577
 2813SOL     OW11570   1.369   6.775   3.941
 2813SOL    HW211571   1.287   6.811   3.907
 2813SOL    HW311572   1.437   6.818   3.890
 2813SOL    MW411573   1.367   6.785   3.929
 2814SOL     OW11574   0.368   6.910   4.607
 2814SOL    HW211575   0.344   6.963   4.683
 2814SOL    HW311576   0.424   6.968   4.555
 2814SOL    MW411577   0.372   6.925   4.610
 2815SOL     OW11578   0.930   6.554   4.417
 2815SOL    HW211579   0.844   6.541   4.457
 2815SOL    HW311580   0.983   6.481   4.449
 2815SOL    MW411581   0.926   6.543   4.426
 2816SOL     OW11582   0.338   7.206   5.202
 2816SOL    HW211583   0.246   7.182   5.187
 2816SOL    HW311584   0.382   7.123   5.219
 2816SOL    MW411585   0.332   7.191   5.201
 2817SOL     OW11586   0.921   6.916   4.134
 2817SOL    HW211587   0.898   6.978   4.202
 2817SOL    HW311588   0.878   6.834   4.160
 2817SOL    MW411589   0.913   6.912   4.145
 2818SOL     OW11590   1.794   5.917   4.590
 2818SOL    HW211591   1.731   5.897   4.659
 2818SOL    HW311592   1.784   5.846   4.527
 2818SOL    MW411593   1.784   5.904   4.591
 2819SOL     OW11594   0.418   5.889   4.102
 2819SOL    HW211595   0.392   5.851   4.018
 2819SOL    HW311596   0.355   5.959   4.118
 2819SOL    MW411597   0.407   5.892   4.093
 2820SOL     OW11598   0.253   6.850   4.139
 2820SOL    HW211599   0.201   6.918   4.095
 2820SOL    HW311600   0.250   6.776   4.079
 2820SOL    MW411601   0.245   6.849   4.126
 2821SOL     OW11602   0.915   7.313   3.917
 2821SOL    HW211603   0.870   7.329   4.000
 2821SOL    HW311604   0.846   7.278   3.859
 2821SOL    MW411605   0.901   7.310   3.919
 2822SOL     OW11606   1.850   6.086   3.892
 2822SOL    HW211607   1.759   6.088   3.920
 2822SOL    HW311608   1.895   6.148   3.950
 2822SOL    MW411609   1.843   6.094   3.902
 2823SOL     OW11610   1.595   6.689   4.242
 2823SOL    HW211611   1.505   6.689   4.277
 2823SOL    HW311612   1.588   6.735   4.159
 2823SOL    MW411613   1.582   6.695   4.236
 2824SOL     OW11614   1.395   6.324   5.314
 2824SOL    HW211615   1.464   6.262   5.291
 2824SOL    HW311616   1.320   6.298   5.261
 2824SOL    MW411617   1.395   6.311   5.305
 2825SOL     OW11618   0.136   7.204   4.866
 2825SOL    HW211619   0.119   7.150   4.943
 2825SOL    HW311620   0.124   7.294   4.896
 2825SOL    MW411621   0.133   7.208   4.880
 2826SOL     OW11622   1.131   6.711   5.306
 2826SOL    HW211623   1.116   6.804   5.291
 2826SOL    HW311624   1.226   6.701   5.306
 2826SOL    MW411625   1.140   6.721   5.303
 2827SOL     OW11626   0.927   6.135   5.507
 2827SOL    HW211627   1.017   6.136   5.474
 2827SOL    HW311628   0.886   6.060   5.465
 2827SOL    MW411629   0.933   6.125   5.498
 2828SOL     OW11630   1.502   6.667   4.634
 2828SOL    HW211631   1.505   6.601   4.565
 2828SOL    HW311632   1.587   6.710   4.630
 2828SOL    MW411633   1.514   6.663   4.625
 2829SOL     OW11634   1.122   6.270   4.203
 2829SOL    HW211635   1.148   6.294   4.114
 2829SOL    HW311636   1.104   6.177   4.199
 2829SOL    MW411637   1.124   6.262   4.190
 2830SOL     OW11638   1.787   6.890   4.054
 2830SOL    HW211639   1.743   6.931   4.129
 2830SOL    HW311640   1.844   6.958   4.019
 2830SOL    MW411641   1.789   6.904   4.059
 2831SOL     OW11642   0.707   5.939   5.457
 2831SOL    HW211643   0.717   5.865   5.397
 2831SOL    HW311644   0.743   5.908   5.540
 2831SOL    MW411645   0.713   5.925   5.459
 2832SOL     OW11646   0.443   7.306   4.372
 2832SOL    HW211647   0.475   7.394   4.350
 2832SOL    HW311648   0.396   7.278   4.294
 2832SOL    MW411649   0.442   7.314   4.359
 2833SOL     OW11650   1.827   5.668   4.421
 2833SOL    HW211651   1.881   5.619   4.483
 2833SOL    HW311652   1.770   5.602   4.382
 2833SOL    MW411653   1.827   5.652   4.423
 2834SOL     OW11654   0.159   7.366   3.949
 2834SOL    HW211655   0.188   7.456   3.941
 2834SOL    HW311656   0.109   7.349   3.870
 2834SOL    MW411657   0.157   7.374   3.938
 2835SOL     OW11658   0.946   5.621   4.834
 2835SOL    HW211659   0.905   5.699   4.796
 2835SOL    HW311660   1.040   5.639   4.829
 2835SOL    MW411661   0.952   5.633   4.829
 2836SOL     OW11662   1.563   7.174   3.920
 2836SOL    HW211663   1.611   7.243   3.966
 2836SOL    HW311664   1.484   7.218   3.889
 2836SOL    MW411665   1.558   7.188   3.923
 2837SOL     OW11666   0.961   6.299   3.864
 2837SOL    HW211667   0.963   6.246   3.785
 2837SOL    HW311668   1.049   6.336   3.870
 2837SOL    MW411669   0.973   6.298   3.853
 2838SOL     OW11670   1.575   6.225   4.200
 2838SOL    HW211671   1.614   6.225   4.287
 2838SOL    HW311672   1.516   6.301   4.200
 2838SOL    MW411673   1.572   6.236   4.211
 2839SOL     OW11674   0.892   6.592   5.329
 2839SOL    HW211675   0.869   6.572   5.419
 2839SOL    HW311676   0.977   6.636   5.334
 2839SOL    MW411677   0.899   6.595   5.341
 2840SOL     OW11678   0.972   5.729   5.089
 2840SOL    HW211679   0.978   5.691   5.002
 2840SOL    HW311680   0.961   5.823   5.074
 2840SOL    MW411681   0.973   5.737   5.077
 2841SOL     OW11682   1.061   6.218   4.923
 2841SOL    HW211683   1.136   6.247   4.870
 2841SOL    HW311684   0.993   6.283   4.907
 2841SOL    MW411685   1.062   6.230   4.913
 2842SOL     OW11686   1.611   6.186   5.200
 2842SOL    HW211687   1.592   6.095   5.179
 2842SOL    HW311688   1.589   6.235   5.121
 2842SOL    MW411689   1.606   6.179   5.187
 2843SOL     OW11690   1.753   7.280   5.104
 2843SOL    HW211691   1.681   7.242   5.155
 2843SOL    HW311692   1.770   7.365   5.145
 2843SOL    MW411693   1.747   7.285   5.116
 2844SOL     OW11694   1.058   5.924   5.306
 2844SOL    HW211695   1.024   5.963   5.225
 2844SOL    HW311696   1.036   5.832   5.299
 2844SOL    MW411697   1.051   5.917   5.296
 2845SOL     OW11698   1.467   6.738   5.382
 2845SOL    HW211699   1.549   6.779   5.412
 2845SOL    HW311700   1.430   6.700   5.462
 2845SOL    MW411701   1.473   6.739   5.397
 2846SOL     OW11702   1.762   6.111   4.366
 2846SOL    HW211703   1.851   6.080   4.383
 2846SOL    HW311704   1.705   6.051   4.414
 2846SOL    MW411705   1.765   6.099   4.375
 2847SOL     OW11706   0.188   5.825   4.395
 2847SOL    HW211707   0.179   5.765   4.321
 2847SOL    HW311708   0.121   5.796   4.458
 2847SOL    MW411709   0.178   5.812   4.393
 2848SOL     OW11710   1.131   6.918   3.956
 2848SOL    HW211711   1.081   6.920   4.038
 2848SOL    HW311712   1.065   6.936   3.888
 2848SOL    MW411713   1.117   6.920   3.958
 2849SOL     OW11714   0.135   5.998   4.758
 2849SOL    HW211715   0.107   6.089   4.767
 2849SOL    HW311716   0.072   5.959   4.697
 2849SOL    MW411717   0.122   6.004   4.752
 2850SOL     OW11718   0.594   7.336   4.064
 2850SOL    HW211719   0.515   7.294   4.097
 2850SOL    HW311720   0.660   7.319   4.131
 2850SOL    MW411721   0.593   7.328   4.077
 2851SOL     OW11722   1.722   6.856   5.461
 2851SOL    HW211723   1.772   6.782   5.493
 2851SOL    HW311724   1.668   6.883   5.536
 2851SOL    MW411725   1.722   6.850   5.474
 2852SOL     OW11726   0.730   6.751   3.771
 2852SOL    HW211727   0.652   6.697   3.758
 2852SOL    HW311728   0.701   6.824   3.824
 2852SOL    MW411729   0.716   6.753   3.776
 2853SOL     OW11730   1.856   6.491   4.963
 2853SOL    HW211731   1.872   6.529   4.876
 2853SOL    HW311732   1.890   6.557   5.024
 2853SOL    MW411733   1.863   6.504   4.959
 2854SOL     OW11734   1.648   7.200   4.632
 2854SOL    HW211735   1.677   7.267   4.693
 2854SOL    HW311736   1.629   7.124   4.687
 2854SOL    MW411737   1.650   7.200   4.647
 2855SOL     OW11738   1.311   7.267   3.839
 2855SOL    HW211739   1.237   7.230   3.889
 2855SOL    HW311740   1.319   7.357   3.872
 2855SOL    MW411741   1.302   7.274   3.851
 2856SOL     OW11742   0.119   6.273   4.928
 2856SOL    HW211743   0.181   6.303   4.994
 2856SOL    HW311744   0.053   6.342   4.922
 2856SOL    MW411745   0.118   6.286   4.935
 2857SOL     OW11746   1.535   6.941   3.781
 2857SOL    HW211747   1.482   6.990   3.717
 2857SOL    HW311748   1.566   7.007   3.842
 2857SOL    MW411749   1.533   6.955   3.779
 2858SOL     OW11750   0.760   5.830   3.836
 2858SOL    HW211751   0.708   5.750   3.824
 2858SOL    HW311752   0.847   5.807   3.804
 2858SOL    MW411753   0.763   5.816   3.830
 2859SOL     OW11754   0.214   7.382   5.380
 2859SOL    HW211755   0.188   7.450   5.318
 2859SOL    HW311756   0.262   7.319   5.328
 2859SOL    MW411757   0.216   7.382   5.366
 2860SOL     OW11758   0.266   6.701   4.887
 2860SOL    HW211759   0.319   6.776   4.912
 2860SOL    HW311760   0.185   6.739   4.853
 2860SOL    MW411761   0.262   6.716   4.887
 2861SOL     OW11762   0.806   6.605   4.875
 2861SOL    HW211763   0.834   6.514   4.887
 2861SOL    HW311764   0.735   6.599   4.811
 2861SOL    MW411765   0.799   6.593   4.870
 2862SOL     OW11766   0.121   6.470   4.293
 2862SOL    HW211767   0.212   6.485   4.320
 2862SOL    HW311768   0.124   6.391   4.239
 2862SOL    MW411769   0.133   6.462   4.291
 2863SOL     OW11770   0.357   6.178   5.547
 2863SOL    HW211771   0.304   6.258   5.554
 2863SOL    HW311772   0.427   6.190   5.612
 2863SOL    MW411773   0.359   6.191   5.555
 2864SOL     OW11774   0.743   5.728   5.254
 2864SOL    HW211775   0.720   5.636   5.256
 2864SOL    HW311776   0.829   5.730   5.211
 2864SOL    MW411777   0.750   5.718   5.250
 2865SOL     OW11778   0.427   6.252   5.293
 2865SOL    HW211779   0.507   6.302   5.279
 2865SOL    HW311780   0.418   6.246   5.388
 2865SOL    MW411781   0.436   6.258   5.303
 2866SOL     OW11782   0.748   7.402   4.667
 2866SOL    HW211783   0.837   7.417   4.697
 2866SOL    HW311784   0.743   7.449   4.583
 2866SOL    MW411785   0.758   7.410   4.660
 2867SOL     OW11786   1.404   5.777   5.564
 2867SOL    HW211787   1.460   5.704   5.590
 2867SOL    HW311788   1.374   5.815   5.646
 2867SOL    MW411789   1.408   5.772   5.577
 2868SOL     OW11790   0.129   7.082   4.332
 2868SOL    HW211791   0.101   7.121   4.414
 2868SOL    HW311792   0.149   6.991   4.354
 2868SOL    MW411793   0.127   7.074   4.345
 2869SOL     OW11794   0.962   7.125   4.367
 2869SOL    HW211795   1.045   7.079   4.351
 2869SOL    HW311796   0.952   7.124   4.463
 2869SOL    MW411797   0.972   7.118   4.377
 2870SOL     OW11798   1.645   6.449   5.561
 2870SOL    HW211799   1.700   6.373   5.542
 2870SOL    HW311800   1.647   6.457   5.656
 2870SOL    MW411801   1.653   6.440   5.569
 2871SOL     OW11802   0.695   7.182   3.772
 2871SOL    HW211803   0.635   7.251   3.742
 2871SOL    HW311804   0.640   7.124   3.825
 2871SOL    MW411805   0.679   7.184   3.774
 2872SOL     OW11806   1.133   5.827   3.995
 2872SOL    HW211807   1.066   5.803   3.932
 2872SOL    HW311808   1.198   5.876   3.944
 2872SOL    MW411809   1.133   5.829   3.980
 2873SOL     OW11810   0.940   6.011   5.080
 2873SOL    HW211811   0.859   6.052   5.108
 2873SOL    HW311812   0.987   6.079   5.032
 2873SOL    MW411813   0.935   6.026   5.078
 2874SOL     OW11814   1.200   6.349   4.703
 2874SOL    HW211815   1.213   6.443   4.713
 2874SOL    HW311816   1.161   6.339   4.617
 2874SOL    MW411817   1.196   6.360   4.693
 2875SOL     OW11818   0.652   6.544   4.507
 2875SOL    HW211819   0.563   6.535   4.540
 2875SOL    HW311820   0.656   6.634   4.475
 2875SOL    MW411821   0.641   6.555   4.507
 2876SOL     OW11822   1.451   6.127   4.502
 2876SOL    HW211823   1.396   6.048   4.501
 2876SOL    HW311824   1.433   6.168   4.586
 2876SOL    MW411825   1.441   6.122   4.511
 2877SOL     OW11826   0.422   5.814   5.319
 2877SOL    HW211827   0.343   5.832   5.371
 2877SOL    HW311828   0.417   5.876   5.246
 2877SOL    MW411829   0.412   5.824   5.316
 2878SOL     OW11830   1.070   6.331   4.459
 2878SOL    HW211831   1.007   6.263   4.483
 2878SOL    HW311832   1.090   6.312   4.367
 2878SOL    MW411833   1.064   6.318   4.451
 2879SOL     OW11834   0.326   7.226   4.161
 2879SOL    HW211835   0.287   7.273   4.087
 2879SOL    HW311836   0.260   7.161   4.186
 2879SOL    MW411837   0.313   7.224   4.155
 2880SOL     OW11838   0.818   6.635   4.185
 2880SOL    HW211839   0.820   6.609   4.092
 2880SOL    HW311840   0.876   6.572   4.228
 2880SOL    MW411841   0.826   6.624   4.179
 2881SOL     OW11842   1.371   7.195   4.957
 2881SOL    HW211843   1.296   7.241   4.995
 2881SOL    HW311844   1.353   7.102   4.974
 2881SOL    MW411845   1.360   7.189   4.965
 2882SOL     OW11846   1.375   7.403   4.387
 2882SOL    HW211847   1.318   7.356   4.326
 2882SOL    HW311848   1.461   7.364   4.374
 2882SOL    MW411849   1.378   7.394   4.377
 2883SOL     OW11850   1.328   5.879   4.518
 2883SOL    HW211851   1.356   5.811   4.579
 2883SOL    HW311852   1.242   5.850   4.488
 2883SOL    MW411853   1.321   5.866   4.522
 2884SOL     OW11854   0.133   6.813   4.452
 2884SOL    HW211855   0.197   6.845   4.515
 2884SOL    HW311856   0.182   6.749   4.400
 2884SOL    MW411857   0.148   6.809   4.453
 2885SOL     OW11858   0.633   6.889   5.434
 2885SOL    HW211859   0.681   6.972   5.421
 2885SOL    HW311860   0.690   6.837   5.490
 2885SOL    MW411861   0.647   6.893   5.440
 2886SOL     OW11862   0.209   7.131   5.574
 2886SOL    HW211863   0.265   7.055   5.589
 2886SOL    HW311864   0.158   7.109   5.496
 2886SOL    MW411865   0.209   7.118   5.565
 2887SOL     OW11866   1.308   5.983   3.853
 2887SOL    HW211867   1.281   6.049   3.789
 2887SOL    HW311868   1.378   6.026   3.903
 2887SOL    MW411869   1.313   5.996   3.850
 2888SOL     OW11870   0.976   5.688   3.790
 2888SOL    HW211871   1.032   5.680   3.712
 2888SOL    HW311872   0.953   5.598   3.812
 2888SOL    MW411873   0.981   5.675   3.783
 2889SOL     OW11874   1.481   6.539   3.995
 2889SOL    HW211875   1.448   6.628   3.985
 2889SOL    HW311876   1.446   6.510   4.080
 2889SOL    MW411877   1.471   6.548   4.006
 2890SOL     OW11878   1.094   6.968   5.183
 2890SOL    HW211879   1.005   6.974   5.151
 2890SOL    HW311880   1.138   7.047   5.151
 2890SOL    MW411881   1.089   6.978   5.175
 2891SOL     OW11882   0.387   5.636   5.525
 2891SOL    HW211883   0.315   5.601   5.473
 2891SOL    HW311884   0.445   5.677   5.460
 2891SOL    MW411885   0.385   5.637   5.510
 2892SOL     OW11886   0.411   7.126   4.824
 2892SOL    HW211887   0.456   7.188   4.881
 2892SOL    HW311888   0.318   7.145   4.837
 2892SOL    MW411889   0.404   7.136   4.831
 2893SOL     OW11890   1.851   6.655   5.178
 2893SOL    HW211891   1.766   6.668   5.137
 2893SOL    HW311892   1.831   6.619   5.265
 2893SOL    MW411893   1.838   6.651   5.183
 2894SOL     OW11894   0.833   7.194   4.932
 2894SOL    HW211895   0.857   7.183   4.841
 2894SOL    HW311896   0.756   7.251   4.930
 2894SOL    MW411897   0.825   7.199   4.921
 2895SOL     OW11898   0.475   6.577   3.787
 2895SOL    HW211899   0.398   6.590   3.843
 2895SOL    HW311900   0.439   6.541   3.706
 2895SOL    MW411901   0.461   6.573   3.784
 2896SOL     OW11902   1.128   6.550   4.030
 2896SOL    HW211903   1.038   6.571   4.005
 2896SOL    HW311904   1.155   6.623   4.086
 2896SOL    MW411905   1.120   6.562   4.033
 2897SOL     OW11906   0.628   6.899   4.722
 2897SOL    HW211907   0.621   6.878   4.816
 2897SOL    HW311908   0.546   6.867   4.685
 2897SOL    MW411909   0.616   6.893   4.729
 2898SOL     OW11910   1.492   5.909   5.124
 2898SOL    HW211911   1.439   5.911   5.204
 2898SOL    HW311912   1.477   5.822   5.087
 2898SOL    MW411913   1.484   5.899   5.129
 2899SOL     OW11914   1.828   5.833   4.997
 2899SOL    HW211915   1.809   5.900   4.932
 2899SOL    HW311916   1.885   5.771   4.952
 2899SOL    MW411917   1.832   5.834   4.983
 2900SOL     OW11918   0.074   6.991   5.385
 2900SOL    HW211919   0.118   6.924   5.331
 2900SOL    HW311920  -0.011   6.953   5.405
 2900SOL    MW411921   0.069   6.977   5.381
 2901SOL     OW11922   0.757   5.666   4.437
 2901SOL    HW211923   0.686   5.727   4.419
 2901SOL    HW311924   0.808   5.663   4.356
 2901SOL    MW411925   0.753   5.672   4.424
 2902SOL     OW11926   0.515   6.906   4.186
 2902SOL    HW211927   0.508   6.938   4.276
 2902SOL    HW311928   0.425   6.890   4.158
 2902SOL    MW411929   0.503   6.908   4.193
 2903SOL     OW11930   1.110   7.299   5.095
 2903SOL    HW211931   1.030   7.284   5.045
 2903SOL    HW311932   1.117   7.394   5.102
 2903SOL    MW411933   1.101   7.310   5.089
 2904SOL     OW11934   1.224   7.264   4.585
 2904SOL    HW211935   1.271   7.337   4.544
 2904SOL    HW311936   1.145   7.303   4.621
 2904SOL    MW411937   1.219   7.279   4.584
 2905SOL     OW11938   1.632   7.359   4.860
 2905SOL    HW211939   1.675   7.329   4.940
 2905SOL    HW311940   1.551   7.307   4.857
 2905SOL    MW411941   1.627   7.348   4.870
 2906SOL     OW11942   0.717   6.323   5.567
 2906SOL    HW211943   0.787   6.265   5.539
 2906SOL    HW311944   0.660   6.268   5.622
 2906SOL    MW411945   0.719   6.310   5.571
 2907SOL     OW11946   1.504   6.535   5.200
 2907SOL    HW211947   1.509   6.588   5.280
 2907SOL    HW311948   1.466   6.452   5.228
 2907SOL    MW411949   1.500   6.530   5.215
 2908SOL     OW11950   1.144   5.670   5.446
 2908SOL    HW211951   1.139   5.577   5.427
 2908SOL    HW311952   1.227   5.681   5.492
 2908SOL    MW411953   1.152   5.659   5.450
 2909SOL     OW11954   0.518   6.190   3.900
 2909SOL    HW211955   0.484   6.246   3.970
 2909SOL    HW311956   0.589   6.140   3.940
 2909SOL    MW411957   0.524   6.191   3.914
 2910SOL     OW11958   1.614   6.941   4.722
 2910SOL    HW211959   1.649   6.923   4.635
 2910SOL    HW311960   1.519   6.942   4.709
 2910SOL    MW411961   1.606   6.938   4.709
 2911SOL     OW11962   1.043   6.589   5.091
 2911SOL    HW211963   1.086   6.624   5.169
 2911SOL    HW311964   1.026   6.666   5.037
 2911SOL    MW411965   1.046   6.604   5.094
 2912SOL     OW11966   1.574   6.076   3.964
 2912SOL    HW211967   1.566   6.147   3.901
 2912SOL    HW311968   1.592   6.120   4.047
 2912SOL    MW411969   1.575   6.090   3.966
 2913SOL     OW11970   0.434   5.731   4.393
 2913SOL    HW211971   0.484   5.774   4.324
 2913SOL    HW311972   0.349   5.775   4.393
 2913SOL    MW411973   0.431   5.744   4.384
 2914SOL     OW11974   0.193   6.793   5.253
 2914SOL    HW211975   0.221   6.746   5.331
 2914SOL    HW311976   0.114   6.748   5.224
 2914SOL    MW411977   0.186   6.782   5.259
 2915SOL     OW11978   0.701   6.120   5.220
 2915SOL    HW211979   0.673   6.208   5.244
 2915SOL    HW311980   0.670   6.064   5.291
 2915SOL    MW411981   0.693   6.123   5.232
 2916SOL     OW11982   1.243   6.338   3.939
 2916SOL    HW211983   1.290   6.356   3.858
 2916SOL    HW311984   1.209   6.422   3.967
 2916SOL    MW411985   1.245   6.352   3.932
 2917SOL     OW11986   0.356   6.516   4.433
 2917SOL    HW211987   0.414   6.572   4.381
 2917SOL    HW311988   0.400   6.431   4.435
 2917SOL    MW411989   0.369   6.513   4.426
 2918SOL     OW11990   1.496   5.868   4.270
 2918SOL    HW211991   1.418   5.818   4.295
 2918SOL    HW311992   1.467   5.959   4.270
 2918SOL    MW411993   1.482   5.872   4.273
 2919SOL     OW11994   1.082   5.830   4.429
 2919SOL    HW211995   1.102   5.905   4.373
 2919SOL    HW311996   1.062   5.869   4.514
 2919SOL    MW411997   1.083   5.846   4.433
 2920SOL     OW11998   0.978   7.080   3.761
 2920SOL    HW211999   1.005   7.158   3.713
 2920SOL    HW312000   0.885   7.095   3.780
 2920SOL    MW412001   0.969   7.093   3.757
 2921SOL     OW12002   1.842   6.603   5.448
 2921SOL    HW212003   1.755   6.583   5.484
 2921SOL    HW312004   1.896   6.529   5.473
 2921SOL    MW412005   1.837   6.592   5.456
 2922SOL     OW12006   0.063   7.116   4.605
 2922SOL    HW212007   0.095   7.120   4.696
 2922SOL    HW312008  -0.032   7.124   4.613
 2922SOL    MW412009   0.055   7.119   4.618
 2923SOL     OW12010   0.018   6.242   4.152
 2923SOL    HW212011  -0.042   6.214   4.222
 2923SOL    HW312012   0.092   6.182   4.158
 2923SOL    MW412013   0.020   6.231   4.161
 2924SOL     OW12014   1.586   7.454   5.586
 2924SOL    HW212015   1.631   7.378   5.551
 2924SOL    HW312016   1.624   7.467   5.673
 2924SOL    MW412017   1.596   7.447   5.592
 2925SOL     OW12018   1.186   6.973   4.312
 2925SOL    HW212019   1.209   6.924   4.390
 2925SOL    HW312020   1.267   7.015   4.284
 2925SOL    MW412021   1.199   6.973   4.319
 2926SOL     OW12022   0.444   5.981   5.041
 2926SOL    HW212023   0.477   6.062   5.081
 2926SOL    HW312024   0.417   6.007   4.953
 2926SOL    MW412025   0.443   5.995   5.035
 2927SOL     OW12026   0.398   5.948   4.777
 2927SOL    HW212027   0.428   5.862   4.748
 2927SOL    HW312028   0.303   5.941   4.780
 2927SOL    MW412029   0.390   5.937   4.775
 2928SOL     OW12030   1.326   5.952   5.329
 2928SOL    HW212031   1.233   5.936   5.316
 2928SOL    HW312032   1.352   5.890   5.397
 2928SOL    MW412033   1.316   5.942   5.336
 2929SOL     OW12034   0.541   5.726   4.668
 2929SOL    HW212035   0.551   5.635   4.694
 2929SOL    HW312036   0.497   5.722   4.583
 2929SOL    MW412037   0.537   5.714   4.660
 2930SOL     OW12038   0.635   7.341   5.214
 2930SOL    HW212039   0.552   7.326   5.259
 2930SOL    HW312040   0.694   7.274   5.249
 2930SOL    MW412041   0.633   7.331   5.224
 2931SOL     OW12042   1.692   6.048   4.839
 2931SOL    HW212043   1.625   6.081   4.899
 2931SOL    HW312044   1.735   6.126   4.805
 2931SOL    MW412045   1.690   6.063   4.843
 2932SOL     OW12046   1.870   6.768   4.809
 2932SOL    HW212047   1.863   6.708   4.734
 2932SOL    HW312048   1.796   6.828   4.798
 2932SOL    MW412049   1.860   6.768   4.798
 2933SOL     OW12050   1.252   6.630   4.727
 2933SOL    HW212051   1.266   6.602   4.818
 2933SOL    HW312052   1.338   6.661   4.699
 2933SOL    MW412053   1.265   6.631   4.736
 2934SOL     OW12054   1.335   6.125   5.006
 2934SOL    HW212055   1.356   6.126   4.913
 2934SOL    HW312056   1.380   6.047   5.039
 2934SOL    MW412057   1.342   6.115   4.998
 2935SOL     OW12058   1.828   6.256   5.548
 2935SOL    HW212059   1.865   6.201   5.617
 2935SOL    HW312060   1.853   6.213   5.466
 2935SOL    MW412061   1.835   6.244   5.547
 2936SOL     OW12062   1.375   6.554   5.600
 2936SOL    HW212063   1.441   6.502   5.554
 2936SOL    HW312064   1.395   6.541   5.693
 2936SOL    MW412065   1.386   6.545   5.607
 2937SOL     OW12066   1.326   5.640   3.948
 2937SOL    HW212067   1.400   5.684   3.991
 2937SOL    HW312068   1.250   5.694   3.970
 2937SOL    MW412069   1.326   5.652   3.956
 2938SOL     OW12070   1.386   6.415   4.226
 2938SOL    HW212071   1.301   6.385   4.196
 2938SOL    HW312072   1.378   6.422   4.321
 2938SOL    MW412073   1.374   6.413   4.235
 2939SOL     OW12074   0.462   6.878   4.957
 2939SOL    HW212075   0.474   6.905   5.048
 2939SOL    HW312076   0.443   6.959   4.910
 2939SOL    MW412077   0.461   6.893   4.962
 2940SOL     OW12078   0.746   5.858   4.780
 2940SOL    HW212079   0.719   5.860   4.871
 2940SOL    HW312080   0.676   5.810   4.735
 2940SOL    MW412081   0.734   5.854   4.787
 2941SOL     OW12082   0.600   7.350   4.942
 2941SOL    HW212083   0.652   7.427   4.919
 2941SOL    HW312084   0.609   7.342   5.037
 2941SOL    MW412085   0.609   7.357   4.953
 2942SOL     OW12086   1.502   6.935   5.174
 2942SOL    HW212087   1.487   6.864   5.237
 2942SOL    HW312088   1.548   6.893   5.102
 2942SOL    MW412089   1.508   6.919   5.174
 2943SOL     OW12090   0.576   6.666   5.291
 2943SOL    HW212091   0.613   6.671   5.203
 2943SOL    HW312092   0.615   6.739   5.338
 2943SOL    MW412093   0.586   6.676   5.286
 2944SOL     OW12094   0.756   6.709   5.103
 2944SOL    HW212095   0.815   6.655   5.156
 2944SOL    HW312096   0.771   6.681   5.013
 2944SOL    MW412097   0.766   6.698   5.099
 2945SOL     OW12098   0.759   6.081   3.952
 2945SOL    HW212099   0.832   6.130   3.915
 2945SOL    HW312100   0.775   5.990   3.926
 2945SOL    MW412101   0.771   6.076   3.945
 2946SOL     OW12102   1.567   7.198   5.275
 2946SOL    HW212103   1.609   7.183   5.360
 2946SOL    HW312104   1.558   7.111   5.237
 2946SOL    MW412105   1.571   7.186   5.282
 2947SOL     OW12106   1.227   5.677   4.866
 2947SOL    HW212107   1.282   5.686   4.788
 2947SOL    HW312108   1.282   5.711   4.937
 2947SOL    MW412109   1.241   5.682   4.865
 2948SOL     OW12110   0.234   6.590   4.050
 2948SOL    HW212111   0.171   6.606   3.979
 2948SOL    HW312112   0.181   6.553   4.121
 2948SOL    MW412113   0.219   6.587   4.050
 2949SOL     OW12114   0.590   6.944   3.909
 2949SOL    HW212115   0.605   6.920   4.001
 2949SOL    HW312116   0.498   6.922   3.893
 2949SOL    MW412117   0.580   6.937   3.919
 2950SOL     OW12118   1.129   7.175   4.061
 2950SOL    HW212119   1.137   7.093   4.012
 2950SOL    HW312120   1.048   7.214   4.028
 2950SOL    MW412121   1.119   7.170   4.051
 2951SOL     OW12122   0.388   7.333   4.630
 2951SOL    HW212123   0.392   7.244   4.665
 2951SOL    HW312124   0.414   7.324   4.539
 2951SOL    MW412125   0.391   7.321   4.622
 2952SOL     OW12126   1.005   6.811   4.873
 2952SOL    HW212127   0.937   6.745   4.889
 2952SOL    HW312128   1.023   6.805   4.780
 2952SOL    MW412129   0.998   6.802   4.864
 2953SOL     OW12130   0.094   7.086   5.124
 2953SOL    HW212131   0.084   7.044   5.210
 2953SOL    HW312132   0.015   7.139   5.114
 2953SOL    MW412133   0.083   7.087   5.135
 2954SOL     OW12134   0.998   5.950   4.694
 2954SOL    HW212135   0.928   5.902   4.739
 2954SOL    HW312136   1.030   6.013   4.758
 2954SOL    MW412137   0.993   5.952   4.708
 2955SOL     OW12138   0.649   6.386   5.314
 2955SOL    HW212139   0.642   6.481   5.302
 2955SOL    HW312140   0.658   6.375   5.409
 2955SOL    MW412141   0.650   6.398   5.324
 2956SOL     OW12142   0.370   6.901   5.572
 2956SOL    HW212143   0.442   6.903   5.509
 2956SOL    HW312144   0.340   6.810   5.571
 2956SOL    MW412145   0.375   6.890   5.564
 2957SOL     OW12146   1.454   5.664   5.039
 2957SOL    HW212147   1.525   5.610   5.003
 2957SOL    HW312148   1.453   5.643   5.132
 2957SOL    MW412149   1.463   5.655   5.047
 2958SOL     OW12150   1.654   7.194   5.523
 2958SOL    HW212151   1.627   7.191   5.614
 2958SOL    HW312152   1.750   7.198   5.526
 2958SOL    MW412153   1.664   7.194   5.535
 2959SOL     OW12154   0.465   6.056   4.507
 2959SOL    HW212155   0.536   6.004   4.470
 2959SOL    HW312156   0.451   6.021   4.594
 2959SOL    MW412157   0.473   6.045   4.514
 2960SOL     OW12158   0.020   7.391   5.579
 2960SOL    HW212159   0.070   7.369   5.501
 2960SOL    HW312160   0.028   7.486   5.587
 2960SOL    MW412161   0.028   7.400   5.570
 2961SOL     OW12162   0.781   7.149   4.583
 2961SOL    HW212163   0.709   7.086   4.596
 2961SOL    HW312164   0.742   7.234   4.601
 2961SOL    MW412165   0.765   7.152   4.586
 2962SOL     OW12166   1.101   5.997   4.231
 2962SOL    HW212167   1.123   5.934   4.163
 2962SOL    HW312168   1.006   5.989   4.242
 2962SOL    MW412169   1.091   5.988   4.223
 2963SOL     OW12170   0.186   5.687   4.163
 2963SOL    HW212171   0.257   5.708   4.102
 2963SOL    HW312172   0.140   5.615   4.121
 2963SOL    MW412173   0.190   5.681   4.149
 2964SOL     OW12174   0.017   6.154   5.306
 2964SOL    HW212175   0.081   6.220   5.281
 2964SOL    HW312176  -0.064   6.181   5.263
 2964SOL    MW412177   0.015   6.166   5.298
 2965SOL     OW12178   1.755   7.061   4.263
 2965SOL    HW212179   1.725   6.994   4.324
 2965SOL    HW312180   1.849   7.067   4.277
 2965SOL    MW412181   1.763   7.053   4.273
 2966SOL     OW12182   1.311   6.738   4.193
 2966SOL    HW212183   1.283   6.824   4.226
 2966SOL    HW312184   1.339   6.754   4.103
 2966SOL    MW412185   1.311   6.752   4.185
 2967SOL     OW12186   0.973   5.658   4.246
 2967SOL    HW212187   1.010   5.717   4.311
 2967SOL    HW312188   0.950   5.714   4.172
 2967SOL    MW412189   0.974   5.673   4.245
 2968SOL     OW12190   1.826   6.540   4.668
 2968SOL    HW212191   1.817   6.572   4.579
 2968SOL    HW312192   1.779   6.456   4.668
 2968SOL    MW412193   1.819   6.533   4.658
 2969SOL     OW12194   0.202   6.380   5.247
 2969SOL    HW212195   0.223   6.449   5.185
 2969SOL    HW312196   0.282   6.327   5.252
 2969SOL    MW412197   0.215   6.381   5.241
 2970SOL     OW12198   1.738   6.471   4.369
 2970SOL    HW212199   1.832   6.460   4.357
 2970SOL    HW312200   1.714   6.543   4.310
 2970SOL    MW412201   1.748   6.479   4.360
 2971SOL     OW12202   0.187   6.395   5.514
 2971SOL    HW212203   0.113   6.339   5.540
 2971SOL    HW312204   0.182   6.398   5.419
 2971SOL    MW412205   0.176   6.388   5.504
 2972SOL     OW12206   0.353   5.682   4.964
 2972SOL    HW212207   0.396   5.766   4.984
 2972SOL    HW312208   0.426   5.620   4.957
 2972SOL    MW412209   0.368   5.685   4.965
 2973SOL     OW12210   0.394   6.349   4.142
 2973SOL    HW212211   0.394   6.444   4.127
 2973SOL    HW312212   0.471   6.333   4.196
 2973SOL    MW412213   0.404   6.360   4.147
 2974SOL     OW12214   1.170   6.208   5.206
 2974SOL    HW212215   1.206   6.181   5.122
 2974SOL    HW312216   1.083   6.242   5.185
 2974SOL    MW412217   1.164   6.209   5.193
 2975SOL     OW12218   0.153   6.080   4.431
 2975SOL    HW212219   0.215   6.087   4.504
 2975SOL    HW312220   0.153   5.987   4.408
 2975SOL    MW412221   0.161   6.069   4.438
 2976SOL     OW12222   1.700   7.420   3.963
 2976SOL    HW212223   1.767   7.453   3.903
 2976SOL    HW312224   1.657   7.499   3.997
 2976SOL    MW412225   1.702   7.435   3.959
 2977SOL     OW12226   0.835   6.341   4.915
 2977SOL    HW212227   0.793   6.259   4.891
 2977SOL    HW312228   0.836   6.340   5.011
 2977SOL    MW412229   0.828   6.330   4.924
 2978SOL     OW12230   1.506   7.474   5.314
 2978SOL    HW212231   1.509   7.380   5.297
 2978SOL    HW312232   1.529   7.482   5.406
 2978SOL    MW412233   1.509   7.462   5.324
 2979SOL     OW12234   0.639   5.811   5.020
 2979SOL    HW212235   0.570   5.874   5.041
 2979SOL    HW312236   0.666   5.775   5.105
 2979SOL    MW412237   0.633   5.814   5.033
 2980SOL     OW12238   0.022   6.652   3.889
 2980SOL    HW212239  -0.009   6.717   3.952
 2980SOL    HW312240  -0.029   6.574   3.908
 2980SOL    MW412241   0.012   6.649   3.899
 2981SOL     OW12242   1.434   5.664   4.637
 2981SOL    HW212243   1.522   5.673   4.674
 2981SOL    HW312244   1.444   5.605   4.563
 2981SOL    MW412245   1.448   5.658   4.631
 2982SOL     OW12246   1.466   6.403   4.481
 2982SOL    HW212247   1.546   6.418   4.430
 2982SOL    HW312248   1.459   6.308   4.487
 2982SOL    MW412249   1.475   6.392   4.476
 2983SOL     OW12250   0.606   7.452   3.831
 2983SOL    HW212251   0.511   7.452   3.823
 2983SOL    HW312252   0.622   7.398   3.909
 2983SOL    MW412253   0.596   7.446   3.840
 2984SOL     OW12254   0.916   6.329   5.178
 2984SOL    HW212255   0.985   6.396   5.175
 2984SOL    HW312256   0.849   6.367   5.234
 2984SOL    MW412257   0.917   6.342   5.185
 2985SOL     OW12258   0.334   6.629   5.426
 2985SOL    HW212259   0.288   6.545   5.428
 2985SOL    HW312260   0.391   6.623   5.350
 2985SOL    MW412261   0.336   6.617   5.418
 2986SOL     OW12262   1.451   6.272   3.747
 2986SOL    HW212263   1.379   6.248   3.689
 2986SOL    HW312264   1.517   6.309   3.689
 2986SOL    MW412265   1.450   6.274   3.732
 2987SOL     OW12266   0.585   7.004   4.427
 2987SOL    HW212267   0.650   6.937   4.448
 2987SOL    HW312268   0.637   7.081   4.404
 2987SOL    MW412269   0.600   7.006   4.426
 2988SOL     OW12270   0.846   6.169   4.557
 2988SOL    HW212271   0.786   6.187   4.629
 2988SOL    HW312272   0.880   6.081   4.576
 2988SOL    MW412273   0.842   6.159   4.570
 2989SOL     OW12274   1.787   5.668   5.226
 2989SOL    HW212275   1.708   5.714   5.254
 2989SOL    HW312276   1.822   5.722   5.155
 2989SOL    MW412277   1.781   5.681   5.220
 2990SOL     OW12278   1.071   6.752   4.576
 2990SOL    HW212279   1.163   6.733   4.594
 2990SOL    HW312280   1.044   6.682   4.516
 2990SOL    MW412281   1.079   6.740   4.570
 2991SOL     OW12282   0.864   6.572   3.931
 2991SOL    HW212283   0.850   6.484   3.896
 2991SOL    HW312284   0.815   6.629   3.872
 2991SOL    MW412285   0.856   6.567   3.919
 2992SOL     OW12286   1.345   6.990   4.672
 2992SOL    HW212287   1.318   7.074   4.637
 2992SOL    HW312288   1.305   6.985   4.759
 2992SOL    MW412289   1.338   6.999   4.678
 2993SOL     OW12290   1.264   6.938   4.940
 2993SOL    HW212291   1.275   6.905   5.029
 2993SOL    HW312292   1.183   6.897   4.909
 2993SOL    MW412293   1.254   6.930   4.946
 2994SOL     OW12294   0.277   6.296   4.710
 2994SOL    HW212295   0.227   6.295   4.791
 2994SOL    HW312296   0.297   6.388   4.694
 2994SOL    MW412297   0.273   6.308   4.718
 2995SOL     OW12298   1.344   7.060   5.472
 2995SOL    HW212299   1.344   7.154   5.488
 2995SOL    HW312300   1.389   7.050   5.388
 2995SOL    MW412301   1.350   7.070   5.463
 2996SOL     OW12302   1.583   5.778   4.033
 2996SOL    HW212303   1.576   5.782   4.128
 2996SOL    HW312304   1.595   5.869   4.006
 2996SOL    MW412305   1.584   5.791   4.041
 2997SOL     OW12306   0.872   6.341   4.147
 2997SOL    HW212307   0.852   6.327   4.054
 2997SOL    HW312308   0.965   6.320   4.154
 2997SOL    MW412309   0.882   6.336   4.136
 2998SOL     OW12310   0.199   5.964   5.451
 2998SOL    HW212311   0.156   6.023   5.388
 2998SOL    HW312312   0.267   6.019   5.491
 2998SOL    MW412313   0.203   5.979   5.448
 2999SOL     OW12314   1.311   6.584   4.996
 2999SOL    HW212315   1.374   6.581   5.069
 2999SOL    HW312316   1.227   6.602   5.038
 2999SOL    MW412317   1.307   6.586   5.011
 3000SOL     OW12318   0.855   7.299   4.185
 3000SOL    HW212319   0.913   7.370   4.212
 3000SOL    HW312320   0.878   7.227   4.243
 3000SOL    MW412321   0.866   7.299   4.196
 3001SOL     OW12322   1.650   5.761   4.775
 3001SOL    HW212323   1.695   5.679   4.794
 3001SOL    HW312324   1.670   5.817   4.851
 3001SOL    MW412325   1.660   5.757   4.787
 3002SOL     OW12326   0.098   5.604   4.874
 3002SOL    HW212327   0.089   5.605   4.779
 3002SOL    HW312328   0.192   5.616   4.889
 3002SOL    MW412329   0.110   5.607   4.865
 3003SOL     OW12330   1.735   6.797   4.494
 3003SOL    HW212331   1.714   6.743   4.417
 3003SOL    HW312332   1.831   6.795   4.498
 3003SOL    MW412333   1.744   6.790   4.483
 3004SOL     OW12334   0.427   6.942   5.237
 3004SOL    HW212335   0.348   6.892   5.260
 3004SOL    HW312336   0.497   6.901   5.287
 3004SOL    MW412337   0.425   6.930   5.247
 3005SOL     OW12338   0.311   5.731   3.920
 3005SOL    HW212339   0.240   5.786   3.888
 3005SOL    HW312340   0.353   5.697   3.841
 3005SOL    MW412341   0.307   5.733   3.906
 3006SOL     OW12342   1.435   6.228   4.756
 3006SOL    HW212343   1.358   6.274   4.722
 3006SOL    HW312344   1.492   6.297   4.790
 3006SOL    MW412345   1.432   6.243   4.756
 3007SOL     OW12346   0.067   5.830   3.769
 3007SOL    HW212347   0.034   5.909   3.813
 3007SOL    HW312348   0.122   5.863   3.698
 3007SOL    MW412349   0.070   5.844   3.766
 3008SOL     OW12350   0.101   7.087   3.958
 3008SOL    HW212351   0.118   7.171   4.000
 3008SOL    HW312352   0.136   7.096   3.870
 3008SOL    MW412353   0.106   7.100   3.952
 3009SOL     OW12354   1.373   7.176   4.175
 3009SOL    HW212355   1.436   7.166   4.104
 3009SOL    HW312356   1.290   7.196   4.130
 3009SOL    MW412357   1.370   7.177   4.160
 3010SOL     OW12358   1.736   6.444   5.862
 3010SOL    HW212359   1.777   6.386   5.927
 3010SOL    HW312360   1.643   6.436   5.879
 3010SOL    MW412361   1.730   6.436   5.872
 3011SOL     OW12362   0.530   6.627   6.091
 3011SOL    HW212363   0.620   6.602   6.075
 3011SOL    HW312364   0.526   6.720   6.068
 3011SOL    MW412365   0.542   6.636   6.086
 3012SOL     OW12366   1.646   7.330   6.233
 3012SOL    HW212367   1.658   7.276   6.311
 3012SOL    HW312368   1.683   7.278   6.162
 3012SOL    MW412369   1.652   7.315   6.234
 3013SOL     OW12370   0.814   6.083   6.104
 3013SOL    HW212371   0.789   6.171   6.132
 3013SOL    HW312372   0.811   6.086   6.008
 3013SOL    MW412373   0.810   6.095   6.096
 3014SOL     OW12374   0.256   6.111   6.032
 3014SOL    HW212375   0.288   6.199   6.014
 3014SOL    HW312376   0.244   6.109   6.127
 3014SOL    MW412377   0.259   6.123   6.044
 3015SOL     OW12378   0.655   5.866   6.119
 3015SOL    HW212379   0.713   5.942   6.121
 3015SOL    HW312380   0.590   5.887   6.052
 3015SOL    MW412381   0.654   5.878   6.110
 3016SOL     OW12382   0.742   6.793   6.294
 3016SOL    HW212383   0.822   6.796   6.346
 3016SOL    HW312384   0.770   6.760   6.208
 3016SOL    MW412385   0.756   6.789   6.289
 3017SOL     OW12386   0.519   6.297   6.285
 3017SOL    HW212387   0.504   6.217   6.336
 3017SOL    HW312388   0.601   6.332   6.319
 3017SOL    MW412389   0.527   6.289   6.297
 3018SOL     OW12390   0.661   6.123   6.662
 3018SOL    HW212391   0.567   6.119   6.680
 3018SOL    HW312392   0.691   6.032   6.671
 3018SOL    MW412393   0.652   6.111   6.665
 3019SOL     OW12394   0.407   6.537   6.566
 3019SOL    HW212395   0.362   6.544   6.482
 3019SOL    HW312396   0.387   6.620   6.610
 3019SOL    MW412397   0.399   6.549   6.560
 3020SOL     OW12398   0.104   7.383   6.441
 3020SOL    HW212399   0.193   7.375   6.476
 3020SOL    HW312400   0.068   7.295   6.446
 3020SOL    MW412401   0.111   7.370   6.446
 3021SOL     OW12402   1.369   6.775   5.810
 3021SOL    HW212403   1.287   6.811   5.776
 3021SOL    HW312404   1.437   6.818   5.759
 3021SOL    MW412405   1.367   6.785   5.798
 3022SOL     OW12406   0.368   6.910   6.476
 3022SOL    HW212407   0.344   6.963   6.552
 3022SOL    HW312408   0.424   6.968   6.424
 3022SOL    MW412409   0.372   6.925   6.479
 3023SOL     OW12410   0.930   6.554   6.286
 3023SOL    HW212411   0.844   6.541   6.326
 3023SOL    HW312412   0.983   6.481   6.318
 3023SOL    MW412413   0.926   6.543   6.295
 3024SOL     OW12414   0.921   6.916   6.003
 3024SOL    HW212415   0.898   6.978   6.071
 3024SOL    HW312416   0.878   6.834   6.029
 3024SOL    MW412417   0.913   6.912   6.014
 3025SOL     OW12418   1.794   5.917   6.459
 3025SOL    HW212419   1.731   5.897   6.528
 3025SOL    HW312420   1.784   5.846   6.396
 3025SOL    MW412421   1.784   5.904   6.460
 3026SOL     OW12422   0.418   5.889   5.971
 3026SOL    HW212423   0.392   5.851   5.887
 3026SOL    HW312424   0.355   5.959   5.987
 3026SOL    MW412425   0.407   5.892   5.962
 3027SOL     OW12426   0.253   6.850   6.008
 3027SOL    HW212427   0.201   6.918   5.964
 3027SOL    HW312428   0.250   6.776   5.948
 3027SOL    MW412429   0.245   6.849   5.995
 3028SOL     OW12430   0.915   7.313   5.786
 3028SOL    HW212431   0.870   7.329   5.869
 3028SOL    HW312432   0.846   7.278   5.728
 3028SOL    MW412433   0.901   7.310   5.788
 3029SOL     OW12434   1.850   6.086   5.761
 3029SOL    HW212435   1.759   6.088   5.789
 3029SOL    HW312436   1.895   6.148   5.819
 3029SOL    MW412437   1.843   6.094   5.771
 3030SOL     OW12438   1.595   6.689   6.111
 3030SOL    HW212439   1.505   6.689   6.146
 3030SOL    HW312440   1.588   6.735   6.028
 3030SOL    MW412441   1.582   6.695   6.105
 3031SOL     OW12442   0.136   7.204   6.735
 3031SOL    HW212443   0.119   7.150   6.812
 3031SOL    HW312444   0.124   7.294   6.765
 3031SOL    MW412445   0.133   7.208   6.749
 3032SOL     OW12446   1.502   6.667   6.503
 3032SOL    HW212447   1.505   6.601   6.434
 3032SOL    HW312448   1.587   6.710   6.499
 3032SOL    MW412449   1.514   6.663   6.494
 3033SOL     OW12450   1.122   6.270   6.072
 3033SOL    HW212451   1.148   6.294   5.983
 3033SOL    HW312452   1.104   6.177   6.068
 3033SOL    MW412453   1.124   6.262   6.059
 3034SOL     OW12454   1.787   6.890   5.923
 3034SOL    HW212455   1.743   6.931   5.998
 3034SOL    HW312456   1.844   6.958   5.888
 3034SOL    MW412457   1.789   6.904   5.928
 3035SOL     OW12458   0.443   7.306   6.241
 3035SOL    HW212459   0.475   7.394   6.219
 3035SOL    HW312460   0.396   7.278   6.163
 3035SOL    MW412461   0.442   7.314   6.228
 3036SOL     OW12462   1.827   5.668   6.290
 3036SOL    HW212463   1.881   5.619   6.352
 3036SOL    HW312464   1.770   5.602   6.251
 3036SOL    MW412465   1.827   5.652   6.292
 3037SOL     OW12466   0.159   7.366   5.818
 3037SOL    HW212467   0.188   7.456   5.810
 3037SOL    HW312468   0.109   7.349   5.739
 3037SOL    MW412469   0.157   7.374   5.807
 3038SOL     OW12470   0.946   5.621   6.703
 3038SOL    HW212471   0.905   5.699   6.665
 3038SOL    HW312472   1.040   5.639   6.698
 3038SOL    MW412473   0.952   5.633   6.698
 3039SOL     OW12474   1.563   7.174   5.789
 3039SOL    HW212475   1.611   7.243   5.835
 3039SOL    HW312476   1.484   7.218   5.758
 3039SOL    MW412477   1.558   7.188   5.792
 3040SOL     OW12478   0.961   6.299   5.733
 3040SOL    HW212479   0.963   6.246   5.654
 3040SOL    HW312480   1.049   6.336   5.739
 3040SOL    MW412481   0.973   6.298   5.722
 3041SOL     OW12482   1.575   6.225   6.069
 3041SOL    HW212483   1.614   6.225   6.156
 3041SOL    HW312484   1.516   6.301   6.069
 3041SOL    MW412485   1.572   6.236   6.080
 3042SOL     OW12486   1.061   6.218   6.792
 3042SOL    HW212487   1.136   6.247   6.739
 3042SOL    HW312488   0.993   6.283   6.776
 3042SOL    MW412489   1.062   6.230   6.782
 3043SOL     OW12490   1.762   6.111   6.235
 3043SOL    HW212491   1.851   6.080   6.252
 3043SOL    HW312492   1.705   6.051   6.283
 3043SOL    MW412493   1.765   6.099   6.244
 3044SOL     OW12494   0.188   5.825   6.264
 3044SOL    HW212495   0.179   5.765   6.190
 3044SOL    HW312496   0.121   5.796   6.327
 3044SOL    MW412497   0.178   5.812   6.262
 3045SOL     OW12498   1.131   6.918   5.825
 3045SOL    HW212499   1.081   6.920   5.907
 3045SOL    HW312500   1.065   6.936   5.757
 3045SOL    MW412501   1.117   6.920   5.827
 3046SOL     OW12502   0.135   5.998   6.627
 3046SOL    HW212503   0.107   6.089   6.636
 3046SOL    HW312504   0.072   5.959   6.566
 3046SOL    MW412505   0.122   6.004   6.621
 3047SOL     OW12506   0.594   7.336   5.933
 3047SOL    HW212507   0.515   7.294   5.966
 3047SOL    HW312508   0.660   7.319   6.000
 3047SOL    MW412509   0.593   7.328   5.946
 3048SOL     OW12510   0.730   6.751   5.640
 3048SOL    HW212511   0.652   6.697   5.627
 3048SOL    HW312512   0.701   6.824   5.693
 3048SOL    MW412513   0.716   6.753   5.645
 3049SOL     OW12514   1.856   6.491   6.832
 3049SOL    HW212515   1.872   6.529   6.745
 3049SOL    HW312516   1.890   6.557   6.893
 3049SOL    MW412517   1.863   6.504   6.828
 3050SOL     OW12518   1.648   7.200   6.501
 3050SOL    HW212519   1.677   7.267   6.562
 3050SOL    HW312520   1.629   7.124   6.556
 3050SOL    MW412521   1.650   7.200   6.516
 3051SOL     OW12522   1.311   7.267   5.708
 3051SOL    HW212523   1.237   7.230   5.758
 3051SOL    HW312524   1.319   7.357   5.741
 3051SOL    MW412525   1.302   7.274   5.720
 3052SOL     OW12526   1.535   6.941   5.650
 3052SOL    HW212527   1.482   6.990   5.586
 3052SOL    HW312528   1.566   7.007   5.711
 3052SOL    MW412529   1.533   6.955   5.648
 3053SOL     OW12530   0.760   5.830   5.705
 3053SOL    HW212531   0.708   5.750   5.693
 3053SOL    HW312532   0.847   5.807   5.673
 3053SOL    MW412533   0.763   5.816   5.699
 3054SOL     OW12534   0.266   6.701   6.756
 3054SOL    HW212535   0.319   6.776   6.781
 3054SOL    HW312536   0.185   6.739   6.722
 3054SOL    MW412537   0.262   6.716   6.756
 3055SOL     OW12538   0.806   6.605   6.744
 3055SOL    HW212539   0.834   6.514   6.756
 3055SOL    HW312540   0.735   6.599   6.680
 3055SOL    MW412541   0.799   6.593   6.739
 3056SOL     OW12542   0.121   6.470   6.162
 3056SOL    HW212543   0.212   6.485   6.189
 3056SOL    HW312544   0.124   6.391   6.108
 3056SOL    MW412545   0.133   6.462   6.160
 3057SOL     OW12546   0.748   7.402   6.536
 3057SOL    HW212547   0.837   7.417   6.566
 3057SOL    HW312548   0.743   7.449   6.452
 3057SOL    MW412549   0.758   7.410   6.529
 3058SOL     OW12550   0.129   7.082   6.201
 3058SOL    HW212551   0.101   7.121   6.283
 3058SOL    HW312552   0.149   6.991   6.223
 3058SOL    MW412553   0.127   7.074   6.214
 3059SOL     OW12554   0.962   7.125   6.236
 3059SOL    HW212555   1.045   7.079   6.220
 3059SOL    HW312556   0.952   7.124   6.332
 3059SOL    MW412557   0.972   7.118   6.246
 3060SOL     OW12558   1.794   6.270   6.550
 3060SOL    HW212559   1.883   6.300   6.532
 3060SOL    HW312560   1.774   6.210   6.479
 3060SOL    MW412561   1.803   6.267   6.539
 3061SOL     OW12562   0.695   7.182   5.641
 3061SOL    HW212563   0.635   7.251   5.611
 3061SOL    HW312564   0.640   7.124   5.694
 3061SOL    MW412565   0.679   7.184   5.643
 3062SOL     OW12566   1.133   5.827   5.864
 3062SOL    HW212567   1.066   5.803   5.801
 3062SOL    HW312568   1.198   5.876   5.813
 3062SOL    MW412569   1.133   5.829   5.849
 3063SOL     OW12570   1.200   6.349   6.572
 3063SOL    HW212571   1.213   6.443   6.582
 3063SOL    HW312572   1.161   6.339   6.486
 3063SOL    MW412573   1.196   6.360   6.562
 3064SOL     OW12574   0.652   6.544   6.376
 3064SOL    HW212575   0.563   6.535   6.409
 3064SOL    HW312576   0.656   6.634   6.344
 3064SOL    MW412577   0.641   6.555   6.376
 3065SOL     OW12578   1.451   6.127   6.371
 3065SOL    HW212579   1.396   6.048   6.370
 3065SOL    HW312580   1.433   6.168   6.455
 3065SOL    MW412581   1.441   6.122   6.380
 3066SOL     OW12582   1.070   6.331   6.328
 3066SOL    HW212583   1.007   6.263   6.352
 3066SOL    HW312584   1.090   6.312   6.236
 3066SOL    MW412585   1.064   6.318   6.320
 3067SOL     OW12586   0.326   7.226   6.030
 3067SOL    HW212587   0.287   7.273   5.956
 3067SOL    HW312588   0.260   7.161   6.055
 3067SOL    MW412589   0.313   7.224   6.024
 3068SOL     OW12590   0.818   6.635   6.054
 3068SOL    HW212591   0.820   6.609   5.961
 3068SOL    HW312592   0.876   6.572   6.097
 3068SOL    MW412593   0.826   6.624   6.048
 3069SOL     OW12594   1.375   7.403   6.256
 3069SOL    HW212595   1.318   7.356   6.195
 3069SOL    HW312596   1.461   7.364   6.243
 3069SOL    MW412597   1.378   7.394   6.246
 3070SOL     OW12598   1.328   5.879   6.387
 3070SOL    HW212599   1.356   5.811   6.448
 3070SOL    HW312600   1.242   5.850   6.357
 3070SOL    MW412601   1.321   5.866   6.391
 3071SOL     OW12602   0.133   6.813   6.321
 3071SOL    HW212603   0.197   6.845   6.384
 3071SOL    HW312604   0.182   6.749   6.269
 3071SOL    MW412605   0.148   6.809   6.322
 3072SOL     OW12606   1.308   5.983   5.722
 3072SOL    HW212607   1.281   6.049   5.658
 3072SOL    HW312608   1.378   6.026   5.772
 3072SOL    MW412609   1.313   5.996   5.719
 3073SOL     OW12610   0.976   5.688   5.659
 3073SOL    HW212611   1.032   5.680   5.581
 3073SOL    HW312612   0.953   5.598   5.681
 3073SOL    MW412613   0.981   5.675   5.652
 3074SOL     OW12614   1.481   6.539   5.864
 3074SOL    HW212615   1.448   6.628   5.854
 3074SOL    HW312616   1.446   6.510   5.949
 3074SOL    MW412617   1.471   6.548   5.875
 3075SOL     OW12618   0.411   7.126   6.693
 3075SOL    HW212619   0.456   7.188   6.750
 3075SOL    HW312620   0.318   7.145   6.706
 3075SOL    MW412621   0.404   7.136   6.700
 3076SOL     OW12622   0.833   7.194   6.801
 3076SOL    HW212623   0.857   7.183   6.710
 3076SOL    HW312624   0.756   7.251   6.799
 3076SOL    MW412625   0.825   7.199   6.790
 3077SOL     OW12626   0.475   6.577   5.656
 3077SOL    HW212627   0.398   6.590   5.712
 3077SOL    HW312628   0.439   6.541   5.575
 3077SOL    MW412629   0.461   6.573   5.653
 3078SOL     OW12630   1.128   6.550   5.899
 3078SOL    HW212631   1.038   6.571   5.874
 3078SOL    HW312632   1.155   6.623   5.955
 3078SOL    MW412633   1.120   6.562   5.902
 3079SOL     OW12634   0.628   6.899   6.591
 3079SOL    HW212635   0.621   6.878   6.685
 3079SOL    HW312636   0.546   6.867   6.554
 3079SOL    MW412637   0.616   6.893   6.598
 3080SOL     OW12638   0.757   5.666   6.306
 3080SOL    HW212639   0.686   5.727   6.288
 3080SOL    HW312640   0.808   5.663   6.225
 3080SOL    MW412641   0.753   5.672   6.293
 3081SOL     OW12642   0.515   6.906   6.055
 3081SOL    HW212643   0.508   6.938   6.145
 3081SOL    HW312644   0.425   6.890   6.027
 3081SOL    MW412645   0.503   6.908   6.062
 3082SOL     OW12646   1.224   7.264   6.454
 3082SOL    HW212647   1.271   7.337   6.413
 3082SOL    HW312648   1.145   7.303   6.490
 3082SOL    MW412649   1.219   7.279   6.453
 3083SOL     OW12650   1.632   7.359   6.729
 3083SOL    HW212651   1.675   7.329   6.809
 3083SOL    HW312652   1.551   7.307   6.726
 3083SOL    MW412653   1.627   7.348   6.739
 3084SOL     OW12654   0.518   6.190   5.769
 3084SOL    HW212655   0.484   6.246   5.839
 3084SOL    HW312656   0.589   6.140   5.809
 3084SOL    MW412657   0.524   6.191   5.783
 3085SOL     OW12658   1.614   6.941   6.591
 3085SOL    HW212659   1.649   6.923   6.504
 3085SOL    HW312660   1.519   6.942   6.578
 3085SOL    MW412661   1.606   6.938   6.578
 3086SOL     OW12662   1.574   6.076   5.833
 3086SOL    HW212663   1.566   6.147   5.770
 3086SOL    HW312664   1.592   6.120   5.916
 3086SOL    MW412665   1.575   6.090   5.835
 3087SOL     OW12666   0.434   5.731   6.262
 3087SOL    HW212667   0.484   5.774   6.193
 3087SOL    HW312668   0.349   5.775   6.262
 3087SOL    MW412669   0.431   5.744   6.253
 3088SOL     OW12670   1.243   6.338   5.808
 3088SOL    HW212671   1.290   6.356   5.727
 3088SOL    HW312672   1.209   6.422   5.836
 3088SOL    MW412673   1.245   6.352   5.801
 3089SOL     OW12674   0.356   6.516   6.302
 3089SOL    HW212675   0.414   6.572   6.250
 3089SOL    HW312676   0.400   6.431   6.304
 3089SOL    MW412677   0.369   6.513   6.295
 3090SOL     OW12678   1.496   5.868   6.139
 3090SOL    HW212679   1.418   5.818   6.164
 3090SOL    HW312680   1.467   5.959   6.139
 3090SOL    MW412681   1.482   5.872   6.142
 3091SOL     OW12682   1.082   5.830   6.298
 3091SOL    HW212683   1.102   5.905   6.242
 3091SOL    HW312684   1.062   5.869   6.383
 3091SOL    MW412685   1.083   5.846   6.302
 3092SOL     OW12686   0.978   7.080   5.630
 3092SOL    HW212687   1.005   7.158   5.582
 3092SOL    HW312688   0.885   7.095   5.649
 3092SOL    MW412689   0.969   7.093   5.626
 3093SOL     OW12690   0.063   7.116   6.474
 3093SOL    HW212691   0.095   7.120   6.565
 3093SOL    HW312692  -0.032   7.124   6.482
 3093SOL    MW412693   0.055   7.119   6.487
 3094SOL     OW12694   0.018   6.242   6.021
 3094SOL    HW212695  -0.042   6.214   6.091
 3094SOL    HW312696   0.092   6.182   6.027
 3094SOL    MW412697   0.020   6.231   6.030
 3095SOL     OW12698   1.186   6.973   6.181
 3095SOL    HW212699   1.209   6.924   6.259
 3095SOL    HW312700   1.267   7.015   6.153
 3095SOL    MW412701   1.199   6.973   6.188
 3096SOL     OW12702   0.398   5.948   6.646
 3096SOL    HW212703   0.428   5.862   6.617
 3096SOL    HW312704   0.303   5.941   6.649
 3096SOL    MW412705   0.390   5.937   6.644
 3097SOL     OW12706   0.541   5.726   6.537
 3097SOL    HW212707   0.551   5.635   6.563
 3097SOL    HW312708   0.497   5.722   6.452
 3097SOL    MW412709   0.537   5.714   6.529
 3098SOL     OW12710   1.692   6.048   6.708
 3098SOL    HW212711   1.625   6.081   6.768
 3098SOL    HW312712   1.735   6.126   6.674
 3098SOL    MW412713   1.690   6.063   6.712
 3099SOL     OW12714   1.870   6.768   6.678
 3099SOL    HW212715   1.863   6.708   6.603
 3099SOL    HW312716   1.796   6.828   6.667
 3099SOL    MW412717   1.860   6.768   6.667
 3100SOL     OW12718   1.252   6.630   6.596
 3100SOL    HW212719   1.266   6.602   6.687
 3100SOL    HW312720   1.338   6.661   6.568
 3100SOL    MW412721   1.265   6.631   6.605
 3101SOL     OW12722   1.326   5.640   5.817
 3101SOL    HW212723   1.400   5.684   5.860
 3101SOL    HW312724   1.250   5.694   5.839
 3101SOL    MW412725   1.326   5.652   5.825
 3102SOL     OW12726   1.386   6.415   6.095
 3102SOL    HW212727   1.301   6.385   6.065
 3102SOL    HW312728   1.378   6.422   6.190
 3102SOL    MW412729   1.374   6.413   6.104
 3103SOL     OW12730   0.746   5.858   6.649
 3103SOL    HW212731   0.719   5.860   6.740
 3103SOL    HW312732   0.676   5.810   6.604
 3103SOL    MW412733   0.734   5.854   6.656
 3104SOL     OW12734   0.759   6.081   5.821
 3104SOL    HW212735   0.832   6.130   5.784
 3104SOL    HW312736   0.775   5.990   5.795
 3104SOL    MW412737   0.771   6.076   5.814
 3105SOL     OW12738   1.227   5.677   6.735
 3105SOL    HW212739   1.282   5.686   6.657
 3105SOL    HW312740   1.282   5.711   6.806
 3105SOL    MW412741   1.241   5.682   6.734
 3106SOL     OW12742   0.234   6.590   5.919
 3106SOL    HW212743   0.171   6.606   5.848
 3106SOL    HW312744   0.181   6.553   5.990
 3106SOL    MW412745   0.219   6.587   5.919
 3107SOL     OW12746   0.590   6.944   5.778
 3107SOL    HW212747   0.605   6.920   5.870
 3107SOL    HW312748   0.498   6.922   5.762
 3107SOL    MW412749   0.580   6.937   5.788
 3108SOL     OW12750   1.129   7.175   5.930
 3108SOL    HW212751   1.137   7.093   5.881
 3108SOL    HW312752   1.048   7.214   5.897
 3108SOL    MW412753   1.119   7.170   5.920
 3109SOL     OW12754   0.388   7.333   6.499
 3109SOL    HW212755   0.392   7.244   6.534
 3109SOL    HW312756   0.414   7.324   6.408
 3109SOL    MW412757   0.391   7.321   6.491
 3110SOL     OW12758   1.005   6.811   6.742
 3110SOL    HW212759   0.937   6.745   6.758
 3110SOL    HW312760   1.023   6.805   6.649
 3110SOL    MW412761   0.998   6.802   6.733
 3111SOL     OW12762   0.998   5.950   6.563
 3111SOL    HW212763   0.928   5.902   6.608
 3111SOL    HW312764   1.030   6.013   6.627
 3111SOL    MW412765   0.993   5.952   6.577
 3112SOL     OW12766   0.465   6.056   6.376
 3112SOL    HW212767   0.536   6.004   6.339
 3112SOL    HW312768   0.451   6.021   6.463
 3112SOL    MW412769   0.473   6.045   6.383
 3113SOL     OW12770   0.781   7.149   6.452
 3113SOL    HW212771   0.709   7.086   6.465
 3113SOL    HW312772   0.742   7.234   6.470
 3113SOL    MW412773   0.765   7.152   6.455
 3114SOL     OW12774   1.101   5.997   6.100
 3114SOL    HW212775   1.123   5.934   6.032
 3114SOL    HW312776   1.006   5.989   6.111
 3114SOL    MW412777   1.091   5.988   6.092
 3115SOL     OW12778   0.186   5.687   6.032
 3115SOL    HW212779   0.257   5.708   5.971
 3115SOL    HW312780   0.140   5.615   5.990
 3115SOL    MW412781   0.190   5.681   6.018
 3116SOL     OW12782   1.755   7.061   6.132
 3116SOL    HW212783   1.725   6.994   6.193
 3116SOL    HW312784   1.849   7.067   6.146
 3116SOL    MW412785   1.763   7.053   6.142
 3117SOL     OW12786   1.311   6.738   6.062
 3117SOL    HW212787   1.283   6.824   6.095
 3117SOL    HW312788   1.339   6.754   5.972
 3117SOL    MW412789   1.311   6.752   6.054
 3118SOL     OW12790   0.973   5.658   6.115
 3118SOL    HW212791   1.010   5.717   6.180
 3118SOL    HW312792   0.950   5.714   6.041
 3118SOL    MW412793   0.974   5.673   6.114
 3119SOL     OW12794   1.826   6.540   6.537
 3119SOL    HW212795   1.817   6.572   6.448
 3119SOL    HW312796   1.779   6.456   6.537
 3119SOL    MW412797   1.819   6.533   6.527
 3120SOL     OW12798   1.738   6.471   6.238
 3120SOL    HW212799   1.832   6.460   6.226
 3120SOL    HW312800   1.714   6.543   6.179
 3120SOL    MW412801   1.748   6.479   6.229
 3121SOL     OW12802   0.394   6.349   6.011
 3121SOL    HW212803   0.394   6.444   5.996
 3121SOL    HW312804   0.471   6.333   6.065
 3121SOL    MW412805   0.404   6.360   6.016
 3122SOL     OW12806   0.153   6.080   6.300
 3122SOL    HW212807   0.215   6.087   6.373
 3122SOL    HW312808   0.153   5.987   6.277
 3122SOL    MW412809   0.161   6.069   6.307
 3123SOL     OW12810   1.700   7.420   5.832
 3123SOL    HW212811   1.767   7.453   5.772
 3123SOL    HW312812   1.657   7.499   5.866
 3123SOL    MW412813   1.702   7.435   5.828
 3124SOL     OW12814   0.835   6.341   6.784
 3124SOL    HW212815   0.793   6.259   6.760
 3124SOL    HW312816   0.836   6.340   6.880
 3124SOL    MW412817   0.828   6.330   6.793
 3125SOL     OW12818   0.022   6.652   5.758
 3125SOL    HW212819  -0.009   6.717   5.821
 3125SOL    HW312820  -0.029   6.574   5.777
 3125SOL    MW412821   0.012   6.649   5.768
 3126SOL     OW12822   1.434   5.664   6.506
 3126SOL    HW212823   1.522   5.673   6.543
 3126SOL    HW312824   1.444   5.605   6.432
 3126SOL    MW412825   1.448   5.658   6.500
 3127SOL     OW12826   1.466   6.403   6.350
 3127SOL    HW212827   1.546   6.418   6.299
 3127SOL    HW312828   1.459   6.308   6.356
 3127SOL    MW412829   1.475   6.392   6.345
 3128SOL     OW12830   0.606   7.452   5.700
 3128SOL    HW212831   0.511   7.452   5.692
 3128SOL    HW312832   0.622   7.398   5.778
 3128SOL    MW412833   0.596   7.446   5.709
 3129SOL     OW12834   1.451   6.272   5.615
 3129SOL    HW212835   1.379   6.248   5.557
 3129SOL    HW312836   1.517   6.309   5.557
 3129SOL    MW412837   1.450   6.274   5.600
 3130SOL     OW12838   0.585   7.004   6.296
 3130SOL    HW212839   0.650   6.937   6.317
 3130SOL    HW312840   0.637   7.081   6.273
 3130SOL    MW412841   0.600   7.006   6.295
 3131SOL     OW12842   0.846   6.169   6.426
 3131SOL    HW212843   0.786   6.187   6.498
 3131SOL    HW312844   0.880   6.081   6.445
 3131SOL    MW412845   0.842   6.159   6.439
 3132SOL     OW12846   1.071   6.752   6.445
 3132SOL    HW212847   1.163   6.733   6.463
 3132SOL    HW312848   1.044   6.682   6.385
 3132SOL    MW412849   1.079   6.740   6.439
 3133SOL     OW12850   0.864   6.572   5.800
 3133SOL    HW212851   0.850   6.484   5.765
 3133SOL    HW312852   0.815   6.629   5.741
 3133SOL    MW412853   0.856   6.567   5.788
 3134SOL     OW12854   1.345   6.990   6.541
 3134SOL    HW212855   1.318   7.074   6.506
 3134SOL    HW312856   1.305   6.985   6.628
 3134SOL    MW412857   1.338   6.999   6.547
 3135SOL     OW12858   0.277   6.296   6.579
 3135SOL    HW212859   0.227   6.295   6.660
 3135SOL    HW312860   0.297   6.388   6.563
 3135SOL    MW412861   0.273   6.308   6.587
 3136SOL     OW12862   1.583   5.778   5.902
 3136SOL    HW212863   1.576   5.782   5.997
 3136SOL    HW312864   1.595   5.869   5.875
 3136SOL    MW412865   1.584   5.791   5.910
 3137SOL     OW12866   0.872   6.341   6.016
 3137SOL    HW212867   0.852   6.327   5.923
 3137SOL    HW312868   0.965   6.320   6.023
 3137SOL    MW412869   0.882   6.336   6.005
 3138SOL     OW12870   0.855   7.299   6.054
 3138SOL    HW212871   0.913   7.370   6.081
 3138SOL    HW312872   0.878   7.227   6.112
 3138SOL    MW412873   0.866   7.299   6.065
 3139SOL     OW12874   1.650   5.761   6.644
 3139SOL    HW212875   1.695   5.679   6.663
 3139SOL    HW312876   1.670   5.817   6.720
 3139SOL    MW412877   1.660   5.757   6.656
 3140SOL     OW12878   0.098   5.604   6.743
 3140SOL    HW212879   0.089   5.605   6.648
 3140SOL    HW312880   0.192   5.616   6.758
 3140SOL    MW412881   0.110   5.607   6.734
 3141SOL     OW12882   1.735   6.797   6.363
 3141SOL    HW212883   1.714   6.743   6.286
 3141SOL    HW312884   1.831   6.795   6.367
 3141SOL    MW412885   1.744   6.790   6.352
 3142SOL     OW12886   0.311   5.731   5.789
 3142SOL    HW212887   0.240   5.786   5.757
 3142SOL    HW312888   0.353   5.697   5.710
 3142SOL    MW412889   0.307   5.733   5.775
 3143SOL     OW12890   1.435   6.228   6.625
 3143SOL    HW212891   1.358   6.274   6.591
 3143SOL    HW312892   1.492   6.297   6.659
 3143SOL    MW412893   1.432   6.243   6.625
 3144SOL     OW12894   0.067   5.830   5.638
 3144SOL    HW212895   0.034   5.909   5.682
 3144SOL    HW312896   0.122   5.863   5.567
 3144SOL    MW412897   0.070   5.844   5.635
 3145SOL     OW12898   0.101   7.087   5.827
 3145SOL    HW212899   0.118   7.171   5.869
 3145SOL    HW312900   0.136   7.096   5.739
 3145SOL    MW412901   0.106   7.100   5.821
 3146SOL     OW12902   1.373   7.176   6.044
 3146SOL    HW212903   1.436   7.166   5.973
 3146SOL    HW312904   1.290   7.196   5.999
 3146SOL    MW412905   1.370   7.177   6.029
 3147SOL     OW12906   3.470   0.771   1.252
 3147SOL    HW212907   3.425   0.838   1.303
 3147SOL    HW312908   3.558   0.807   1.238
 3147SOL    MW412909   3.476   0.784   1.256
 3148SOL     OW12910   2.398   1.022   0.486
 3148SOL    HW212911   2.488   0.997   0.470
 3148SOL    HW312912   2.394   1.115   0.463
 3148SOL    MW412913   2.410   1.031   0.481
 3149SOL     OW12914   3.514   1.725   0.628
 3149SOL    HW212915   3.526   1.671   0.706
 3149SOL    HW312916   3.551   1.673   0.557
 3149SOL    MW412917   3.520   1.710   0.629
 3150SOL     OW12918   2.893   1.610   1.629
 3150SOL    HW212919   2.934   1.646   1.550
 3150SOL    HW312920   2.928   1.521   1.636
 3150SOL    MW412921   2.904   1.603   1.620
 3151SOL     OW12922   3.450   1.165   1.233
 3151SOL    HW212923   3.371   1.130   1.191
 3151SOL    HW312924   3.477   1.237   1.177
 3151SOL    MW412925   3.443   1.170   1.220
 3152SOL     OW12926   2.682   0.478   0.499
 3152SOL    HW212927   2.657   0.566   0.527
 3152SOL    HW312928   2.679   0.481   0.403
 3152SOL    MW412929   2.678   0.490   0.491
 3153SOL     OW12930   2.124   0.506   0.427
 3153SOL    HW212931   2.156   0.594   0.409
 3153SOL    HW312932   2.112   0.504   0.522
 3153SOL    MW412933   2.127   0.518   0.439
 3154SOL     OW12934   2.202   0.919   1.328
 3154SOL    HW212935   2.265   0.866   1.279
 3154SOL    HW312936   2.183   0.993   1.271
 3154SOL    MW412937   2.208   0.921   1.315
 3155SOL     OW12938   2.523   0.261   0.514
 3155SOL    HW212939   2.581   0.337   0.516
 3155SOL    HW312940   2.458   0.282   0.447
 3155SOL    MW412941   2.522   0.273   0.505
 3156SOL     OW12942   2.610   1.188   0.689
 3156SOL    HW212943   2.690   1.191   0.741
 3156SOL    HW312944   2.638   1.155   0.603
 3156SOL    MW412945   2.624   1.184   0.684
 3157SOL     OW12946   2.635   1.529   1.592
 3157SOL    HW212947   2.719   1.555   1.631
 3157SOL    HW312948   2.659   1.473   1.518
 3157SOL    MW412949   2.649   1.525   1.587
 3158SOL     OW12950   2.387   0.692   0.680
 3158SOL    HW212951   2.372   0.612   0.731
 3158SOL    HW312952   2.469   0.727   0.714
 3158SOL    MW412953   2.395   0.684   0.692
 3159SOL     OW12954   2.724   1.378   1.365
 3159SOL    HW212955   2.688   1.444   1.305
 3159SOL    HW312956   2.652   1.316   1.378
 3159SOL    MW412957   2.710   1.378   1.359
 3160SOL     OW12958   2.529   0.518   1.057
 3160SOL    HW212959   2.435   0.514   1.075
 3160SOL    HW312960   2.559   0.427   1.066
 3160SOL    MW412961   2.520   0.506   1.060
 3161SOL     OW12962   2.275   0.932   0.961
 3161SOL    HW212963   2.230   0.939   0.877
 3161SOL    HW312964   2.255   1.015   1.005
 3161SOL    MW412965   2.267   0.944   0.955
 3162SOL     OW12966   1.972   1.778   0.836
 3162SOL    HW212967   2.061   1.770   0.871
 3162SOL    HW312968   1.936   1.690   0.841
 3162SOL    MW412969   1.979   1.765   0.841
 3163SOL     OW12970   2.236   1.305   0.871
 3163SOL    HW212971   2.212   1.358   0.947
 3163SOL    HW312972   2.292   1.363   0.819
 3163SOL    MW412973   2.240   1.320   0.874
 3164SOL     OW12974   2.798   0.949   0.681
 3164SOL    HW212975   2.712   0.936   0.721
 3164SOL    HW312976   2.851   0.876   0.713
 3164SOL    MW412977   2.794   0.938   0.690
 3165SOL     OW12978   2.206   1.601   1.466
 3165SOL    HW212979   2.114   1.577   1.451
 3165SOL    HW312980   2.250   1.518   1.483
 3165SOL    MW412981   2.200   1.586   1.465
 3166SOL     OW12982   2.789   1.311   0.398
 3166SOL    HW212983   2.766   1.373   0.466
 3166SOL    HW312984   2.746   1.229   0.424
 3166SOL    MW412985   2.781   1.307   0.409
 3167SOL     OW12986   3.662   0.312   0.854
 3167SOL    HW212987   3.599   0.292   0.923
 3167SOL    HW312988   3.652   0.241   0.791
 3167SOL    MW412989   3.652   0.299   0.855
 3168SOL     OW12990   2.286   0.284   0.366
 3168SOL    HW212991   2.260   0.246   0.282
 3168SOL    HW312992   2.223   0.354   0.382
 3168SOL    MW412993   2.275   0.287   0.357
 3169SOL     OW12994   2.121   1.245   0.403
 3169SOL    HW212995   2.069   1.313   0.359
 3169SOL    HW312996   2.118   1.171   0.343
 3169SOL    MW412997   2.113   1.244   0.390
 3170SOL     OW12998   3.463   1.084   0.506
 3170SOL    HW212999   3.373   1.084   0.541
 3170SOL    HW313000   3.456   1.130   0.423
 3170SOL    MW413001   3.450   1.090   0.500
 3171SOL     OW13002   3.263   0.719   1.578
 3171SOL    HW213003   3.332   0.657   1.555
 3171SOL    HW313004   3.188   0.693   1.525
 3171SOL    MW413005   3.263   0.706   1.569
 3172SOL     OW13006   2.004   1.599   1.130
 3172SOL    HW213007   1.987   1.545   1.207
 3172SOL    HW313008   1.992   1.689   1.160
 3172SOL    MW413009   2.001   1.603   1.144
 3173SOL     OW13010   2.999   1.106   1.570
 3173SOL    HW213011   2.984   1.199   1.555
 3173SOL    HW313012   3.094   1.096   1.570
 3173SOL    MW413013   3.008   1.116   1.567
 3174SOL     OW13014   2.795   0.530   1.771
 3174SOL    HW213015   2.885   0.531   1.738
 3174SOL    HW313016   2.754   0.455   1.729
 3174SOL    MW413017   2.801   0.520   1.762
 3175SOL     OW13018   3.370   1.062   0.898
 3175SOL    HW213019   3.373   0.996   0.829
 3175SOL    HW313020   3.455   1.105   0.894
 3175SOL    MW413021   3.382   1.058   0.889
 3176SOL     OW13022   2.990   0.665   0.467
 3176SOL    HW213023   3.016   0.689   0.378
 3176SOL    HW313024   2.972   0.572   0.463
 3176SOL    MW413025   2.992   0.657   0.454
 3177SOL     OW13026   2.575   0.334   1.721
 3177SOL    HW213027   2.585   0.260   1.661
 3177SOL    HW313028   2.611   0.303   1.804
 3177SOL    MW413029   2.581   0.320   1.723
 3178SOL     OW13030   2.311   1.701   0.636
 3178SOL    HW213031   2.343   1.789   0.614
 3178SOL    HW313032   2.264   1.673   0.558
 3178SOL    MW413033   2.310   1.709   0.623
 3179SOL     OW13034   3.695   0.063   0.685
 3179SOL    HW213035   3.749   0.014   0.747
 3179SOL    HW313036   3.638  -0.003   0.646
 3179SOL    MW413037   3.695   0.047   0.687
 3180SOL     OW13038   2.027   1.761   0.213
 3180SOL    HW213039   2.056   1.851   0.205
 3180SOL    HW313040   1.977   1.744   0.134
 3180SOL    MW413041   2.025   1.769   0.202
 3181SOL     OW13042   2.814   0.016   1.098
 3181SOL    HW213043   2.773   0.094   1.060
 3181SOL    HW313044   2.908   0.034   1.093
 3181SOL    MW413045   2.820   0.028   1.093
 3182SOL     OW13046   2.760   0.987   1.593
 3182SOL    HW213047   2.737   0.967   1.683
 3182SOL    HW313048   2.845   1.031   1.598
 3182SOL    MW413049   2.767   0.990   1.605
 3183SOL     OW13050   2.840   0.124   1.353
 3183SOL    HW213051   2.846   0.086   1.266
 3183SOL    HW313052   2.829   0.218   1.338
 3183SOL    MW413053   2.841   0.132   1.341
 3184SOL     OW13054   2.929   0.613   1.187
 3184SOL    HW213055   3.004   0.642   1.134
 3184SOL    HW313056   2.861   0.678   1.171
 3184SOL    MW413057   2.930   0.625   1.177
 3185SOL     OW13058   3.479   0.581   1.464
 3185SOL    HW213059   3.460   0.490   1.443
 3185SOL    HW313060   3.457   0.630   1.385
 3185SOL    MW413061   3.474   0.574   1.451
 3186SOL     OW13062   3.621   1.675   1.368
 3186SOL    HW213063   3.549   1.637   1.419
 3186SOL    HW313064   3.638   1.760   1.409
 3186SOL    MW413065   3.615   1.680   1.380
 3187SOL     OW13066   2.926   0.319   1.570
 3187SOL    HW213067   2.892   0.358   1.489
 3187SOL    HW313068   2.904   0.227   1.563
 3187SOL    MW413069   2.919   0.312   1.560
 3188SOL     OW13070   3.335   1.133   1.646
 3188SOL    HW213071   3.417   1.174   1.676
 3188SOL    HW313072   3.298   1.095   1.726
 3188SOL    MW413073   3.341   1.134   1.661
 3189SOL     OW13074   3.630   0.506   0.630
 3189SOL    HW213075   3.719   0.475   0.647
 3189SOL    HW313076   3.573   0.446   0.678
 3189SOL    MW413077   3.633   0.494   0.639
 3190SOL     OW13078   2.056   0.220   0.659
 3190SOL    HW213079   2.047   0.160   0.585
 3190SOL    HW313080   1.989   0.191   0.722
 3190SOL    MW413081   2.046   0.207   0.657
 3191SOL     OW13082   2.999   1.313   0.220
 3191SOL    HW213083   2.949   1.315   0.302
 3191SOL    HW313084   2.933   1.331   0.152
 3191SOL    MW413085   2.985   1.315   0.222
 3192SOL     OW13086   2.003   0.393   1.022
 3192SOL    HW213087   1.975   0.484   1.031
 3192SOL    HW313088   1.940   0.354   0.961
 3192SOL    MW413089   1.990   0.399   1.016
 3193SOL     OW13090   2.462   1.731   0.328
 3193SOL    HW213091   2.383   1.689   0.361
 3193SOL    HW313092   2.528   1.714   0.395
 3193SOL    MW413093   2.461   1.723   0.341
 3194SOL     OW13094   3.590   1.251   1.725
 3194SOL    HW213095   3.640   1.177   1.757
 3194SOL    HW313096   3.536   1.278   1.800
 3194SOL    MW413097   3.590   1.245   1.738
 3195SOL     OW13098   2.598   1.146   0.035
 3195SOL    HW213099   2.520   1.092   0.022
 3195SOL    HW313100   2.569   1.219   0.088
 3195SOL    MW413101   2.584   1.148   0.040
 3196SOL     OW13102   3.724   0.886   1.227
 3196SOL    HW213103   3.740   0.924   1.140
 3196SOL    HW313104   3.758   0.952   1.288
 3196SOL    MW413105   3.731   0.899   1.223
 3197SOL     OW13106   3.516   1.595   0.896
 3197SOL    HW213107   3.545   1.662   0.957
 3197SOL    HW313108   3.497   1.519   0.951
 3197SOL    MW413109   3.518   1.595   0.911
 3198SOL     OW13110   1.987   0.668   1.192
 3198SOL    HW213111   2.049   0.698   1.258
 3198SOL    HW313112   1.921   0.737   1.186
 3198SOL    MW413113   1.986   0.681   1.199
 3199SOL     OW13114   2.082   1.777   1.644
 3199SOL    HW213115   2.056   1.845   1.582
 3199SOL    HW313116   2.130   1.714   1.592
 3199SOL    MW413117   2.084   1.777   1.630
 3200SOL     OW13118   2.134   1.096   1.151
 3200SOL    HW213119   2.187   1.171   1.176
 3200SOL    HW313120   2.053   1.134   1.117
 3200SOL    MW413121   2.130   1.111   1.151
 3201SOL     OW13122   2.674   1.000   1.139
 3201SOL    HW213123   2.702   0.909   1.151
 3201SOL    HW313124   2.603   0.994   1.075
 3201SOL    MW413125   2.667   0.988   1.134
 3202SOL     OW13126   1.989   0.865   0.557
 3202SOL    HW213127   2.080   0.880   0.584
 3202SOL    HW313128   1.992   0.786   0.503
 3202SOL    MW413129   2.001   0.857   0.555
 3203SOL     OW13130   2.225   0.573   1.811
 3203SOL    HW213131   2.172   0.653   1.818
 3203SOL    HW313132   2.295   0.585   1.876
 3203SOL    MW413133   2.227   0.586   1.819
 3204SOL     OW13134   2.611   0.123   1.518
 3204SOL    HW213135   2.588   0.031   1.520
 3204SOL    HW313136   2.697   0.125   1.475
 3204SOL    MW413137   2.618   0.113   1.514
 3205SOL     OW13138   2.295   0.647   1.557
 3205SOL    HW213139   2.375   0.697   1.543
 3205SOL    HW313140   2.286   0.641   1.652
 3205SOL    MW413141   2.304   0.653   1.567
 3206SOL     OW13142   2.616   1.797   0.931
 3206SOL    HW213143   2.705   1.812   0.961
 3206SOL    HW313144   2.611   1.844   0.847
 3206SOL    MW413145   2.626   1.805   0.924
 3207SOL     OW13146   3.272   0.172   1.828
 3207SOL    HW213147   3.328   0.099   1.854
 3207SOL    HW313148   3.242   0.210   1.910
 3207SOL    MW413149   3.276   0.167   1.841
 3208SOL     OW13150   1.997   1.477   0.596
 3208SOL    HW213151   1.969   1.516   0.678
 3208SOL    HW313152   2.017   1.386   0.618
 3208SOL    MW413153   1.995   1.469   0.609
 3209SOL     OW13154   2.830   1.520   0.631
 3209SOL    HW213155   2.913   1.474   0.615
 3209SOL    HW313156   2.820   1.519   0.727
 3209SOL    MW413157   2.840   1.513   0.641
 3210SOL     OW13158   3.662   0.665   0.945
 3210SOL    HW213159   3.751   0.695   0.927
 3210SOL    HW313160   3.642   0.605   0.874
 3210SOL    MW413161   3.671   0.662   0.934
 3211SOL     OW13162   3.513   0.844   1.825
 3211SOL    HW213163   3.568   0.768   1.806
 3211SOL    HW313164   3.515   0.852   1.920
 3211SOL    MW413165   3.521   0.835   1.833
 3212SOL     OW13166   2.808   0.406   1.344
 3212SOL    HW213167   2.727   0.447   1.372
 3212SOL    HW313168   2.855   0.474   1.296
 3212SOL    MW413169   2.803   0.421   1.342
 3213SOL     OW13170   3.068   0.744   0.967
 3213SOL    HW213171   3.081   0.838   0.977
 3213SOL    HW313172   3.029   0.734   0.881
 3213SOL    MW413173   3.064   0.755   0.957
 3214SOL     OW13174   2.520   0.939   0.771
 3214SOL    HW213175   2.431   0.930   0.804
 3214SOL    HW313176   2.524   1.029   0.739
 3214SOL    MW413177   2.509   0.950   0.771
 3215SOL     OW13178   3.319   0.522   0.766
 3215SOL    HW213179   3.264   0.443   0.765
 3215SOL    HW313180   3.301   0.563   0.850
 3215SOL    MW413181   3.309   0.517   0.775
 3216SOL     OW13182   2.290   0.209   1.583
 3216SOL    HW213183   2.211   0.227   1.635
 3216SOL    HW313184   2.285   0.271   1.510
 3216SOL    MW413185   2.280   0.219   1.580
 3217SOL     OW13186   2.938   0.726   0.723
 3217SOL    HW213187   2.875   0.658   0.747
 3217SOL    HW313188   2.958   0.707   0.631
 3217SOL    MW413189   2.932   0.713   0.715
 3218SOL     OW13190   2.194   1.621   0.425
 3218SOL    HW213191   2.155   1.668   0.351
 3218SOL    HW313192   2.128   1.556   0.450
 3218SOL    MW413193   2.181   1.619   0.419
 3219SOL     OW13194   2.686   1.030   0.449
 3219SOL    HW213195   2.688   1.004   0.356
 3219SOL    HW313196   2.744   0.967   0.492
 3219SOL    MW413197   2.694   1.019   0.443
 3220SOL     OW13198   3.239   1.590   1.221
 3220SOL    HW213199   3.164   1.636   1.259
 3220SOL    HW313200   3.221   1.497   1.238
 3220SOL    MW413201   3.228   1.584   1.229
 3221SOL     OW13202   3.243   1.798   0.651
 3221SOL    HW213203   3.186   1.751   0.590
 3221SOL    HW313204   3.329   1.759   0.638
 3221SOL    MW413205   3.246   1.789   0.641
 3222SOL     OW13206   3.196   0.274   0.782
 3222SOL    HW213207   3.224   0.206   0.843
 3222SOL    HW313208   3.110   0.245   0.752
 3222SOL    MW413209   3.189   0.261   0.786
 3223SOL     OW13210   2.001   1.208   0.716
 3223SOL    HW213211   2.065   1.240   0.779
 3223SOL    HW313212   2.050   1.144   0.664
 3223SOL    MW413213   2.016   1.204   0.717
 3224SOL     OW13214   2.501   1.284   1.698
 3224SOL    HW213215   2.549   1.367   1.685
 3224SOL    HW313216   2.558   1.232   1.754
 3224SOL    MW413217   2.515   1.288   1.704
 3225SOL     OW13218   2.077   1.526   1.838
 3225SOL    HW213219   2.133   1.450   1.853
 3225SOL    HW313220   2.026   1.504   1.760
 3225SOL    MW413221   2.077   1.513   1.829
 3226SOL     OW13222   2.962   1.363   1.447
 3226SOL    HW213223   2.873   1.369   1.415
 3226SOL    HW313224   3.006   1.442   1.415
 3226SOL    MW413225   2.957   1.373   1.439
 3227SOL     OW13226   2.255   0.031   1.789
 3227SOL    HW213227   2.183  -0.004   1.737
 3227SOL    HW313228   2.313   0.072   1.724
 3227SOL    MW413229   2.253   0.032   1.774
 3228SOL     OW13230   2.279   1.521   1.088
 3228SOL    HW213231   2.324   1.583   1.145
 3228SOL    HW313232   2.186   1.540   1.101
 3228SOL    MW413233   2.272   1.531   1.095
 3229SOL     OW13234   3.719   1.050   1.442
 3229SOL    HW213235   3.634   1.063   1.401
 3229SOL    HW313236   3.699   1.014   1.529
 3229SOL    MW413237   3.706   1.046   1.447
 3230SOL     OW13238   2.701   1.589   1.196
 3230SOL    HW213239   2.725   1.578   1.105
 3230SOL    HW313240   2.624   1.646   1.194
 3230SOL    MW413241   2.693   1.594   1.185
 3231SOL     OW13242   2.343   0.972   0.051
 3231SOL    HW213243   2.266   0.985   0.107
 3231SOL    HW313244   2.307   0.936  -0.030
 3231SOL    MW413245   2.329   0.968   0.048
 3232SOL     OW13246   2.496   1.294   0.986
 3232SOL    HW213247   2.489   1.273   1.080
 3232SOL    HW313248   2.414   1.262   0.949
 3232SOL    MW413249   2.484   1.288   0.993
 3233SOL     OW13250   3.360   0.304   1.388
 3233SOL    HW213251   3.307   0.306   1.468
 3233SOL    HW313252   3.345   0.217   1.351
 3233SOL    MW413253   3.352   0.294   1.393
 3234SOL     OW13254   3.696   0.228   1.261
 3234SOL    HW213255   3.677   0.295   1.196
 3234SOL    HW313256   3.753   0.166   1.216
 3234SOL    MW413257   3.700   0.229   1.247
 3235SOL     OW13258   1.942   1.386   1.649
 3235SOL    HW213259   1.986   1.319   1.595
 3235SOL    HW313260   1.857   1.348   1.669
 3235SOL    MW413261   1.937   1.372   1.645
 3236SOL     OW13262   2.625   0.061   0.701
 3236SOL    HW213263   2.554   0.122   0.683
 3236SOL    HW313264   2.676   0.058   0.620
 3236SOL    MW413265   2.621   0.067   0.688
 3237SOL     OW13266   2.383   1.301   0.450
 3237SOL    HW213267   2.376   1.333   0.540
 3237SOL    HW313268   2.293   1.285   0.422
 3237SOL    MW413269   2.371   1.303   0.457
 3238SOL     OW13270   2.978   1.694   1.359
 3238SOL    HW213271   2.898   1.679   1.309
 3238SOL    HW313272   2.985   1.789   1.366
 3238SOL    MW413273   2.969   1.705   1.353
 3239SOL     OW13274   3.092   1.659   0.849
 3239SOL    HW213275   3.139   1.732   0.808
 3239SOL    HW313276   3.013   1.698   0.885
 3239SOL    MW413277   3.087   1.674   0.848
 3240SOL     OW13278   3.500   1.754   1.124
 3240SOL    HW213279   3.543   1.724   1.204
 3240SOL    HW313280   3.419   1.702   1.121
 3240SOL    MW413281   3.495   1.743   1.134
 3241SOL     OW13282   2.585   0.718   1.831
 3241SOL    HW213283   2.655   0.660   1.803
 3241SOL    HW313284   2.528   0.663   1.886
 3241SOL    MW413285   2.587   0.705   1.835
 3242SOL     OW13286   3.372   0.930   1.464
 3242SOL    HW213287   3.377   0.983   1.544
 3242SOL    HW313288   3.334   0.847   1.492
 3242SOL    MW413289   3.368   0.925   1.479
 3243SOL     OW13290   3.012   0.065   1.710
 3243SOL    HW213291   3.007  -0.028   1.691
 3243SOL    HW313292   3.095   0.076   1.756
 3243SOL    MW413293   3.020   0.054   1.714
 3244SOL     OW13294   2.386   0.585   0.164
 3244SOL    HW213295   2.352   0.641   0.234
 3244SOL    HW313296   2.457   0.535   0.204
 3244SOL    MW413297   2.392   0.586   0.178
 3245SOL     OW13298   3.482   1.336   0.986
 3245SOL    HW213299   3.517   1.318   0.899
 3245SOL    HW313300   3.387   1.337   0.973
 3245SOL    MW413301   3.474   1.333   0.973
 3246SOL     OW13302   2.911   0.984   1.355
 3246SOL    HW213303   2.954   1.019   1.433
 3246SOL    HW313304   2.894   1.061   1.301
 3246SOL    MW413305   2.914   0.999   1.358
 3247SOL     OW13306   2.302   0.126   0.657
 3247SOL    HW213307   2.352   0.169   0.588
 3247SOL    HW313308   2.217   0.170   0.657
 3247SOL    MW413309   2.299   0.139   0.648
 3248SOL     OW13310   2.061   1.188   1.517
 3248SOL    HW213311   2.089   1.141   1.595
 3248SOL    HW313312   1.982   1.143   1.488
 3248SOL    MW413313   2.054   1.177   1.523
 3249SOL     OW13314   2.569   0.515   1.484
 3249SOL    HW213315   2.541   0.603   1.508
 3249SOL    HW313316   2.538   0.459   1.555
 3249SOL    MW413317   2.561   0.518   1.496
 3250SOL     OW13318   3.111   0.733   0.203
 3250SOL    HW213319   3.158   0.751   0.122
 3250SOL    HW313320   3.077   0.817   0.231
 3250SOL    MW413321   3.113   0.747   0.196
 3251SOL     OW13322   2.224   0.911   0.697
 3251SOL    HW213323   2.282   0.967   0.645
 3251SOL    HW313324   2.268   0.826   0.699
 3251SOL    MW413325   2.237   0.908   0.690
 3252SOL     OW13326   3.364   0.263   0.534
 3252SOL    HW213327   3.286   0.213   0.559
 3252SOL    HW313328   3.335   0.354   0.534
 3252SOL    MW413329   3.350   0.267   0.537
 3253SOL     OW13330   2.950   0.225   0.693
 3253SOL    HW213331   2.970   0.300   0.637
 3253SOL    HW313332   2.930   0.264   0.778
 3253SOL    MW413333   2.951   0.241   0.697
 3254SOL     OW13334   3.710   0.998   1.712
 3254SOL    HW213335   3.623   0.978   1.748
 3254SOL    HW313336   3.764   0.924   1.737
 3254SOL    MW413337   3.705   0.987   1.720
 3255SOL     OW13338   1.931   1.511   0.869
 3255SOL    HW213339   1.963   1.515   0.960
 3255SOL    HW313340   1.836   1.519   0.877
 3255SOL    MW413341   1.923   1.514   0.882
 3256SOL     OW13342   1.886   0.637   0.416
 3256SOL    HW213343   1.826   0.609   0.486
 3256SOL    HW313344   1.960   0.577   0.422
 3256SOL    MW413345   1.888   0.626   0.425
 3257SOL     OW13346   3.454   1.849   1.850
 3257SOL    HW213347   3.499   1.773   1.815
 3257SOL    HW313348   3.492   1.862   1.937
 3257SOL    MW413349   3.464   1.842   1.856
 3258SOL     OW13350   3.054   1.368   0.576
 3258SOL    HW213351   3.077   1.319   0.654
 3258SOL    HW313352   3.135   1.410   0.548
 3258SOL    MW413353   3.067   1.368   0.583
 3259SOL     OW13354   2.312   0.376   1.305
 3259SOL    HW213355   2.345   0.457   1.345
 3259SOL    HW313356   2.285   0.402   1.217
 3259SOL    MW413357   2.311   0.390   1.299
 3260SOL     OW13358   2.266   0.343   1.041
 3260SOL    HW213359   2.296   0.257   1.012
 3260SOL    HW313360   2.171   0.336   1.044
 3260SOL    MW413361   2.258   0.332   1.039
 3261SOL     OW13362   3.095   0.552   1.732
 3261SOL    HW213363   3.147   0.487   1.685
 3261SOL    HW313364   3.053   0.603   1.662
 3261SOL    MW413365   3.096   0.549   1.715
 3262SOL     OW13366   3.194   0.347   1.593
 3262SOL    HW213367   3.101   0.331   1.580
 3262SOL    HW313368   3.220   0.285   1.661
 3262SOL    MW413369   3.184   0.337   1.600
 3263SOL     OW13370   2.409   0.121   0.932
 3263SOL    HW213371   2.419   0.030   0.958
 3263SOL    HW313372   2.365   0.117   0.847
 3263SOL    MW413373   2.405   0.109   0.924
 3264SOL     OW13374   2.503   1.736   1.478
 3264SOL    HW213375   2.420   1.721   1.523
 3264SOL    HW313376   2.562   1.669   1.513
 3264SOL    MW413377   2.501   1.726   1.488
 3265SOL     OW13378   3.560   0.443   1.103
 3265SOL    HW213379   3.493   0.476   1.163
 3265SOL    HW313380   3.603   0.521   1.069
 3265SOL    MW413381   3.558   0.458   1.107
 3266SOL     OW13382   3.738   1.163   1.073
 3266SOL    HW213383   3.731   1.103   0.998
 3266SOL    HW313384   3.664   1.223   1.062
 3266SOL    MW413385   3.728   1.163   1.062
 3267SOL     OW13386   3.120   1.025   0.991
 3267SOL    HW213387   3.134   0.997   1.082
 3267SOL    HW313388   3.206   1.056   0.963
 3267SOL    MW413389   3.133   1.026   1.000
 3268SOL     OW13390   3.203   0.520   1.270
 3268SOL    HW213391   3.224   0.521   1.177
 3268SOL    HW313392   3.248   0.442   1.303
 3268SOL    MW413393   3.210   0.510   1.262
 3269SOL     OW13394   3.696   0.651   1.812
 3269SOL    HW213395   3.733   0.596   1.881
 3269SOL    HW313396   3.721   0.608   1.730
 3269SOL    MW413397   3.703   0.639   1.811
 3270SOL     OW13398   3.243   0.949   1.863
 3270SOL    HW213399   3.309   0.897   1.817
 3270SOL    HW313400   3.263   0.936   1.956
 3270SOL    MW413401   3.254   0.940   1.870
 3271SOL     OW13402   3.194   0.035   0.212
 3271SOL    HW213403   3.268   0.079   0.255
 3271SOL    HW313404   3.118   0.089   0.234
 3271SOL    MW413405   3.194   0.047   0.220
 3272SOL     OW13406   3.254   0.810   0.490
 3272SOL    HW213407   3.169   0.780   0.460
 3272SOL    HW313408   3.246   0.817   0.585
 3272SOL    MW413409   3.242   0.808   0.499
 3273SOL     OW13410   2.330   1.273   1.221
 3273SOL    HW213411   2.342   1.300   1.312
 3273SOL    HW313412   2.311   1.354   1.174
 3273SOL    MW413413   2.329   1.288   1.226
 3274SOL     OW13414   2.614   0.253   1.044
 3274SOL    HW213415   2.587   0.255   1.135
 3274SOL    HW313416   2.544   0.205   0.999
 3274SOL    MW413417   2.602   0.249   1.051
 3275SOL     OW13418   2.468   1.745   1.206
 3275SOL    HW213419   2.520   1.822   1.183
 3275SOL    HW313420   2.477   1.737   1.301
 3275SOL    MW413421   2.477   1.752   1.217
 3276SOL     OW13422   3.370   1.330   1.438
 3276SOL    HW213423   3.355   1.259   1.501
 3276SOL    HW313424   3.416   1.288   1.366
 3276SOL    MW413425   3.376   1.314   1.438
 3277SOL     OW13426   2.444   1.061   1.555
 3277SOL    HW213427   2.481   1.066   1.467
 3277SOL    HW313428   2.483   1.134   1.602
 3277SOL    MW413429   2.454   1.071   1.550
 3278SOL     OW13430   2.624   1.104   1.367
 3278SOL    HW213431   2.683   1.050   1.420
 3278SOL    HW313432   2.639   1.076   1.277
 3278SOL    MW413433   2.634   1.093   1.363
 3279SOL     OW13434   3.435   1.593   1.539
 3279SOL    HW213435   3.477   1.578   1.624
 3279SOL    HW313436   3.426   1.506   1.501
 3279SOL    MW413437   3.439   1.581   1.546
 3280SOL     OW13438   3.095   0.072   1.130
 3280SOL    HW213439   3.150   0.081   1.052
 3280SOL    HW313440   3.150   0.106   1.201
 3280SOL    MW413441   3.109   0.077   1.129
 3281SOL     OW13442   2.102   0.985   0.314
 3281SOL    HW213443   2.039   1.001   0.243
 3281SOL    HW313444   2.049   0.948   0.385
 3281SOL    MW413445   2.087   0.982   0.314
 3282SOL     OW13446   2.458   1.339   0.173
 3282SOL    HW213447   2.473   1.315   0.265
 3282SOL    HW313448   2.366   1.317   0.157
 3282SOL    MW413449   2.448   1.332   0.183
 3283SOL     OW13450   2.256   1.728   0.894
 3283SOL    HW213451   2.260   1.639   0.929
 3283SOL    HW313452   2.282   1.719   0.803
 3283SOL    MW413453   2.259   1.716   0.886
 3284SOL     OW13454   2.873   1.206   1.137
 3284SOL    HW213455   2.805   1.140   1.153
 3284SOL    HW313456   2.891   1.200   1.044
 3284SOL    MW413457   2.866   1.197   1.128
 3285SOL     OW13458   1.962   1.481   1.388
 3285SOL    HW213459   1.952   1.439   1.474
 3285SOL    HW313460   1.883   1.534   1.378
 3285SOL    MW413461   1.951   1.482   1.399
 3286SOL     OW13462   2.866   0.345   0.958
 3286SOL    HW213463   2.796   0.297   1.003
 3286SOL    HW313464   2.898   0.408   1.022
 3286SOL    MW413465   2.861   0.347   0.972
 3287SOL     OW13466   2.517   0.781   1.578
 3287SOL    HW213467   2.510   0.876   1.566
 3287SOL    HW313468   2.526   0.770   1.673
 3287SOL    MW413469   2.518   0.793   1.588
 3288SOL     OW13470   2.238   1.296   1.836
 3288SOL    HW213471   2.310   1.298   1.773
 3288SOL    HW313472   2.208   1.205   1.835
 3288SOL    MW413473   2.243   1.285   1.828
 3289SOL     OW13474   3.322   0.059   1.303
 3289SOL    HW213475   3.393   0.005   1.267
 3289SOL    HW313476   3.321   0.038   1.396
 3289SOL    MW413477   3.331   0.050   1.311
 3290SOL     OW13478   3.522   1.589   1.787
 3290SOL    HW213479   3.495   1.586   1.878
 3290SOL    HW313480   3.618   1.593   1.790
 3290SOL    MW413481   3.532   1.589   1.799
 3291SOL     OW13482   2.333   0.451   0.771
 3291SOL    HW213483   2.404   0.399   0.734
 3291SOL    HW313484   2.319   0.416   0.858
 3291SOL    MW413485   2.341   0.440   0.778
 3292SOL     OW13486   1.888   1.786   1.843
 3292SOL    HW213487   1.938   1.764   1.765
 3292SOL    HW313488   1.896   1.881   1.851
 3292SOL    MW413489   1.896   1.795   1.834
 3293SOL     OW13490   2.649   1.544   0.847
 3293SOL    HW213491   2.577   1.481   0.860
 3293SOL    HW313492   2.610   1.629   0.865
 3293SOL    MW413493   2.633   1.547   0.850
 3294SOL     OW13494   2.969   0.392   0.495
 3294SOL    HW213495   2.991   0.329   0.427
 3294SOL    HW313496   2.874   0.384   0.506
 3294SOL    MW413497   2.959   0.383   0.487
 3295SOL     OW13498   2.054   0.082   0.427
 3295SOL    HW213499   2.125   0.103   0.366
 3295SOL    HW313500   2.008   0.010   0.385
 3295SOL    MW413501   2.058   0.076   0.413
 3296SOL     OW13502   1.885   0.549   1.570
 3296SOL    HW213503   1.949   0.615   1.545
 3296SOL    HW313504   1.804   0.576   1.527
 3296SOL    MW413505   1.883   0.561   1.562
 3297SOL     OW13506   3.179   1.133   0.457
 3297SOL    HW213507   3.151   1.219   0.490
 3297SOL    HW313508   3.207   1.149   0.367
 3297SOL    MW413509   3.179   1.147   0.449
 3298SOL     OW13510   2.841   0.053   0.510
 3298SOL    HW213511   2.878   0.112   0.575
 3298SOL    HW313512   2.818   0.109   0.436
 3298SOL    MW413513   2.842   0.068   0.509
 3299SOL     OW13514   3.694   0.935   0.932
 3299SOL    HW213515   3.685   0.967   0.843
 3299SOL    HW313516   3.647   0.851   0.932
 3299SOL    MW413517   3.687   0.928   0.922
 3300SOL     OW13518   2.070   0.775   1.511
 3300SOL    HW213519   2.091   0.844   1.449
 3300SOL    HW313520   2.150   0.722   1.516
 3300SOL    MW413521   2.083   0.776   1.505
 3301SOL     OW13522   3.606   0.866   0.633
 3301SOL    HW213523   3.700   0.855   0.621
 3301SOL    HW313524   3.582   0.938   0.574
 3301SOL    MW413525   3.616   0.874   0.624
 3302SOL     OW13526   2.055   0.790   1.778
 3302SOL    HW213527   1.981   0.734   1.804
 3302SOL    HW313528   2.050   0.793   1.683
 3302SOL    MW413529   2.044   0.783   1.768
 3303SOL     OW13530   2.221   0.077   1.228
 3303SOL    HW213531   2.264   0.161   1.248
 3303SOL    HW313532   2.294   0.015   1.221
 3303SOL    MW413533   2.236   0.080   1.229
 3304SOL     OW13534   2.262   0.744   0.406
 3304SOL    HW213535   2.262   0.839   0.391
 3304SOL    HW313536   2.339   0.728   0.460
 3304SOL    MW413537   2.272   0.755   0.411
 3305SOL     OW13538   3.038   0.603   1.470
 3305SOL    HW213539   3.074   0.576   1.386
 3305SOL    HW313540   2.951   0.637   1.449
 3305SOL    MW413541   3.032   0.604   1.457
 3306SOL     OW13542   2.021   0.475   0.695
 3306SOL    HW213543   2.083   0.482   0.768
 3306SOL    HW313544   2.021   0.382   0.672
 3306SOL    MW413545   2.029   0.464   0.702
 3307SOL     OW13546   3.374   1.869   1.578
 3307SOL    HW213547   3.377   1.775   1.561
 3307SOL    HW313548   3.397   1.877   1.670
 3307SOL    MW413549   3.377   1.857   1.588
 3308SOL     OW13550   2.507   0.206   1.284
 3308SOL    HW213551   2.438   0.269   1.305
 3308SOL    HW313552   2.534   0.170   1.369
 3308SOL    MW413553   2.501   0.209   1.297
 3309SOL     OW13554   1.890   1.047   0.153
 3309SOL    HW213555   1.859   1.112   0.216
 3309SOL    HW313556   1.839   0.969   0.172
 3309SOL    MW413557   1.880   1.044   0.163
 3310SOL     OW13558   3.302   0.059   0.901
 3310SOL    HW213559   3.390   0.068   0.938
 3310SOL    HW313560   3.312   0.000   0.827
 3310SOL    MW413561   3.316   0.053   0.895
 3311SOL     OW13562   3.334   0.798   0.745
 3311SOL    HW213563   3.414   0.813   0.694
 3311SOL    HW313564   3.327   0.703   0.751
 3311SOL    MW413565   3.343   0.787   0.740
 3312SOL     OW13566   2.474   1.847   0.095
 3312SOL    HW213567   2.379   1.847   0.087
 3312SOL    HW313568   2.490   1.793   0.173
 3312SOL    MW413569   2.464   1.841   0.104
 3313SOL     OW13570   2.784   0.724   1.442
 3313SOL    HW213571   2.853   0.791   1.439
 3313SOL    HW313572   2.717   0.762   1.498
 3313SOL    MW413573   2.785   0.737   1.449
 3314SOL     OW13574   2.202   1.024   1.690
 3314SOL    HW213575   2.156   0.940   1.692
 3314SOL    HW313576   2.259   1.018   1.614
 3314SOL    MW413577   2.204   1.012   1.682
 3315SOL     OW13578   3.319   0.667   0.011
 3315SOL    HW213579   3.247   0.643  -0.047
 3315SOL    HW313580   3.385   0.704  -0.047
 3315SOL    MW413581   3.318   0.669  -0.004
 3316SOL     OW13582   2.453   1.399   0.691
 3316SOL    HW213583   2.518   1.332   0.712
 3316SOL    HW313584   2.505   1.476   0.668
 3316SOL    MW413585   2.468   1.401   0.690
 3317SOL     OW13586   2.714   0.564   0.821
 3317SOL    HW213587   2.654   0.582   0.893
 3317SOL    HW313588   2.748   0.476   0.840
 3317SOL    MW413589   2.710   0.554   0.834
 3318SOL     OW13590   3.655   0.063   1.490
 3318SOL    HW213591   3.576   0.109   1.518
 3318SOL    HW313592   3.690   0.117   1.419
 3318SOL    MW413593   3.649   0.076   1.484
 3319SOL     OW13594   2.939   1.147   0.840
 3319SOL    HW213595   3.031   1.128   0.858
 3319SOL    HW313596   2.912   1.077   0.780
 3319SOL    MW413597   2.947   1.135   0.834
 3320SOL     OW13598   2.732   0.967   0.195
 3320SOL    HW213599   2.718   0.879   0.160
 3320SOL    HW313600   2.683   1.024   0.136
 3320SOL    MW413601   2.724   0.962   0.183
 3321SOL     OW13602   3.213   1.385   0.936
 3321SOL    HW213603   3.186   1.469   0.901
 3321SOL    HW313604   3.173   1.380   1.023
 3321SOL    MW413605   3.206   1.394   0.942
 3322SOL     OW13606   3.132   1.333   1.204
 3322SOL    HW213607   3.143   1.300   1.293
 3322SOL    HW313608   3.051   1.292   1.173
 3322SOL    MW413609   3.122   1.325   1.210
 3323SOL     OW13610   2.145   0.691   0.974
 3323SOL    HW213611   2.095   0.690   1.055
 3323SOL    HW313612   2.165   0.783   0.958
 3323SOL    MW413613   2.141   0.703   0.982
 3324SOL     OW13614   3.212   1.455   1.736
 3324SOL    HW213615   3.212   1.549   1.752
 3324SOL    HW313616   3.257   1.445   1.652
 3324SOL    MW413617   3.218   1.465   1.727
 3325SOL     OW13618   2.740   0.736   0.411
 3325SOL    HW213619   2.720   0.722   0.318
 3325SOL    HW313620   2.833   0.715   0.418
 3325SOL    MW413621   2.750   0.731   0.400
 3326SOL     OW13622   2.067   0.359   1.715
 3326SOL    HW213623   2.024   0.418   1.652
 3326SOL    HW313624   2.135   0.414   1.755
 3326SOL    MW413625   2.071   0.374   1.712
 3327SOL     OW13626   3.179   0.979   1.260
 3327SOL    HW213627   3.242   0.976   1.333
 3327SOL    HW313628   3.095   0.997   1.302
 3327SOL    MW413629   3.175   0.981   1.275
 3328SOL     OW13630   2.723   1.694   0.449
 3328SOL    HW213631   2.781   1.765   0.476
 3328SOL    HW313632   2.746   1.622   0.507
 3328SOL    MW413633   2.734   1.694   0.460
 3329SOL     OW13634   3.518   0.156   1.039
 3329SOL    HW213635   3.563   0.074   1.058
 3329SOL    HW313636   3.538   0.212   1.115
 3329SOL    MW413637   3.528   0.152   1.051
 3330SOL     OW13638   1.966  -0.001   1.138
 3330SOL    HW213639   1.957   0.000   1.043
 3330SOL    HW313640   2.060   0.011   1.153
 3330SOL    MW413641   1.978   0.002   1.129
 3331SOL     OW13642   3.603   1.192   0.758
 3331SOL    HW213643   3.582   1.138   0.681
 3331SOL    HW313644   3.699   1.190   0.762
 3331SOL    MW413645   3.612   1.185   0.747
 3332SOL     OW13646   2.295   1.337   1.501
 3332SOL    HW213647   2.216   1.287   1.524
 3332SOL    HW313648   2.365   1.296   1.551
 3332SOL    MW413649   2.293   1.325   1.511
 3333SOL     OW13650   2.179   0.126   0.184
 3333SOL    HW213651   2.108   0.181   0.152
 3333SOL    HW313652   2.221   0.092   0.105
 3333SOL    MW413653   2.175   0.128   0.170
 3334SOL     OW13654   3.303   0.623   1.020
 3334SOL    HW213655   3.226   0.669   0.986
 3334SOL    HW313656   3.360   0.692   1.054
 3334SOL    MW413657   3.300   0.638   1.020
 3335SOL     OW13658   1.935   0.225   0.033
 3335SOL    HW213659   1.902   0.304   0.077
 3335SOL    HW313660   1.990   0.258  -0.038
 3335SOL    MW413661   1.938   0.239   0.030
 3336SOL     OW13662   1.969   1.482   0.222
 3336SOL    HW213663   1.986   1.566   0.264
 3336SOL    HW313664   2.004   1.491   0.134
 3336SOL    MW413665   1.974   1.495   0.216
 3337SOL     OW13666   3.241   1.571   0.439
 3337SOL    HW213667   3.304   1.561   0.368
 3337SOL    HW313668   3.158   1.591   0.394
 3337SOL    MW413669   3.238   1.572   0.424
 3338SOL     OW13670   3.604   0.839   2.125
 3338SOL    HW213671   3.645   0.781   2.190
 3338SOL    HW313672   3.511   0.831   2.142
 3338SOL    MW413673   3.598   0.831   2.135
 3339SOL     OW13674   3.470   0.771   3.120
 3339SOL    HW213675   3.425   0.838   3.171
 3339SOL    HW313676   3.558   0.807   3.106
 3339SOL    MW413677   3.476   0.784   3.124
 3340SOL     OW13678   2.398   1.022   2.354
 3340SOL    HW213679   2.488   0.997   2.338
 3340SOL    HW313680   2.394   1.115   2.331
 3340SOL    MW413681   2.410   1.031   2.349
 3341SOL     OW13682   3.514   1.725   2.496
 3341SOL    HW213683   3.526   1.671   2.574
 3341SOL    HW313684   3.551   1.673   2.425
 3341SOL    MW413685   3.520   1.710   2.497
 3342SOL     OW13686   2.893   1.610   3.497
 3342SOL    HW213687   2.934   1.646   3.418
 3342SOL    HW313688   2.928   1.521   3.504
 3342SOL    MW413689   2.904   1.603   3.488
 3343SOL     OW13690   3.450   1.165   3.101
 3343SOL    HW213691   3.371   1.130   3.059
 3343SOL    HW313692   3.477   1.237   3.045
 3343SOL    MW413693   3.443   1.170   3.088
 3344SOL     OW13694   2.682   0.478   2.367
 3344SOL    HW213695   2.657   0.566   2.395
 3344SOL    HW313696   2.679   0.481   2.271
 3344SOL    MW413697   2.678   0.490   2.359
 3345SOL     OW13698   2.124   0.506   2.295
 3345SOL    HW213699   2.156   0.594   2.277
 3345SOL    HW313700   2.112   0.504   2.390
 3345SOL    MW413701   2.127   0.518   2.307
 3346SOL     OW13702   2.202   0.919   3.196
 3346SOL    HW213703   2.265   0.866   3.147
 3346SOL    HW313704   2.183   0.993   3.139
 3346SOL    MW413705   2.208   0.921   3.183
 3347SOL     OW13706   2.523   0.261   2.382
 3347SOL    HW213707   2.581   0.337   2.384
 3347SOL    HW313708   2.458   0.282   2.315
 3347SOL    MW413709   2.522   0.273   2.373
 3348SOL     OW13710   2.610   1.188   2.557
 3348SOL    HW213711   2.690   1.191   2.609
 3348SOL    HW313712   2.638   1.155   2.471
 3348SOL    MW413713   2.624   1.184   2.552
 3349SOL     OW13714   2.635   1.529   3.460
 3349SOL    HW213715   2.719   1.555   3.499
 3349SOL    HW313716   2.659   1.473   3.386
 3349SOL    MW413717   2.649   1.525   3.455
 3350SOL     OW13718   2.387   0.692   2.548
 3350SOL    HW213719   2.372   0.612   2.599
 3350SOL    HW313720   2.469   0.727   2.582
 3350SOL    MW413721   2.395   0.684   2.560
 3351SOL     OW13722   2.724   1.378   3.233
 3351SOL    HW213723   2.688   1.444   3.173
 3351SOL    HW313724   2.652   1.316   3.246
 3351SOL    MW413725   2.710   1.378   3.227
 3352SOL     OW13726   2.529   0.518   2.925
 3352SOL    HW213727   2.435   0.514   2.943
 3352SOL    HW313728   2.559   0.427   2.934
 3352SOL    MW413729   2.520   0.506   2.928
 3353SOL     OW13730   2.275   0.932   2.829
 3353SOL    HW213731   2.230   0.939   2.745
 3353SOL    HW313732   2.255   1.015   2.873
 3353SOL    MW413733   2.267   0.944   2.823
 3354SOL     OW13734   1.972   1.778   2.704
 3354SOL    HW213735   2.061   1.770   2.739
 3354SOL    HW313736   1.936   1.690   2.709
 3354SOL    MW413737   1.979   1.765   2.709
 3355SOL     OW13738   3.237   1.170   2.073
 3355SOL    HW213739   3.155   1.206   2.039
 3355SOL    HW313740   3.305   1.213   2.022
 3355SOL    MW413741   3.235   1.180   2.061
 3356SOL     OW13742   2.236   1.305   2.739
 3356SOL    HW213743   2.212   1.358   2.815
 3356SOL    HW313744   2.292   1.363   2.687
 3356SOL    MW413745   2.240   1.320   2.742
 3357SOL     OW13746   2.798   0.949   2.549
 3357SOL    HW213747   2.712   0.936   2.589
 3357SOL    HW313748   2.851   0.876   2.581
 3357SOL    MW413749   2.794   0.938   2.558
 3358SOL     OW13750   2.206   1.601   3.334
 3358SOL    HW213751   2.114   1.577   3.319
 3358SOL    HW313752   2.250   1.518   3.351
 3358SOL    MW413753   2.200   1.586   3.333
 3359SOL     OW13754   2.789   1.311   2.266
 3359SOL    HW213755   2.766   1.373   2.334
 3359SOL    HW313756   2.746   1.229   2.292
 3359SOL    MW413757   2.781   1.307   2.277
 3360SOL     OW13758   3.662   0.312   2.722
 3360SOL    HW213759   3.599   0.292   2.791
 3360SOL    HW313760   3.652   0.241   2.659
 3360SOL    MW413761   3.652   0.299   2.723
 3361SOL     OW13762   2.286   0.284   2.234
 3361SOL    HW213763   2.260   0.246   2.150
 3361SOL    HW313764   2.223   0.354   2.250
 3361SOL    MW413765   2.275   0.287   2.225
 3362SOL     OW13766   2.121   1.245   2.271
 3362SOL    HW213767   2.069   1.313   2.227
 3362SOL    HW313768   2.118   1.171   2.211
 3362SOL    MW413769   2.113   1.244   2.258
 3363SOL     OW13770   2.783   1.708   2.049
 3363SOL    HW213771   2.738   1.724   2.132
 3363SOL    HW313772   2.714   1.673   1.991
 3363SOL    MW413773   2.769   1.705   2.051
 3364SOL     OW13774   3.718   0.481   2.024
 3364SOL    HW213775   3.627   0.483   2.052
 3364SOL    HW313776   3.763   0.543   2.082
 3364SOL    MW413777   3.711   0.489   2.034
 3365SOL     OW13778   3.463   1.084   2.374
 3365SOL    HW213779   3.373   1.084   2.409
 3365SOL    HW313780   3.456   1.130   2.291
 3365SOL    MW413781   3.450   1.090   2.368
 3366SOL     OW13782   3.263   0.719   3.446
 3366SOL    HW213783   3.332   0.657   3.423
 3366SOL    HW313784   3.188   0.693   3.393
 3366SOL    MW413785   3.263   0.706   3.437
 3367SOL     OW13786   2.004   1.599   2.998
 3367SOL    HW213787   1.987   1.545   3.075
 3367SOL    HW313788   1.992   1.689   3.028
 3367SOL    MW413789   2.001   1.603   3.012
 3368SOL     OW13790   2.999   1.106   3.438
 3368SOL    HW213791   2.984   1.199   3.423
 3368SOL    HW313792   3.094   1.096   3.438
 3368SOL    MW413793   3.008   1.116   3.435
 3369SOL     OW13794   2.795   0.530   3.639
 3369SOL    HW213795   2.885   0.531   3.606
 3369SOL    HW313796   2.754   0.455   3.597
 3369SOL    MW413797   2.801   0.520   3.630
 3370SOL     OW13798   3.370   1.062   2.766
 3370SOL    HW213799   3.373   0.996   2.697
 3370SOL    HW313800   3.455   1.105   2.762
 3370SOL    MW413801   3.382   1.058   2.757
 3371SOL     OW13802   2.990   0.665   2.335
 3371SOL    HW213803   3.016   0.689   2.246
 3371SOL    HW313804   2.972   0.572   2.331
 3371SOL    MW413805   2.992   0.657   2.322
 3372SOL     OW13806   3.655   1.285   2.186
 3372SOL    HW213807   3.611   1.326   2.261
 3372SOL    HW313808   3.712   1.353   2.151
 3372SOL    MW413809   3.657   1.299   2.191
 3373SOL     OW13810   2.575   0.334   3.589
 3373SOL    HW213811   2.585   0.260   3.529
 3373SOL    HW313812   2.611   0.303   3.672
 3373SOL    MW413813   2.581   0.320   3.591
 3374SOL     OW13814   2.311   1.701   2.504
 3374SOL    HW213815   2.343   1.789   2.482
 3374SOL    HW313816   2.264   1.673   2.426
 3374SOL    MW413817   2.310   1.709   2.491
 3375SOL     OW13818   3.695   0.063   2.553
 3375SOL    HW213819   3.749   0.014   2.615
 3375SOL    HW313820   3.638  -0.003   2.514
 3375SOL    MW413821   3.695   0.047   2.555
 3376SOL     OW13822   2.027   1.761   2.081
 3376SOL    HW213823   2.056   1.851   2.073
 3376SOL    HW313824   1.977   1.744   2.002
 3376SOL    MW413825   2.025   1.769   2.070
 3377SOL     OW13826   2.814   0.016   2.966
 3377SOL    HW213827   2.773   0.094   2.928
 3377SOL    HW313828   2.908   0.034   2.961
 3377SOL    MW413829   2.820   0.028   2.961
 3378SOL     OW13830   3.431   1.569   2.052
 3378SOL    HW213831   3.479   1.638   2.098
 3378SOL    HW313832   3.352   1.613   2.021
 3378SOL    MW413833   3.426   1.583   2.055
 3379SOL     OW13834   2.829   0.694   1.996
 3379SOL    HW213835   2.831   0.641   1.917
 3379SOL    HW313836   2.917   0.731   2.002
 3379SOL    MW413837   2.841   0.693   1.985
 3380SOL     OW13838   3.443   0.620   2.332
 3380SOL    HW213839   3.482   0.620   2.419
 3380SOL    HW313840   3.384   0.696   2.332
 3380SOL    MW413841   3.440   0.631   2.343
 3381SOL     OW13842   2.760   0.987   3.461
 3381SOL    HW213843   2.737   0.967   3.551
 3381SOL    HW313844   2.845   1.031   3.466
 3381SOL    MW413845   2.767   0.990   3.473
 3382SOL     OW13846   2.840   0.124   3.221
 3382SOL    HW213847   2.846   0.086   3.134
 3382SOL    HW313848   2.829   0.218   3.206
 3382SOL    MW413849   2.841   0.132   3.209
 3383SOL     OW13850   2.929   0.613   3.055
 3383SOL    HW213851   3.004   0.642   3.002
 3383SOL    HW313852   2.861   0.678   3.039
 3383SOL    MW413853   2.930   0.625   3.045
 3384SOL     OW13854   3.479   0.581   3.332
 3384SOL    HW213855   3.460   0.490   3.311
 3384SOL    HW313856   3.457   0.630   3.253
 3384SOL    MW413857   3.474   0.574   3.319
 3385SOL     OW13858   3.621   1.675   3.236
 3385SOL    HW213859   3.549   1.637   3.287
 3385SOL    HW313860   3.638   1.760   3.277
 3385SOL    MW413861   3.615   1.680   3.248
 3386SOL     OW13862   2.926   0.319   3.438
 3386SOL    HW213863   2.892   0.358   3.357
 3386SOL    HW313864   2.904   0.227   3.431
 3386SOL    MW413865   2.919   0.312   3.428
 3387SOL     OW13866   3.335   1.133   3.514
 3387SOL    HW213867   3.417   1.174   3.544
 3387SOL    HW313868   3.298   1.095   3.594
 3387SOL    MW413869   3.341   1.134   3.529
 3388SOL     OW13870   3.630   0.506   2.498
 3388SOL    HW213871   3.719   0.475   2.515
 3388SOL    HW313872   3.573   0.446   2.546
 3388SOL    MW413873   3.633   0.494   2.507
 3389SOL     OW13874   2.056   0.220   2.527
 3389SOL    HW213875   2.047   0.160   2.453
 3389SOL    HW313876   1.989   0.191   2.590
 3389SOL    MW413877   2.046   0.207   2.525
 3390SOL     OW13878   2.999   1.313   2.088
 3390SOL    HW213879   2.949   1.315   2.170
 3390SOL    HW313880   2.933   1.331   2.020
 3390SOL    MW413881   2.985   1.315   2.090
 3391SOL     OW13882   2.003   0.393   2.890
 3391SOL    HW213883   1.975   0.484   2.899
 3391SOL    HW313884   1.940   0.354   2.829
 3391SOL    MW413885   1.990   0.399   2.884
 3392SOL     OW13886   2.462   1.731   2.196
 3392SOL    HW213887   2.383   1.689   2.229
 3392SOL    HW313888   2.528   1.714   2.263
 3392SOL    MW413889   2.461   1.723   2.209
 3393SOL     OW13890   3.590   1.251   3.593
 3393SOL    HW213891   3.640   1.177   3.625
 3393SOL    HW313892   3.536   1.278   3.668
 3393SOL    MW413893   3.590   1.245   3.606
 3394SOL     OW13894   2.598   1.146   1.903
 3394SOL    HW213895   2.520   1.092   1.890
 3394SOL    HW313896   2.569   1.219   1.956
 3394SOL    MW413897   2.584   1.148   1.908
 3395SOL     OW13898   3.724   0.886   3.095
 3395SOL    HW213899   3.740   0.924   3.008
 3395SOL    HW313900   3.758   0.952   3.156
 3395SOL    MW413901   3.731   0.899   3.091
 3396SOL     OW13902   3.516   1.595   2.764
 3396SOL    HW213903   3.545   1.662   2.825
 3396SOL    HW313904   3.497   1.519   2.819
 3396SOL    MW413905   3.518   1.595   2.779
 3397SOL     OW13906   3.179   1.662   1.971
 3397SOL    HW213907   3.105   1.625   2.021
 3397SOL    HW313908   3.187   1.752   2.004
 3397SOL    MW413909   3.170   1.669   1.983
 3398SOL     OW13910   1.987   0.668   3.060
 3398SOL    HW213911   2.049   0.698   3.126
 3398SOL    HW313912   1.921   0.737   3.054
 3398SOL    MW413913   1.986   0.681   3.067
 3399SOL     OW13914   3.403   1.336   1.913
 3399SOL    HW213915   3.350   1.385   1.849
 3399SOL    HW313916   3.434   1.402   1.974
 3399SOL    MW413917   3.401   1.350   1.911
 3400SOL     OW13918   2.628   0.225   1.968
 3400SOL    HW213919   2.576   0.145   1.956
 3400SOL    HW313920   2.715   0.202   1.936
 3400SOL    MW413921   2.631   0.211   1.962
 3401SOL     OW13922   2.082   1.777   3.512
 3401SOL    HW213923   2.056   1.845   3.450
 3401SOL    HW313924   2.130   1.714   3.460
 3401SOL    MW413925   2.084   1.777   3.498
 3402SOL     OW13926   2.134   1.096   3.019
 3402SOL    HW213927   2.187   1.171   3.044
 3402SOL    HW313928   2.053   1.134   2.985
 3402SOL    MW413929   2.130   1.111   3.019
 3403SOL     OW13930   2.674   1.000   3.007
 3403SOL    HW213931   2.702   0.909   3.019
 3403SOL    HW313932   2.603   0.994   2.943
 3403SOL    MW413933   2.667   0.988   3.002
 3404SOL     OW13934   1.989   0.865   2.425
 3404SOL    HW213935   2.080   0.880   2.452
 3404SOL    HW313936   1.992   0.786   2.371
 3404SOL    MW413937   2.001   0.857   2.423
 3405SOL     OW13938   2.225   0.573   3.679
 3405SOL    HW213939   2.172   0.653   3.686
 3405SOL    HW313940   2.295   0.585   3.744
 3405SOL    MW413941   2.227   0.586   3.687
 3406SOL     OW13942   2.611   0.123   3.386
 3406SOL    HW213943   2.588   0.031   3.388
 3406SOL    HW313944   2.697   0.125   3.343
 3406SOL    MW413945   2.618   0.113   3.382
 3407SOL     OW13946   2.295   0.647   3.425
 3407SOL    HW213947   2.375   0.697   3.411
 3407SOL    HW313948   2.286   0.641   3.520
 3407SOL    MW413949   2.304   0.653   3.435
 3408SOL     OW13950   2.616   1.797   2.799
 3408SOL    HW213951   2.705   1.812   2.829
 3408SOL    HW313952   2.611   1.844   2.715
 3408SOL    MW413953   2.626   1.805   2.792
 3409SOL     OW13954   3.272   0.172   3.696
 3409SOL    HW213955   3.328   0.099   3.722
 3409SOL    HW313956   3.242   0.210   3.778
 3409SOL    MW413957   3.276   0.167   3.709
 3410SOL     OW13958   1.997   1.477   2.464
 3410SOL    HW213959   1.969   1.516   2.546
 3410SOL    HW313960   2.017   1.386   2.486
 3410SOL    MW413961   1.995   1.469   2.477
 3411SOL     OW13962   2.830   1.520   2.499
 3411SOL    HW213963   2.913   1.474   2.483
 3411SOL    HW313964   2.820   1.519   2.595
 3411SOL    MW413965   2.840   1.513   2.509
 3412SOL     OW13966   3.662   0.665   2.813
 3412SOL    HW213967   3.751   0.695   2.795
 3412SOL    HW313968   3.642   0.605   2.742
 3412SOL    MW413969   3.671   0.662   2.802
 3413SOL     OW13970   3.513   0.844   3.693
 3413SOL    HW213971   3.568   0.768   3.674
 3413SOL    HW313972   3.515   0.852   3.788
 3413SOL    MW413973   3.521   0.835   3.701
 3414SOL     OW13974   2.563   1.577   1.904
 3414SOL    HW213975   2.503   1.646   1.874
 3414SOL    HW313976   2.508   1.519   1.957
 3414SOL    MW413977   2.547   1.579   1.906
 3415SOL     OW13978   3.001   0.222   2.127
 3415SOL    HW213979   2.934   0.198   2.064
 3415SOL    HW313980   3.066   0.271   2.076
 3415SOL    MW413981   3.001   0.224   2.112
 3416SOL     OW13982   2.808   0.406   3.212
 3416SOL    HW213983   2.727   0.447   3.240
 3416SOL    HW313984   2.855   0.474   3.164
 3416SOL    MW413985   2.803   0.421   3.210
 3417SOL     OW13986   3.068   0.744   2.835
 3417SOL    HW213987   3.081   0.838   2.845
 3417SOL    HW313988   3.029   0.734   2.749
 3417SOL    MW413989   3.064   0.755   2.825
 3418SOL     OW13990   2.520   0.939   2.639
 3418SOL    HW213991   2.431   0.930   2.672
 3418SOL    HW313992   2.524   1.029   2.607
 3418SOL    MW413993   2.509   0.950   2.639
 3419SOL     OW13994   3.319   0.522   2.634
 3419SOL    HW213995   3.264   0.443   2.633
 3419SOL    HW313996   3.301   0.563   2.718
 3419SOL    MW413997   3.309   0.517   2.643
 3420SOL     OW13998   2.290   0.209   3.451
 3420SOL    HW213999   2.211   0.227   3.503
 3420SOL    HW314000   2.285   0.271   3.378
 3420SOL    MW414001   2.280   0.219   3.448
 3421SOL     OW14002   2.938   0.726   2.591
 3421SOL    HW214003   2.875   0.658   2.615
 3421SOL    HW314004   2.958   0.707   2.499
 3421SOL    MW414005   2.932   0.713   2.583
 3422SOL     OW14006   2.194   1.621   2.293
 3422SOL    HW214007   2.155   1.668   2.219
 3422SOL    HW314008   2.128   1.556   2.318
 3422SOL    MW414009   2.181   1.619   2.287
 3423SOL     OW14010   2.686   1.030   2.317
 3423SOL    HW214011   2.688   1.004   2.224
 3423SOL    HW314012   2.744   0.967   2.360
 3423SOL    MW414013   2.694   1.019   2.311
 3424SOL     OW14014   3.239   1.590   3.089
 3424SOL    HW214015   3.164   1.636   3.127
 3424SOL    HW314016   3.221   1.497   3.106
 3424SOL    MW414017   3.228   1.584   3.097
 3425SOL     OW14018   3.243   1.798   2.519
 3425SOL    HW214019   3.186   1.751   2.458
 3425SOL    HW314020   3.329   1.759   2.506
 3425SOL    MW414021   3.246   1.789   2.509
 3426SOL     OW14022   3.196   0.274   2.650
 3426SOL    HW214023   3.224   0.206   2.711
 3426SOL    HW314024   3.110   0.245   2.620
 3426SOL    MW414025   3.189   0.261   2.654
 3427SOL     OW14026   2.001   1.208   2.584
 3427SOL    HW214027   2.065   1.240   2.647
 3427SOL    HW314028   2.050   1.144   2.532
 3427SOL    MW414029   2.016   1.204   2.585
 3428SOL     OW14030   2.501   1.284   3.566
 3428SOL    HW214031   2.549   1.367   3.553
 3428SOL    HW314032   2.558   1.232   3.622
 3428SOL    MW414033   2.515   1.288   3.572
 3429SOL     OW14034   2.077   1.526   3.706
 3429SOL    HW214035   2.133   1.450   3.721
 3429SOL    HW314036   2.026   1.504   3.628
 3429SOL    MW414037   2.077   1.513   3.697
 3430SOL     OW14038   3.176   0.378   1.985
 3430SOL    HW214039   3.149   0.444   1.921
 3430SOL    HW314040   3.246   0.421   2.035
 3430SOL    MW414041   3.181   0.391   1.982
 3431SOL     OW14042   2.844   0.083   1.922
 3431SOL    HW214043   2.900   0.075   1.844
 3431SOL    HW314044   2.821  -0.007   1.944
 3431SOL    MW414045   2.849   0.070   1.915
 3432SOL     OW14046   3.349   0.934   2.127
 3432SOL    HW214047   3.316   1.023   2.117
 3432SOL    HW314048   3.314   0.905   2.212
 3432SOL    MW414049   3.339   0.943   2.138
 3433SOL     OW14050   2.962   1.363   3.315
 3433SOL    HW214051   2.873   1.369   3.283
 3433SOL    HW314052   3.006   1.442   3.283
 3433SOL    MW414053   2.957   1.373   3.307
 3434SOL     OW14054   2.255   0.031   3.657
 3434SOL    HW214055   2.183  -0.004   3.605
 3434SOL    HW314056   2.313   0.072   3.592
 3434SOL    MW414057   2.253   0.032   3.642
 3435SOL     OW14058   2.279   1.521   2.956
 3435SOL    HW214059   2.324   1.583   3.013
 3435SOL    HW314060   2.186   1.540   2.969
 3435SOL    MW414061   2.272   1.531   2.963
 3436SOL     OW14062   3.719   1.050   3.310
 3436SOL    HW214063   3.634   1.063   3.269
 3436SOL    HW314064   3.699   1.014   3.397
 3436SOL    MW414065   3.706   1.046   3.315
 3437SOL     OW14066   2.701   1.589   3.064
 3437SOL    HW214067   2.725   1.578   2.973
 3437SOL    HW314068   2.624   1.646   3.062
 3437SOL    MW414069   2.693   1.594   3.053
 3438SOL     OW14070   2.343   0.972   1.919
 3438SOL    HW214071   2.266   0.985   1.975
 3438SOL    HW314072   2.307   0.936   1.838
 3438SOL    MW414073   2.329   0.968   1.916
 3439SOL     OW14074   2.996   0.945   2.162
 3439SOL    HW214075   2.906   0.966   2.137
 3439SOL    HW314076   3.023   1.018   2.218
 3439SOL    MW414077   2.988   0.957   2.165
 3440SOL     OW14078   2.496   1.294   2.854
 3440SOL    HW214079   2.489   1.273   2.948
 3440SOL    HW314080   2.414   1.262   2.817
 3440SOL    MW414081   2.484   1.288   2.861
 3441SOL     OW14082   3.360   0.304   3.256
 3441SOL    HW214083   3.307   0.306   3.336
 3441SOL    HW314084   3.345   0.217   3.219
 3441SOL    MW414085   3.352   0.294   3.261
 3442SOL     OW14086   3.696   0.228   3.129
 3442SOL    HW214087   3.677   0.295   3.064
 3442SOL    HW314088   3.753   0.166   3.084
 3442SOL    MW414089   3.700   0.229   3.115
 3443SOL     OW14090   1.942   1.386   3.517
 3443SOL    HW214091   1.986   1.319   3.463
 3443SOL    HW314092   1.857   1.348   3.537
 3443SOL    MW414093   1.937   1.372   3.513
 3444SOL     OW14094   2.625   0.061   2.569
 3444SOL    HW214095   2.554   0.122   2.551
 3444SOL    HW314096   2.676   0.058   2.488
 3444SOL    MW414097   2.621   0.067   2.556
 3445SOL     OW14098   2.383   1.301   2.318
 3445SOL    HW214099   2.376   1.333   2.408
 3445SOL    HW314100   2.293   1.285   2.290
 3445SOL    MW414101   2.371   1.303   2.325
 3446SOL     OW14102   2.978   1.694   3.227
 3446SOL    HW214103   2.898   1.679   3.177
 3446SOL    HW314104   2.985   1.789   3.234
 3446SOL    MW414105   2.969   1.705   3.221
 3447SOL     OW14106   3.092   1.659   2.717
 3447SOL    HW214107   3.139   1.732   2.676
 3447SOL    HW314108   3.013   1.698   2.753
 3447SOL    MW414109   3.087   1.674   2.716
 3448SOL     OW14110   3.500   1.754   2.992
 3448SOL    HW214111   3.543   1.724   3.072
 3448SOL    HW314112   3.419   1.702   2.989
 3448SOL    MW414113   3.495   1.743   3.002
 3449SOL     OW14114   2.585   0.718   3.699
 3449SOL    HW214115   2.655   0.660   3.671
 3449SOL    HW314116   2.528   0.663   3.754
 3449SOL    MW414117   2.587   0.705   3.703
 3450SOL     OW14118   3.372   0.930   3.332
 3450SOL    HW214119   3.377   0.983   3.412
 3450SOL    HW314120   3.334   0.847   3.360
 3450SOL    MW414121   3.368   0.925   3.347
 3451SOL     OW14122   3.012   0.065   3.578
 3451SOL    HW214123   3.007  -0.028   3.559
 3451SOL    HW314124   3.095   0.076   3.624
 3451SOL    MW414125   3.020   0.054   3.582
 3452SOL     OW14126   2.386   0.585   2.032
 3452SOL    HW214127   2.352   0.641   2.102
 3452SOL    HW314128   2.457   0.535   2.072
 3452SOL    MW414129   2.392   0.586   2.046
 3453SOL     OW14130   3.482   1.336   2.854
 3453SOL    HW214131   3.517   1.318   2.767
 3453SOL    HW314132   3.387   1.337   2.841
 3453SOL    MW414133   3.474   1.333   2.841
 3454SOL     OW14134   2.911   0.984   3.223
 3454SOL    HW214135   2.954   1.019   3.301
 3454SOL    HW314136   2.894   1.061   3.169
 3454SOL    MW414137   2.914   0.999   3.226
 3455SOL     OW14138   3.442   0.471   2.096
 3455SOL    HW214139   3.434   0.542   2.033
 3455SOL    HW314140   3.460   0.515   2.179
 3455SOL    MW414141   3.443   0.485   2.098
 3456SOL     OW14142   2.302   0.126   2.525
 3456SOL    HW214143   2.352   0.169   2.456
 3456SOL    HW314144   2.217   0.170   2.525
 3456SOL    MW414145   2.299   0.139   2.516
 3457SOL     OW14146   2.061   1.188   3.385
 3457SOL    HW214147   2.089   1.141   3.463
 3457SOL    HW314148   1.982   1.143   3.356
 3457SOL    MW414149   2.054   1.177   3.391
 3458SOL     OW14150   2.569   0.515   3.352
 3458SOL    HW214151   2.541   0.603   3.376
 3458SOL    HW314152   2.538   0.459   3.423
 3458SOL    MW414153   2.561   0.518   3.364
 3459SOL     OW14154   3.111   0.733   2.071
 3459SOL    HW214155   3.158   0.751   1.990
 3459SOL    HW314156   3.077   0.817   2.099
 3459SOL    MW414157   3.113   0.747   2.064
 3460SOL     OW14158   2.224   0.911   2.565
 3460SOL    HW214159   2.282   0.967   2.513
 3460SOL    HW314160   2.268   0.826   2.567
 3460SOL    MW414161   2.237   0.908   2.558
 3461SOL     OW14162   3.364   0.263   2.402
 3461SOL    HW214163   3.286   0.213   2.427
 3461SOL    HW314164   3.335   0.354   2.402
 3461SOL    MW414165   3.350   0.267   2.405
 3462SOL     OW14166   2.950   0.225   2.561
 3462SOL    HW214167   2.970   0.300   2.505
 3462SOL    HW314168   2.930   0.264   2.646
 3462SOL    MW414169   2.951   0.241   2.565
 3463SOL     OW14170   2.846   1.475   1.893
 3463SOL    HW214171   2.873   1.553   1.845
 3463SOL    HW314172   2.753   1.490   1.912
 3463SOL    MW414173   2.837   1.488   1.889
 3464SOL     OW14174   3.710   0.998   3.580
 3464SOL    HW214175   3.623   0.978   3.616
 3464SOL    HW314176   3.764   0.924   3.605
 3464SOL    MW414177   3.705   0.987   3.588
 3465SOL     OW14178   1.931   1.511   2.737
 3465SOL    HW214179   1.963   1.515   2.828
 3465SOL    HW314180   1.836   1.519   2.745
 3465SOL    MW414181   1.923   1.514   2.750
 3466SOL     OW14182   1.886   0.637   2.284
 3466SOL    HW214183   1.826   0.609   2.354
 3466SOL    HW314184   1.960   0.577   2.290
 3466SOL    MW414185   1.888   0.626   2.293
 3467SOL     OW14186   3.454   1.849   3.718
 3467SOL    HW214187   3.499   1.773   3.683
 3467SOL    HW314188   3.492   1.862   3.805
 3467SOL    MW414189   3.464   1.842   3.724
 3468SOL     OW14190   3.054   1.368   2.444
 3468SOL    HW214191   3.077   1.319   2.522
 3468SOL    HW314192   3.135   1.410   2.416
 3468SOL    MW414193   3.067   1.368   2.451
 3469SOL     OW14194   2.312   0.376   3.173
 3469SOL    HW214195   2.345   0.457   3.213
 3469SOL    HW314196   2.285   0.402   3.085
 3469SOL    MW414197   2.311   0.390   3.167
 3470SOL     OW14198   2.266   0.343   2.909
 3470SOL    HW214199   2.296   0.257   2.880
 3470SOL    HW314200   2.171   0.336   2.912
 3470SOL    MW414201   2.258   0.332   2.907
 3471SOL     OW14202   3.095   0.552   3.600
 3471SOL    HW214203   3.147   0.487   3.553
 3471SOL    HW314204   3.053   0.603   3.530
 3471SOL    MW414205   3.096   0.549   3.583
 3472SOL     OW14206   3.194   0.347   3.461
 3472SOL    HW214207   3.101   0.331   3.448
 3472SOL    HW314208   3.220   0.285   3.529
 3472SOL    MW414209   3.184   0.337   3.468
 3473SOL     OW14210   2.409   0.121   2.800
 3473SOL    HW214211   2.419   0.030   2.826
 3473SOL    HW314212   2.365   0.117   2.715
 3473SOL    MW414213   2.405   0.109   2.792
 3474SOL     OW14214   2.503   1.736   3.346
 3474SOL    HW214215   2.420   1.721   3.391
 3474SOL    HW314216   2.562   1.669   3.381
 3474SOL    MW414217   2.501   1.726   3.356
 3475SOL     OW14218   3.560   0.443   2.971
 3475SOL    HW214219   3.493   0.476   3.031
 3475SOL    HW314220   3.603   0.521   2.937
 3475SOL    MW414221   3.558   0.458   2.975
 3476SOL     OW14222   3.738   1.163   2.941
 3476SOL    HW214223   3.731   1.103   2.866
 3476SOL    HW314224   3.664   1.223   2.930
 3476SOL    MW414225   3.728   1.163   2.930
 3477SOL     OW14226   3.120   1.025   2.859
 3477SOL    HW214227   3.134   0.997   2.950
 3477SOL    HW314228   3.206   1.056   2.831
 3477SOL    MW414229   3.133   1.026   2.868
 3478SOL     OW14230   3.203   0.520   3.138
 3478SOL    HW214231   3.224   0.521   3.045
 3478SOL    HW314232   3.248   0.442   3.171
 3478SOL    MW414233   3.210   0.510   3.130
 3479SOL     OW14234   3.696   0.651   3.680
 3479SOL    HW214235   3.733   0.596   3.749
 3479SOL    HW314236   3.721   0.608   3.598
 3479SOL    MW414237   3.703   0.639   3.679
 3480SOL     OW14238   3.243   0.949   3.731
 3480SOL    HW214239   3.309   0.897   3.685
 3480SOL    HW314240   3.263   0.936   3.824
 3480SOL    MW414241   3.254   0.940   3.738
 3481SOL     OW14242   3.194   0.035   2.080
 3481SOL    HW214243   3.268   0.079   2.123
 3481SOL    HW314244   3.118   0.089   2.102
 3481SOL    MW414245   3.194   0.047   2.088
 3482SOL     OW14246   3.254   0.810   2.358
 3482SOL    HW214247   3.169   0.780   2.328
 3482SOL    HW314248   3.246   0.817   2.453
 3482SOL    MW414249   3.242   0.808   2.367
 3483SOL     OW14250   2.330   1.273   3.089
 3483SOL    HW214251   2.342   1.300   3.180
 3483SOL    HW314252   2.311   1.354   3.042
 3483SOL    MW414253   2.329   1.288   3.094
 3484SOL     OW14254   2.614   0.253   2.912
 3484SOL    HW214255   2.587   0.255   3.003
 3484SOL    HW314256   2.544   0.205   2.867
 3484SOL    MW414257   2.602   0.249   2.919
 3485SOL     OW14258   2.468   1.745   3.074
 3485SOL    HW214259   2.520   1.822   3.051
 3485SOL    HW314260   2.477   1.737   3.169
 3485SOL    MW414261   2.477   1.752   3.085
 3486SOL     OW14262   3.370   1.330   3.306
 3486SOL    HW214263   3.355   1.259   3.369
 3486SOL    HW314264   3.416   1.288   3.234
 3486SOL    MW414265   3.376   1.314   3.306
 3487SOL     OW14266   2.444   1.061   3.423
 3487SOL    HW214267   2.481   1.066   3.335
 3487SOL    HW314268   2.483   1.134   3.470
 3487SOL    MW414269   2.454   1.071   3.418
 3488SOL     OW14270   2.624   1.104   3.235
 3488SOL    HW214271   2.683   1.050   3.288
 3488SOL    HW314272   2.639   1.076   3.145
 3488SOL    MW414273   2.634   1.093   3.231
 3489SOL     OW14274   2.627   0.476   2.084
 3489SOL    HW214275   2.700   0.525   2.047
 3489SOL    HW314276   2.643   0.385   2.058
 3489SOL    MW414277   2.639   0.471   2.077
 3490SOL     OW14278   3.435   1.593   3.407
 3490SOL    HW214279   3.477   1.578   3.492
 3490SOL    HW314280   3.426   1.506   3.369
 3490SOL    MW414281   3.439   1.581   3.414
 3491SOL     OW14282   3.095   0.072   2.998
 3491SOL    HW214283   3.150   0.081   2.920
 3491SOL    HW314284   3.150   0.106   3.069
 3491SOL    MW414285   3.109   0.077   2.997
 3492SOL     OW14286   2.102   0.985   2.182
 3492SOL    HW214287   2.039   1.001   2.111
 3492SOL    HW314288   2.049   0.948   2.253
 3492SOL    MW414289   2.087   0.982   2.182
 3493SOL     OW14290   2.458   1.339   2.041
 3493SOL    HW214291   2.473   1.315   2.133
 3493SOL    HW314292   2.366   1.317   2.025
 3493SOL    MW414293   2.448   1.332   2.051
 3494SOL     OW14294   2.997   1.570   2.193
 3494SOL    HW214295   3.005   1.488   2.144
 3494SOL    HW314296   2.916   1.609   2.160
 3494SOL    MW414297   2.987   1.565   2.183
 3495SOL     OW14298   2.256   1.728   2.762
 3495SOL    HW214299   2.260   1.639   2.797
 3495SOL    HW314300   2.282   1.719   2.671
 3495SOL    MW414301   2.259   1.716   2.754
 3496SOL     OW14302   1.962   1.481   3.256
 3496SOL    HW214303   1.952   1.439   3.342
 3496SOL    HW314304   1.883   1.534   3.246
 3496SOL    MW414305   1.951   1.482   3.267
 3497SOL     OW14306   2.866   0.345   2.826
 3497SOL    HW214307   2.796   0.297   2.871
 3497SOL    HW314308   2.898   0.408   2.890
 3497SOL    MW414309   2.861   0.347   2.840
 3498SOL     OW14310   2.517   0.781   3.446
 3498SOL    HW214311   2.510   0.876   3.434
 3498SOL    HW314312   2.526   0.770   3.541
 3498SOL    MW414313   2.518   0.793   3.456
 3499SOL     OW14314   2.238   1.296   3.704
 3499SOL    HW214315   2.310   1.298   3.641
 3499SOL    HW314316   2.208   1.205   3.703
 3499SOL    MW414317   2.243   1.285   3.696
 3500SOL     OW14318   3.322   0.059   3.171
 3500SOL    HW214319   3.393   0.005   3.135
 3500SOL    HW314320   3.321   0.038   3.264
 3500SOL    MW414321   3.331   0.050   3.179
 3501SOL     OW14322   3.522   1.589   3.655
 3501SOL    HW214323   3.495   1.586   3.746
 3501SOL    HW314324   3.618   1.593   3.658
 3501SOL    MW414325   3.532   1.589   3.667
 3502SOL     OW14326   2.333   0.451   2.639
 3502SOL    HW214327   2.404   0.399   2.602
 3502SOL    HW314328   2.319   0.416   2.726
 3502SOL    MW414329   2.341   0.440   2.646
 3503SOL     OW14330   1.888   1.786   3.711
 3503SOL    HW214331   1.938   1.764   3.633
 3503SOL    HW314332   1.896   1.881   3.719
 3503SOL    MW414333   1.896   1.795   3.702
 3504SOL     OW14334   2.649   1.544   2.715
 3504SOL    HW214335   2.577   1.481   2.728
 3504SOL    HW314336   2.610   1.629   2.733
 3504SOL    MW414337   2.633   1.547   2.718
 3505SOL     OW14338   2.969   0.392   2.363
 3505SOL    HW214339   2.991   0.329   2.295
 3505SOL    HW314340   2.874   0.384   2.374
 3505SOL    MW414341   2.959   0.383   2.355
 3506SOL     OW14342   2.054   0.082   2.295
 3506SOL    HW214343   2.125   0.103   2.234
 3506SOL    HW314344   2.008   0.010   2.253
 3506SOL    MW414345   2.058   0.076   2.281
 3507SOL     OW14346   1.885   0.549   3.438
 3507SOL    HW214347   1.949   0.615   3.413
 3507SOL    HW314348   1.804   0.576   3.395
 3507SOL    MW414349   1.883   0.561   3.430
 3508SOL     OW14350   3.623   1.456   2.395
 3508SOL    HW214351   3.593   1.389   2.456
 3508SOL    HW314352   3.717   1.462   2.409
 3508SOL    MW414353   3.631   1.448   2.405
 3509SOL     OW14354   3.179   1.133   2.325
 3509SOL    HW214355   3.151   1.219   2.358
 3509SOL    HW314356   3.207   1.149   2.235
 3509SOL    MW414357   3.179   1.147   2.317
 3510SOL     OW14358   2.841   0.053   2.378
 3510SOL    HW214359   2.878   0.112   2.443
 3510SOL    HW314360   2.818   0.109   2.304
 3510SOL    MW414361   2.842   0.068   2.377
 3511SOL     OW14362   3.694   0.935   2.800
 3511SOL    HW214363   3.685   0.967   2.711
 3511SOL    HW314364   3.647   0.851   2.800
 3511SOL    MW414365   3.687   0.928   2.790
 3512SOL     OW14366   2.070   0.775   3.379
 3512SOL    HW214367   2.091   0.844   3.317
 3512SOL    HW314368   2.150   0.722   3.384
 3512SOL    MW414369   2.083   0.776   3.373
 3513SOL     OW14370   3.606   0.866   2.501
 3513SOL    HW214371   3.700   0.855   2.489
 3513SOL    HW314372   3.582   0.938   2.442
 3513SOL    MW414373   3.616   0.874   2.492
 3514SOL     OW14374   2.055   0.790   3.646
 3514SOL    HW214375   1.981   0.734   3.672
 3514SOL    HW314376   2.050   0.793   3.551
 3514SOL    MW414377   2.044   0.783   3.636
 3515SOL     OW14378   2.221   0.077   3.096
 3515SOL    HW214379   2.264   0.161   3.116
 3515SOL    HW314380   2.294   0.015   3.089
 3515SOL    MW414381   2.236   0.080   3.097
 3516SOL     OW14382   2.262   0.744   2.274
 3516SOL    HW214383   2.262   0.839   2.259
 3516SOL    HW314384   2.339   0.728   2.328
 3516SOL    MW414385   2.272   0.755   2.279
 3517SOL     OW14386   3.038   0.603   3.338
 3517SOL    HW214387   3.074   0.576   3.254
 3517SOL    HW314388   2.951   0.637   3.317
 3517SOL    MW414389   3.032   0.604   3.325
 3518SOL     OW14390   2.021   0.475   2.563
 3518SOL    HW214391   2.083   0.482   2.636
 3518SOL    HW314392   2.021   0.382   2.540
 3518SOL    MW414393   2.029   0.464   2.570
 3519SOL     OW14394   3.568   1.815   2.095
 3519SOL    HW214395   3.635   1.848   2.035
 3519SOL    HW314396   3.525   1.894   2.129
 3519SOL    MW414397   3.570   1.830   2.091
 3520SOL     OW14398   2.703   0.736   3.047
 3520SOL    HW214399   2.661   0.654   3.023
 3520SOL    HW314400   2.704   0.735   3.143
 3520SOL    MW414401   2.696   0.725   3.056
 3521SOL     OW14402   3.374   1.869   3.446
 3521SOL    HW214403   3.377   1.775   3.429
 3521SOL    HW314404   3.397   1.877   3.538
 3521SOL    MW414405   3.377   1.857   3.456
 3522SOL     OW14406   2.507   0.206   3.152
 3522SOL    HW214407   2.438   0.269   3.173
 3522SOL    HW314408   2.534   0.170   3.237
 3522SOL    MW414409   2.501   0.209   3.165
 3523SOL     OW14410   1.890   1.047   2.021
 3523SOL    HW214411   1.859   1.112   2.084
 3523SOL    HW314412   1.839   0.969   2.040
 3523SOL    MW414413   1.880   1.044   2.031
 3524SOL     OW14414   3.302   0.059   2.769
 3524SOL    HW214415   3.390   0.068   2.806
 3524SOL    HW314416   3.312   0.000   2.695
 3524SOL    MW414417   3.316   0.053   2.763
 3525SOL     OW14418   3.334   0.798   2.613
 3525SOL    HW214419   3.414   0.813   2.562
 3525SOL    HW314420   3.327   0.703   2.619
 3525SOL    MW414421   3.343   0.787   2.608
 3526SOL     OW14422   2.474   1.847   1.963
 3526SOL    HW214423   2.379   1.847   1.955
 3526SOL    HW314424   2.490   1.793   2.041
 3526SOL    MW414425   2.464   1.841   1.972
 3527SOL     OW14426   2.784   0.724   3.310
 3527SOL    HW214427   2.853   0.791   3.307
 3527SOL    HW314428   2.717   0.762   3.366
 3527SOL    MW414429   2.785   0.737   3.317
 3528SOL     OW14430   2.202   1.024   3.558
 3528SOL    HW214431   2.156   0.940   3.560
 3528SOL    HW314432   2.259   1.018   3.482
 3528SOL    MW414433   2.204   1.012   3.550
 3529SOL     OW14434   3.319   0.667   1.879
 3529SOL    HW214435   3.247   0.643   1.821
 3529SOL    HW314436   3.385   0.704   1.821
 3529SOL    MW414437   3.318   0.669   1.864
 3530SOL     OW14438   2.453   1.399   2.559
 3530SOL    HW214439   2.518   1.332   2.580
 3530SOL    HW314440   2.505   1.476   2.536
 3530SOL    MW414441   2.468   1.401   2.558
 3531SOL     OW14442   2.714   0.564   2.689
 3531SOL    HW214443   2.654   0.582   2.761
 3531SOL    HW314444   2.748   0.476   2.708
 3531SOL    MW414445   2.710   0.554   2.702
 3532SOL     OW14446   3.655   0.063   3.358
 3532SOL    HW214447   3.576   0.109   3.386
 3532SOL    HW314448   3.690   0.117   3.287
 3532SOL    MW414449   3.649   0.076   3.352
 3533SOL     OW14450   2.939   1.147   2.708
 3533SOL    HW214451   3.031   1.128   2.726
 3533SOL    HW314452   2.912   1.077   2.648
 3533SOL    MW414453   2.947   1.135   2.702
 3534SOL     OW14454   2.732   0.967   2.063
 3534SOL    HW214455   2.718   0.879   2.028
 3534SOL    HW314456   2.683   1.024   2.004
 3534SOL    MW414457   2.724   0.962   2.051
 3535SOL     OW14458   3.213   1.385   2.804
 3535SOL    HW214459   3.186   1.469   2.769
 3535SOL    HW314460   3.173   1.380   2.891
 3535SOL    MW414461   3.206   1.394   2.810
 3536SOL     OW14462   3.132   1.333   3.072
 3536SOL    HW214463   3.143   1.300   3.161
 3536SOL    HW314464   3.051   1.292   3.041
 3536SOL    MW414465   3.122   1.325   3.078
 3537SOL     OW14466   2.145   0.691   2.842
 3537SOL    HW214467   2.095   0.690   2.923
 3537SOL    HW314468   2.165   0.783   2.826
 3537SOL    MW414469   2.141   0.703   2.850
 3538SOL     OW14470   3.212   1.455   3.604
 3538SOL    HW214471   3.212   1.549   3.620
 3538SOL    HW314472   3.257   1.445   3.520
 3538SOL    MW414473   3.218   1.465   3.595
 3539SOL     OW14474   3.451   0.173   2.165
 3539SOL    HW214475   3.444   0.177   2.260
 3539SOL    HW314476   3.463   0.264   2.138
 3539SOL    MW414477   3.452   0.186   2.173
 3540SOL     OW14478   2.740   0.736   2.279
 3540SOL    HW214479   2.720   0.722   2.186
 3540SOL    HW314480   2.833   0.715   2.286
 3540SOL    MW414481   2.750   0.731   2.268
 3541SOL     OW14482   2.067   0.359   3.583
 3541SOL    HW214483   2.024   0.418   3.520
 3541SOL    HW314484   2.135   0.414   3.623
 3541SOL    MW414485   2.071   0.374   3.580
 3542SOL     OW14486   3.179   0.979   3.128
 3542SOL    HW214487   3.242   0.976   3.201
 3542SOL    HW314488   3.095   0.997   3.170
 3542SOL    MW414489   3.175   0.981   3.143
 3543SOL     OW14490   2.723   1.694   2.317
 3543SOL    HW214491   2.781   1.765   2.344
 3543SOL    HW314492   2.746   1.622   2.375
 3543SOL    MW414493   2.734   1.694   2.328
 3544SOL     OW14494   3.518   0.156   2.907
 3544SOL    HW214495   3.563   0.074   2.926
 3544SOL    HW314496   3.538   0.212   2.983
 3544SOL    MW414497   3.528   0.152   2.919
 3545SOL     OW14498   1.966  -0.001   3.006
 3545SOL    HW214499   1.957   0.000   2.911
 3545SOL    HW314500   2.060   0.011   3.021
 3545SOL    MW414501   1.978   0.002   2.997
 3546SOL     OW14502   3.603   1.192   2.626
 3546SOL    HW214503   3.582   1.138   2.549
 3546SOL    HW314504   3.699   1.190   2.630
 3546SOL    MW414505   3.612   1.185   2.615
 3547SOL     OW14506   2.295   1.337   3.369
 3547SOL    HW214507   2.216   1.287   3.392
 3547SOL    HW314508   2.365   1.296   3.419
 3547SOL    MW414509   2.293   1.325   3.379
 3548SOL     OW14510   2.179   0.126   2.052
 3548SOL    HW214511   2.108   0.181   2.020
 3548SOL    HW314512   2.221   0.092   1.973
 3548SOL    MW414513   2.175   0.128   2.038
 3549SOL     OW14514   3.303   0.623   2.888
 3549SOL    HW214515   3.226   0.669   2.854
 3549SOL    HW314516   3.360   0.692   2.922
 3549SOL    MW414517   3.300   0.638   2.888
 3550SOL     OW14518   1.935   0.225   1.901
 3550SOL    HW214519   1.902   0.304   1.945
 3550SOL    HW314520   1.990   0.258   1.830
 3550SOL    MW414521   1.938   0.239   1.898
 3551SOL     OW14522   1.969   1.482   2.090
 3551SOL    HW214523   1.986   1.566   2.132
 3551SOL    HW314524   2.004   1.491   2.002
 3551SOL    MW414525   1.974   1.495   2.084
 3552SOL     OW14526   3.241   1.571   2.307
 3552SOL    HW214527   3.304   1.561   2.236
 3552SOL    HW314528   3.158   1.591   2.262
 3552SOL    MW414529   3.238   1.572   2.292
 3553SOL     OW14530   3.604   0.839   3.993
 3553SOL    HW214531   3.645   0.781   4.058
 3553SOL    HW314532   3.511   0.831   4.010
 3553SOL    MW414533   3.598   0.831   4.003
 3554SOL     OW14534   3.470   0.771   4.988
 3554SOL    HW214535   3.425   0.838   5.039
 3554SOL    HW314536   3.558   0.807   4.974
 3554SOL    MW414537   3.476   0.784   4.992
 3555SOL     OW14538   2.398   1.022   4.222
 3555SOL    HW214539   2.488   0.997   4.206
 3555SOL    HW314540   2.394   1.115   4.199
 3555SOL    MW414541   2.410   1.031   4.217
 3556SOL     OW14542   3.514   1.725   4.364
 3556SOL    HW214543   3.526   1.671   4.442
 3556SOL    HW314544   3.551   1.673   4.293
 3556SOL    MW414545   3.520   1.710   4.365
 3557SOL     OW14546   2.893   1.610   5.365
 3557SOL    HW214547   2.934   1.646   5.286
 3557SOL    HW314548   2.928   1.521   5.372
 3557SOL    MW414549   2.904   1.603   5.356
 3558SOL     OW14550   3.450   1.165   4.969
 3558SOL    HW214551   3.371   1.130   4.927
 3558SOL    HW314552   3.477   1.237   4.913
 3558SOL    MW414553   3.443   1.170   4.956
 3559SOL     OW14554   2.682   0.478   4.235
 3559SOL    HW214555   2.657   0.566   4.263
 3559SOL    HW314556   2.679   0.481   4.139
 3559SOL    MW414557   2.678   0.490   4.227
 3560SOL     OW14558   2.124   0.506   4.163
 3560SOL    HW214559   2.156   0.594   4.145
 3560SOL    HW314560   2.112   0.504   4.258
 3560SOL    MW414561   2.127   0.518   4.175
 3561SOL     OW14562   2.202   0.919   5.064
 3561SOL    HW214563   2.265   0.866   5.015
 3561SOL    HW314564   2.183   0.993   5.007
 3561SOL    MW414565   2.208   0.921   5.051
 3562SOL     OW14566   2.523   0.261   4.250
 3562SOL    HW214567   2.581   0.337   4.252
 3562SOL    HW314568   2.458   0.282   4.183
 3562SOL    MW414569   2.522   0.273   4.241
 3563SOL     OW14570   2.610   1.188   4.425
 3563SOL    HW214571   2.690   1.191   4.477
 3563SOL    HW314572   2.638   1.155   4.339
 3563SOL    MW414573   2.624   1.184   4.420
 3564SOL     OW14574   2.635   1.529   5.328
 3564SOL    HW214575   2.719   1.555   5.367
 3564SOL    HW314576   2.659   1.473   5.254
 3564SOL    MW414577   2.649   1.525   5.323
 3565SOL     OW14578   2.387   0.692   4.416
 3565SOL    HW214579   2.372   0.612   4.467
 3565SOL    HW314580   2.469   0.727   4.450
 3565SOL    MW414581   2.395   0.684   4.428
 3566SOL     OW14582   2.724   1.378   5.101
 3566SOL    HW214583   2.688   1.444   5.041
 3566SOL    HW314584   2.652   1.316   5.114
 3566SOL    MW414585   2.710   1.378   5.095
 3567SOL     OW14586   2.529   0.518   4.793
 3567SOL    HW214587   2.435   0.514   4.811
 3567SOL    HW314588   2.559   0.427   4.802
 3567SOL    MW414589   2.520   0.506   4.796
 3568SOL     OW14590   2.275   0.932   4.697
 3568SOL    HW214591   2.230   0.939   4.613
 3568SOL    HW314592   2.255   1.015   4.741
 3568SOL    MW414593   2.267   0.944   4.691
 3569SOL     OW14594   1.972   1.778   4.572
 3569SOL    HW214595   2.061   1.770   4.607
 3569SOL    HW314596   1.936   1.690   4.577
 3569SOL    MW414597   1.979   1.765   4.577
 3570SOL     OW14598   3.237   1.170   3.941
 3570SOL    HW214599   3.155   1.206   3.907
 3570SOL    HW314600   3.305   1.213   3.890
 3570SOL    MW414601   3.235   1.180   3.929
 3571SOL     OW14602   2.236   1.305   4.607
 3571SOL    HW214603   2.212   1.358   4.683
 3571SOL    HW314604   2.292   1.363   4.555
 3571SOL    MW414605   2.240   1.320   4.610
 3572SOL     OW14606   2.798   0.949   4.417
 3572SOL    HW214607   2.712   0.936   4.457
 3572SOL    HW314608   2.851   0.876   4.449
 3572SOL    MW414609   2.794   0.938   4.426
 3573SOL     OW14610   2.206   1.601   5.202
 3573SOL    HW214611   2.114   1.577   5.187
 3573SOL    HW314612   2.250   1.518   5.219
 3573SOL    MW414613   2.200   1.586   5.201
 3574SOL     OW14614   2.789   1.311   4.134
 3574SOL    HW214615   2.766   1.373   4.202
 3574SOL    HW314616   2.746   1.229   4.160
 3574SOL    MW414617   2.781   1.307   4.145
 3575SOL     OW14618   3.662   0.312   4.590
 3575SOL    HW214619   3.599   0.292   4.659
 3575SOL    HW314620   3.652   0.241   4.527
 3575SOL    MW414621   3.652   0.299   4.591
 3576SOL     OW14622   2.286   0.284   4.102
 3576SOL    HW214623   2.260   0.246   4.018
 3576SOL    HW314624   2.223   0.354   4.118
 3576SOL    MW414625   2.275   0.287   4.093
 3577SOL     OW14626   2.121   1.245   4.139
 3577SOL    HW214627   2.069   1.313   4.095
 3577SOL    HW314628   2.118   1.171   4.079
 3577SOL    MW414629   2.113   1.244   4.126
 3578SOL     OW14630   2.783   1.708   3.917
 3578SOL    HW214631   2.738   1.724   4.000
 3578SOL    HW314632   2.714   1.673   3.859
 3578SOL    MW414633   2.769   1.705   3.919
 3579SOL     OW14634   3.718   0.481   3.892
 3579SOL    HW214635   3.627   0.483   3.920
 3579SOL    HW314636   3.763   0.543   3.950
 3579SOL    MW414637   3.711   0.489   3.902
 3580SOL     OW14638   3.463   1.084   4.242
 3580SOL    HW214639   3.373   1.084   4.277
 3580SOL    HW314640   3.456   1.130   4.159
 3580SOL    MW414641   3.450   1.090   4.236
 3581SOL     OW14642   3.263   0.719   5.314
 3581SOL    HW214643   3.332   0.657   5.291
 3581SOL    HW314644   3.188   0.693   5.261
 3581SOL    MW414645   3.263   0.706   5.305
 3582SOL     OW14646   2.004   1.599   4.866
 3582SOL    HW214647   1.987   1.545   4.943
 3582SOL    HW314648   1.992   1.689   4.896
 3582SOL    MW414649   2.001   1.603   4.880
 3583SOL     OW14650   2.999   1.106   5.306
 3583SOL    HW214651   2.984   1.199   5.291
 3583SOL    HW314652   3.094   1.096   5.306
 3583SOL    MW414653   3.008   1.116   5.303
 3584SOL     OW14654   2.795   0.530   5.507
 3584SOL    HW214655   2.885   0.531   5.474
 3584SOL    HW314656   2.754   0.455   5.465
 3584SOL    MW414657   2.801   0.520   5.498
 3585SOL     OW14658   3.370   1.062   4.634
 3585SOL    HW214659   3.373   0.996   4.565
 3585SOL    HW314660   3.455   1.105   4.630
 3585SOL    MW414661   3.382   1.058   4.625
 3586SOL     OW14662   2.990   0.665   4.203
 3586SOL    HW214663   3.016   0.689   4.114
 3586SOL    HW314664   2.972   0.572   4.199
 3586SOL    MW414665   2.992   0.657   4.190
 3587SOL     OW14666   3.655   1.285   4.054
 3587SOL    HW214667   3.611   1.326   4.129
 3587SOL    HW314668   3.712   1.353   4.019
 3587SOL    MW414669   3.657   1.299   4.059
 3588SOL     OW14670   2.575   0.334   5.457
 3588SOL    HW214671   2.585   0.260   5.397
 3588SOL    HW314672   2.611   0.303   5.540
 3588SOL    MW414673   2.581   0.320   5.459
 3589SOL     OW14674   2.311   1.701   4.372
 3589SOL    HW214675   2.343   1.789   4.350
 3589SOL    HW314676   2.264   1.673   4.294
 3589SOL    MW414677   2.310   1.709   4.359
 3590SOL     OW14678   3.695   0.063   4.421
 3590SOL    HW214679   3.749   0.014   4.483
 3590SOL    HW314680   3.638  -0.003   4.382
 3590SOL    MW414681   3.695   0.047   4.423
 3591SOL     OW14682   2.027   1.761   3.949
 3591SOL    HW214683   2.056   1.851   3.941
 3591SOL    HW314684   1.977   1.744   3.870
 3591SOL    MW414685   2.025   1.769   3.938
 3592SOL     OW14686   2.814   0.016   4.834
 3592SOL    HW214687   2.773   0.094   4.796
 3592SOL    HW314688   2.908   0.034   4.829
 3592SOL    MW414689   2.820   0.028   4.829
 3593SOL     OW14690   3.431   1.569   3.920
 3593SOL    HW214691   3.479   1.638   3.966
 3593SOL    HW314692   3.352   1.613   3.889
 3593SOL    MW414693   3.426   1.583   3.923
 3594SOL     OW14694   2.829   0.694   3.864
 3594SOL    HW214695   2.831   0.641   3.785
 3594SOL    HW314696   2.917   0.731   3.870
 3594SOL    MW414697   2.841   0.693   3.853
 3595SOL     OW14698   3.443   0.620   4.200
 3595SOL    HW214699   3.482   0.620   4.287
 3595SOL    HW314700   3.384   0.696   4.200
 3595SOL    MW414701   3.440   0.631   4.211
 3596SOL     OW14702   2.760   0.987   5.329
 3596SOL    HW214703   2.737   0.967   5.419
 3596SOL    HW314704   2.845   1.031   5.334
 3596SOL    MW414705   2.767   0.990   5.341
 3597SOL     OW14706   2.840   0.124   5.089
 3597SOL    HW214707   2.846   0.086   5.002
 3597SOL    HW314708   2.829   0.218   5.074
 3597SOL    MW414709   2.841   0.132   5.077
 3598SOL     OW14710   2.929   0.613   4.923
 3598SOL    HW214711   3.004   0.642   4.870
 3598SOL    HW314712   2.861   0.678   4.907
 3598SOL    MW414713   2.930   0.625   4.913
 3599SOL     OW14714   3.479   0.581   5.200
 3599SOL    HW214715   3.460   0.490   5.179
 3599SOL    HW314716   3.457   0.630   5.121
 3599SOL    MW414717   3.474   0.574   5.187
 3600SOL     OW14718   3.621   1.675   5.104
 3600SOL    HW214719   3.549   1.637   5.155
 3600SOL    HW314720   3.638   1.760   5.145
 3600SOL    MW414721   3.615   1.680   5.116
 3601SOL     OW14722   2.926   0.319   5.306
 3601SOL    HW214723   2.892   0.358   5.225
 3601SOL    HW314724   2.904   0.227   5.299
 3601SOL    MW414725   2.919   0.312   5.296
 3602SOL     OW14726   3.335   1.133   5.382
 3602SOL    HW214727   3.417   1.174   5.412
 3602SOL    HW314728   3.298   1.095   5.462
 3602SOL    MW414729   3.341   1.134   5.397
 3603SOL     OW14730   3.630   0.506   4.366
 3603SOL    HW214731   3.719   0.475   4.383
 3603SOL    HW314732   3.573   0.446   4.414
 3603SOL    MW414733   3.633   0.494   4.375
 3604SOL     OW14734   2.056   0.220   4.395
 3604SOL    HW214735   2.047   0.160   4.321
 3604SOL    HW314736   1.989   0.191   4.458
 3604SOL    MW414737   2.046   0.207   4.393
 3605SOL     OW14738   2.999   1.313   3.956
 3605SOL    HW214739   2.949   1.315   4.038
 3605SOL    HW314740   2.933   1.331   3.888
 3605SOL    MW414741   2.985   1.315   3.958
 3606SOL     OW14742   2.003   0.393   4.758
 3606SOL    HW214743   1.975   0.484   4.767
 3606SOL    HW314744   1.940   0.354   4.697
 3606SOL    MW414745   1.990   0.399   4.752
 3607SOL     OW14746   2.462   1.731   4.064
 3607SOL    HW214747   2.383   1.689   4.097
 3607SOL    HW314748   2.528   1.714   4.131
 3607SOL    MW414749   2.461   1.723   4.077
 3608SOL     OW14750   3.590   1.251   5.461
 3608SOL    HW214751   3.640   1.177   5.493
 3608SOL    HW314752   3.536   1.278   5.536
 3608SOL    MW414753   3.590   1.245   5.474
 3609SOL     OW14754   2.598   1.146   3.771
 3609SOL    HW214755   2.520   1.092   3.758
 3609SOL    HW314756   2.569   1.219   3.824
 3609SOL    MW414757   2.584   1.148   3.776
 3610SOL     OW14758   3.724   0.886   4.963
 3610SOL    HW214759   3.740   0.924   4.876
 3610SOL    HW314760   3.758   0.952   5.024
 3610SOL    MW414761   3.731   0.899   4.959
 3611SOL     OW14762   3.516   1.595   4.632
 3611SOL    HW214763   3.545   1.662   4.693
 3611SOL    HW314764   3.497   1.519   4.687
 3611SOL    MW414765   3.518   1.595   4.647
 3612SOL     OW14766   3.179   1.662   3.839
 3612SOL    HW214767   3.105   1.625   3.889
 3612SOL    HW314768   3.187   1.752   3.872
 3612SOL    MW414769   3.170   1.669   3.851
 3613SOL     OW14770   1.987   0.668   4.928
 3613SOL    HW214771   2.049   0.698   4.994
 3613SOL    HW314772   1.921   0.737   4.922
 3613SOL    MW414773   1.986   0.681   4.935
 3614SOL     OW14774   3.403   1.336   3.781
 3614SOL    HW214775   3.350   1.385   3.717
 3614SOL    HW314776   3.434   1.402   3.842
 3614SOL    MW414777   3.401   1.350   3.779
 3615SOL     OW14778   2.628   0.225   3.836
 3615SOL    HW214779   2.576   0.145   3.824
 3615SOL    HW314780   2.715   0.202   3.804
 3615SOL    MW414781   2.631   0.211   3.830
 3616SOL     OW14782   2.082   1.777   5.380
 3616SOL    HW214783   2.056   1.845   5.318
 3616SOL    HW314784   2.130   1.714   5.328
 3616SOL    MW414785   2.084   1.777   5.366
 3617SOL     OW14786   2.134   1.096   4.887
 3617SOL    HW214787   2.187   1.171   4.912
 3617SOL    HW314788   2.053   1.134   4.853
 3617SOL    MW414789   2.130   1.111   4.887
 3618SOL     OW14790   1.989   0.865   4.293
 3618SOL    HW214791   2.080   0.880   4.320
 3618SOL    HW314792   1.992   0.786   4.239
 3618SOL    MW414793   2.001   0.857   4.291
 3619SOL     OW14794   2.225   0.573   5.547
 3619SOL    HW214795   2.172   0.653   5.554
 3619SOL    HW314796   2.295   0.585   5.612
 3619SOL    MW414797   2.227   0.586   5.555
 3620SOL     OW14798   2.611   0.123   5.254
 3620SOL    HW214799   2.588   0.031   5.256
 3620SOL    HW314800   2.697   0.125   5.211
 3620SOL    MW414801   2.618   0.113   5.250
 3621SOL     OW14802   2.295   0.647   5.293
 3621SOL    HW214803   2.375   0.697   5.279
 3621SOL    HW314804   2.286   0.641   5.388
 3621SOL    MW414805   2.304   0.653   5.303
 3622SOL     OW14806   2.616   1.797   4.667
 3622SOL    HW214807   2.705   1.812   4.697
 3622SOL    HW314808   2.611   1.844   4.583
 3622SOL    MW414809   2.626   1.805   4.660
 3623SOL     OW14810   3.272   0.172   5.564
 3623SOL    HW214811   3.328   0.099   5.590
 3623SOL    HW314812   3.242   0.210   5.646
 3623SOL    MW414813   3.276   0.167   5.577
 3624SOL     OW14814   1.997   1.477   4.332
 3624SOL    HW214815   1.969   1.516   4.414
 3624SOL    HW314816   2.017   1.386   4.354
 3624SOL    MW414817   1.995   1.469   4.345
 3625SOL     OW14818   2.830   1.520   4.367
 3625SOL    HW214819   2.913   1.474   4.351
 3625SOL    HW314820   2.820   1.519   4.463
 3625SOL    MW414821   2.840   1.513   4.377
 3626SOL     OW14822   3.662   0.665   4.681
 3626SOL    HW214823   3.751   0.695   4.663
 3626SOL    HW314824   3.642   0.605   4.610
 3626SOL    MW414825   3.671   0.662   4.670
 3627SOL     OW14826   3.513   0.844   5.561
 3627SOL    HW214827   3.568   0.768   5.542
 3627SOL    HW314828   3.515   0.852   5.656
 3627SOL    MW414829   3.521   0.835   5.569
 3628SOL     OW14830   2.563   1.577   3.772
 3628SOL    HW214831   2.503   1.646   3.742
 3628SOL    HW314832   2.508   1.519   3.825
 3628SOL    MW414833   2.547   1.579   3.774
 3629SOL     OW14834   3.001   0.222   3.995
 3629SOL    HW214835   2.934   0.198   3.932
 3629SOL    HW314836   3.066   0.271   3.944
 3629SOL    MW414837   3.001   0.224   3.980
 3630SOL     OW14838   2.808   0.406   5.080
 3630SOL    HW214839   2.727   0.447   5.108
 3630SOL    HW314840   2.855   0.474   5.032
 3630SOL    MW414841   2.803   0.421   5.078
 3631SOL     OW14842   3.068   0.744   4.703
 3631SOL    HW214843   3.081   0.838   4.713
 3631SOL    HW314844   3.029   0.734   4.617
 3631SOL    MW414845   3.064   0.755   4.693
 3632SOL     OW14846   2.520   0.939   4.507
 3632SOL    HW214847   2.431   0.930   4.540
 3632SOL    HW314848   2.524   1.029   4.475
 3632SOL    MW414849   2.509   0.950   4.507
 3633SOL     OW14850   3.319   0.522   4.502
 3633SOL    HW214851   3.264   0.443   4.501
 3633SOL    HW314852   3.301   0.563   4.586
 3633SOL    MW414853   3.309   0.517   4.511
 3634SOL     OW14854   2.290   0.209   5.319
 3634SOL    HW214855   2.211   0.227   5.371
 3634SOL    HW314856   2.285   0.271   5.246
 3634SOL    MW414857   2.280   0.219   5.316
 3635SOL     OW14858   2.938   0.726   4.459
 3635SOL    HW214859   2.875   0.658   4.483
 3635SOL    HW314860   2.958   0.707   4.367
 3635SOL    MW414861   2.932   0.713   4.451
 3636SOL     OW14862   2.194   1.621   4.161
 3636SOL    HW214863   2.155   1.668   4.087
 3636SOL    HW314864   2.128   1.556   4.186
 3636SOL    MW414865   2.181   1.619   4.155
 3637SOL     OW14866   2.686   1.030   4.185
 3637SOL    HW214867   2.688   1.004   4.092
 3637SOL    HW314868   2.744   0.967   4.228
 3637SOL    MW414869   2.694   1.019   4.179
 3638SOL     OW14870   3.239   1.590   4.957
 3638SOL    HW214871   3.164   1.636   4.995
 3638SOL    HW314872   3.221   1.497   4.974
 3638SOL    MW414873   3.228   1.584   4.965
 3639SOL     OW14874   3.243   1.798   4.387
 3639SOL    HW214875   3.186   1.751   4.326
 3639SOL    HW314876   3.329   1.759   4.374
 3639SOL    MW414877   3.246   1.789   4.377
 3640SOL     OW14878   3.196   0.274   4.518
 3640SOL    HW214879   3.224   0.206   4.579
 3640SOL    HW314880   3.110   0.245   4.488
 3640SOL    MW414881   3.189   0.261   4.522
 3641SOL     OW14882   2.001   1.208   4.452
 3641SOL    HW214883   2.065   1.240   4.515
 3641SOL    HW314884   2.050   1.144   4.400
 3641SOL    MW414885   2.016   1.204   4.453
 3642SOL     OW14886   2.501   1.284   5.434
 3642SOL    HW214887   2.549   1.367   5.421
 3642SOL    HW314888   2.558   1.232   5.490
 3642SOL    MW414889   2.515   1.288   5.440
 3643SOL     OW14890   2.077   1.526   5.574
 3643SOL    HW214891   2.133   1.450   5.589
 3643SOL    HW314892   2.026   1.504   5.496
 3643SOL    MW414893   2.077   1.513   5.565
 3644SOL     OW14894   3.176   0.378   3.853
 3644SOL    HW214895   3.149   0.444   3.789
 3644SOL    HW314896   3.246   0.421   3.903
 3644SOL    MW414897   3.181   0.391   3.850
 3645SOL     OW14898   2.844   0.083   3.790
 3645SOL    HW214899   2.900   0.075   3.712
 3645SOL    HW314900   2.821  -0.007   3.812
 3645SOL    MW414901   2.849   0.070   3.783
 3646SOL     OW14902   3.349   0.934   3.995
 3646SOL    HW214903   3.316   1.023   3.985
 3646SOL    HW314904   3.314   0.905   4.080
 3646SOL    MW414905   3.339   0.943   4.006
 3647SOL     OW14906   2.962   1.363   5.183
 3647SOL    HW214907   2.873   1.369   5.151
 3647SOL    HW314908   3.006   1.442   5.151
 3647SOL    MW414909   2.957   1.373   5.175
 3648SOL     OW14910   2.255   0.031   5.525
 3648SOL    HW214911   2.183  -0.004   5.473
 3648SOL    HW314912   2.313   0.072   5.460
 3648SOL    MW414913   2.253   0.032   5.510
 3649SOL     OW14914   2.279   1.521   4.824
 3649SOL    HW214915   2.324   1.583   4.881
 3649SOL    HW314916   2.186   1.540   4.837
 3649SOL    MW414917   2.272   1.531   4.831
 3650SOL     OW14918   3.719   1.050   5.178
 3650SOL    HW214919   3.634   1.063   5.137
 3650SOL    HW314920   3.699   1.014   5.265
 3650SOL    MW414921   3.706   1.046   5.183
 3651SOL     OW14922   2.701   1.589   4.932
 3651SOL    HW214923   2.725   1.578   4.841
 3651SOL    HW314924   2.624   1.646   4.930
 3651SOL    MW414925   2.693   1.594   4.921
 3652SOL     OW14926   2.343   0.972   3.787
 3652SOL    HW214927   2.266   0.985   3.843
 3652SOL    HW314928   2.307   0.936   3.706
 3652SOL    MW414929   2.329   0.968   3.784
 3653SOL     OW14930   2.996   0.945   4.030
 3653SOL    HW214931   2.906   0.966   4.005
 3653SOL    HW314932   3.023   1.018   4.086
 3653SOL    MW414933   2.988   0.957   4.033
 3654SOL     OW14934   2.496   1.294   4.722
 3654SOL    HW214935   2.489   1.273   4.816
 3654SOL    HW314936   2.414   1.262   4.685
 3654SOL    MW414937   2.484   1.288   4.729
 3655SOL     OW14938   3.360   0.304   5.124
 3655SOL    HW214939   3.307   0.306   5.204
 3655SOL    HW314940   3.345   0.217   5.087
 3655SOL    MW414941   3.352   0.294   5.129
 3656SOL     OW14942   3.696   0.228   4.997
 3656SOL    HW214943   3.677   0.295   4.932
 3656SOL    HW314944   3.753   0.166   4.952
 3656SOL    MW414945   3.700   0.229   4.983
 3657SOL     OW14946   1.942   1.386   5.385
 3657SOL    HW214947   1.986   1.319   5.331
 3657SOL    HW314948   1.857   1.348   5.405
 3657SOL    MW414949   1.937   1.372   5.381
 3658SOL     OW14950   2.625   0.061   4.437
 3658SOL    HW214951   2.554   0.122   4.419
 3658SOL    HW314952   2.676   0.058   4.356
 3658SOL    MW414953   2.621   0.067   4.424
 3659SOL     OW14954   2.383   1.301   4.186
 3659SOL    HW214955   2.376   1.333   4.276
 3659SOL    HW314956   2.293   1.285   4.158
 3659SOL    MW414957   2.371   1.303   4.193
 3660SOL     OW14958   2.978   1.694   5.095
 3660SOL    HW214959   2.898   1.679   5.045
 3660SOL    HW314960   2.985   1.789   5.102
 3660SOL    MW414961   2.969   1.705   5.089
 3661SOL     OW14962   3.092   1.659   4.585
 3661SOL    HW214963   3.139   1.732   4.544
 3661SOL    HW314964   3.013   1.698   4.621
 3661SOL    MW414965   3.087   1.674   4.584
 3662SOL     OW14966   3.500   1.754   4.860
 3662SOL    HW214967   3.543   1.724   4.940
 3662SOL    HW314968   3.419   1.702   4.857
 3662SOL    MW414969   3.495   1.743   4.870
 3663SOL     OW14970   2.585   0.718   5.567
 3663SOL    HW214971   2.655   0.660   5.539
 3663SOL    HW314972   2.528   0.663   5.622
 3663SOL    MW414973   2.587   0.705   5.571
 3664SOL     OW14974   3.372   0.930   5.200
 3664SOL    HW214975   3.377   0.983   5.280
 3664SOL    HW314976   3.334   0.847   5.228
 3664SOL    MW414977   3.368   0.925   5.215
 3665SOL     OW14978   3.012   0.065   5.446
 3665SOL    HW214979   3.007  -0.028   5.427
 3665SOL    HW314980   3.095   0.076   5.492
 3665SOL    MW414981   3.020   0.054   5.450
 3666SOL     OW14982   2.386   0.585   3.900
 3666SOL    HW214983   2.352   0.641   3.970
 3666SOL    HW314984   2.457   0.535   3.940
 3666SOL    MW414985   2.392   0.586   3.914
 3667SOL     OW14986   3.482   1.336   4.722
 3667SOL    HW214987   3.517   1.318   4.635
 3667SOL    HW314988   3.387   1.337   4.709
 3667SOL    MW414989   3.474   1.333   4.709
 3668SOL     OW14990   2.911   0.984   5.091
 3668SOL    HW214991   2.954   1.019   5.169
 3668SOL    HW314992   2.894   1.061   5.037
 3668SOL    MW414993   2.914   0.999   5.094
 3669SOL     OW14994   3.442   0.471   3.964
 3669SOL    HW214995   3.434   0.542   3.901
 3669SOL    HW314996   3.460   0.515   4.047
 3669SOL    MW414997   3.443   0.485   3.966
 3670SOL     OW14998   2.302   0.126   4.393
 3670SOL    HW214999   2.352   0.169   4.324
 3670SOL    HW315000   2.217   0.170   4.393
 3670SOL    MW415001   2.299   0.139   4.384
 3671SOL     OW15002   2.061   1.188   5.253
 3671SOL    HW215003   2.089   1.141   5.331
 3671SOL    HW315004   1.982   1.143   5.224
 3671SOL    MW415005   2.054   1.177   5.259
 3672SOL     OW15006   2.569   0.515   5.220
 3672SOL    HW215007   2.541   0.603   5.244
 3672SOL    HW315008   2.538   0.459   5.291
 3672SOL    MW415009   2.561   0.518   5.232
 3673SOL     OW15010   3.111   0.733   3.939
 3673SOL    HW215011   3.158   0.751   3.858
 3673SOL    HW315012   3.077   0.817   3.967
 3673SOL    MW415013   3.113   0.747   3.932
 3674SOL     OW15014   2.224   0.911   4.433
 3674SOL    HW215015   2.282   0.967   4.381
 3674SOL    HW315016   2.268   0.826   4.435
 3674SOL    MW415017   2.237   0.908   4.426
 3675SOL     OW15018   3.364   0.263   4.270
 3675SOL    HW215019   3.286   0.213   4.295
 3675SOL    HW315020   3.335   0.354   4.270
 3675SOL    MW415021   3.350   0.267   4.273
 3676SOL     OW15022   2.950   0.225   4.429
 3676SOL    HW215023   2.970   0.300   4.373
 3676SOL    HW315024   2.930   0.264   4.514
 3676SOL    MW415025   2.951   0.241   4.433
 3677SOL     OW15026   2.846   1.475   3.761
 3677SOL    HW215027   2.873   1.553   3.713
 3677SOL    HW315028   2.753   1.490   3.780
 3677SOL    MW415029   2.837   1.488   3.757
 3678SOL     OW15030   3.710   0.998   5.448
 3678SOL    HW215031   3.623   0.978   5.484
 3678SOL    HW315032   3.764   0.924   5.473
 3678SOL    MW415033   3.705   0.987   5.456
 3679SOL     OW15034   1.931   1.511   4.605
 3679SOL    HW215035   1.963   1.515   4.696
 3679SOL    HW315036   1.836   1.519   4.613
 3679SOL    MW415037   1.923   1.514   4.618
 3680SOL     OW15038   1.886   0.637   4.152
 3680SOL    HW215039   1.826   0.609   4.222
 3680SOL    HW315040   1.960   0.577   4.158
 3680SOL    MW415041   1.888   0.626   4.161
 3681SOL     OW15042   3.454   1.849   5.586
 3681SOL    HW215043   3.499   1.773   5.551
 3681SOL    HW315044   3.492   1.862   5.673
 3681SOL    MW415045   3.464   1.842   5.592
 3682SOL     OW15046   3.054   1.368   4.312
 3682SOL    HW215047   3.077   1.319   4.390
 3682SOL    HW315048   3.135   1.410   4.284
 3682SOL    MW415049   3.067   1.368   4.319
 3683SOL     OW15050   2.312   0.376   5.041
 3683SOL    HW215051   2.345   0.457   5.081
 3683SOL    HW315052   2.285   0.402   4.953
 3683SOL    MW415053   2.311   0.390   5.035
 3684SOL     OW15054   2.266   0.343   4.777
 3684SOL    HW215055   2.296   0.257   4.748
 3684SOL    HW315056   2.171   0.336   4.780
 3684SOL    MW415057   2.258   0.332   4.775
 3685SOL     OW15058   3.095   0.552   5.468
 3685SOL    HW215059   3.147   0.487   5.421
 3685SOL    HW315060   3.053   0.603   5.398
 3685SOL    MW415061   3.096   0.549   5.451
 3686SOL     OW15062   3.194   0.347   5.329
 3686SOL    HW215063   3.101   0.331   5.316
 3686SOL    HW315064   3.220   0.285   5.397
 3686SOL    MW415065   3.184   0.337   5.336
 3687SOL     OW15066   2.409   0.121   4.668
 3687SOL    HW215067   2.419   0.030   4.694
 3687SOL    HW315068   2.365   0.117   4.583
 3687SOL    MW415069   2.405   0.109   4.660
 3688SOL     OW15070   2.503   1.736   5.214
 3688SOL    HW215071   2.420   1.721   5.259
 3688SOL    HW315072   2.562   1.669   5.249
 3688SOL    MW415073   2.501   1.726   5.224
 3689SOL     OW15074   3.560   0.443   4.839
 3689SOL    HW215075   3.493   0.476   4.899
 3689SOL    HW315076   3.603   0.521   4.805
 3689SOL    MW415077   3.558   0.458   4.843
 3690SOL     OW15078   3.738   1.163   4.809
 3690SOL    HW215079   3.731   1.103   4.734
 3690SOL    HW315080   3.664   1.223   4.798
 3690SOL    MW415081   3.728   1.163   4.798
 3691SOL     OW15082   3.120   1.025   4.727
 3691SOL    HW215083   3.134   0.997   4.818
 3691SOL    HW315084   3.206   1.056   4.699
 3691SOL    MW415085   3.133   1.026   4.736
 3692SOL     OW15086   3.203   0.520   5.006
 3692SOL    HW215087   3.224   0.521   4.913
 3692SOL    HW315088   3.248   0.442   5.039
 3692SOL    MW415089   3.210   0.510   4.998
 3693SOL     OW15090   3.696   0.651   5.548
 3693SOL    HW215091   3.733   0.596   5.617
 3693SOL    HW315092   3.721   0.608   5.466
 3693SOL    MW415093   3.703   0.639   5.547
 3694SOL     OW15094   3.243   0.949   5.600
 3694SOL    HW215095   3.309   0.897   5.554
 3694SOL    HW315096   3.263   0.936   5.693
 3694SOL    MW415097   3.254   0.940   5.607
 3695SOL     OW15098   3.194   0.035   3.948
 3695SOL    HW215099   3.268   0.079   3.991
 3695SOL    HW315100   3.118   0.089   3.970
 3695SOL    MW415101   3.194   0.047   3.956
 3696SOL     OW15102   3.254   0.810   4.226
 3696SOL    HW215103   3.169   0.780   4.196
 3696SOL    HW315104   3.246   0.817   4.321
 3696SOL    MW415105   3.242   0.808   4.235
 3697SOL     OW15106   2.330   1.273   4.957
 3697SOL    HW215107   2.342   1.300   5.048
 3697SOL    HW315108   2.311   1.354   4.910
 3697SOL    MW415109   2.329   1.288   4.962
 3698SOL     OW15110   2.614   0.253   4.780
 3698SOL    HW215111   2.587   0.255   4.871
 3698SOL    HW315112   2.544   0.205   4.735
 3698SOL    MW415113   2.602   0.249   4.787
 3699SOL     OW15114   2.468   1.745   4.942
 3699SOL    HW215115   2.520   1.822   4.919
 3699SOL    HW315116   2.477   1.737   5.037
 3699SOL    MW415117   2.477   1.752   4.953
 3700SOL     OW15118   3.370   1.330   5.174
 3700SOL    HW215119   3.355   1.259   5.237
 3700SOL    HW315120   3.416   1.288   5.102
 3700SOL    MW415121   3.376   1.314   5.174
 3701SOL     OW15122   2.444   1.061   5.291
 3701SOL    HW215123   2.481   1.066   5.203
 3701SOL    HW315124   2.483   1.134   5.338
 3701SOL    MW415125   2.454   1.071   5.286
 3702SOL     OW15126   2.624   1.104   5.103
 3702SOL    HW215127   2.683   1.050   5.156
 3702SOL    HW315128   2.639   1.076   5.013
 3702SOL    MW415129   2.634   1.093   5.099
 3703SOL     OW15130   2.627   0.476   3.952
 3703SOL    HW215131   2.700   0.525   3.915
 3703SOL    HW315132   2.643   0.385   3.926
 3703SOL    MW415133   2.639   0.471   3.945
 3704SOL     OW15134   3.435   1.593   5.275
 3704SOL    HW215135   3.477   1.578   5.360
 3704SOL    HW315136   3.426   1.506   5.237
 3704SOL    MW415137   3.439   1.581   5.282
 3705SOL     OW15138   3.095   0.072   4.866
 3705SOL    HW215139   3.150   0.081   4.788
 3705SOL    HW315140   3.150   0.106   4.937
 3705SOL    MW415141   3.109   0.077   4.865
 3706SOL     OW15142   2.102   0.985   4.050
 3706SOL    HW215143   2.039   1.001   3.979
 3706SOL    HW315144   2.049   0.948   4.121
 3706SOL    MW415145   2.087   0.982   4.050
 3707SOL     OW15146   2.458   1.339   3.909
 3707SOL    HW215147   2.473   1.315   4.001
 3707SOL    HW315148   2.366   1.317   3.893
 3707SOL    MW415149   2.448   1.332   3.919
 3708SOL     OW15150   2.997   1.570   4.061
 3708SOL    HW215151   3.005   1.488   4.012
 3708SOL    HW315152   2.916   1.609   4.028
 3708SOL    MW415153   2.987   1.565   4.051
 3709SOL     OW15154   2.256   1.728   4.630
 3709SOL    HW215155   2.260   1.639   4.665
 3709SOL    HW315156   2.282   1.719   4.539
 3709SOL    MW415157   2.259   1.716   4.622
 3710SOL     OW15158   2.873   1.206   4.873
 3710SOL    HW215159   2.805   1.140   4.889
 3710SOL    HW315160   2.891   1.200   4.780
 3710SOL    MW415161   2.866   1.197   4.864
 3711SOL     OW15162   1.962   1.481   5.124
 3711SOL    HW215163   1.952   1.439   5.210
 3711SOL    HW315164   1.883   1.534   5.114
 3711SOL    MW415165   1.951   1.482   5.135
 3712SOL     OW15166   2.866   0.345   4.694
 3712SOL    HW215167   2.796   0.297   4.739
 3712SOL    HW315168   2.898   0.408   4.758
 3712SOL    MW415169   2.861   0.347   4.708
 3713SOL     OW15170   2.517   0.781   5.314
 3713SOL    HW215171   2.510   0.876   5.302
 3713SOL    HW315172   2.526   0.770   5.409
 3713SOL    MW415173   2.518   0.793   5.324
 3714SOL     OW15174   2.238   1.296   5.572
 3714SOL    HW215175   2.310   1.298   5.509
 3714SOL    HW315176   2.208   1.205   5.571
 3714SOL    MW415177   2.243   1.285   5.564
 3715SOL     OW15178   3.322   0.059   5.039
 3715SOL    HW215179   3.393   0.005   5.003
 3715SOL    HW315180   3.321   0.038   5.132
 3715SOL    MW415181   3.331   0.050   5.047
 3716SOL     OW15182   3.522   1.589   5.523
 3716SOL    HW215183   3.495   1.586   5.614
 3716SOL    HW315184   3.618   1.593   5.526
 3716SOL    MW415185   3.532   1.589   5.535
 3717SOL     OW15186   2.333   0.451   4.507
 3717SOL    HW215187   2.404   0.399   4.470
 3717SOL    HW315188   2.319   0.416   4.594
 3717SOL    MW415189   2.341   0.440   4.514
 3718SOL     OW15190   1.888   1.786   5.579
 3718SOL    HW215191   1.938   1.764   5.501
 3718SOL    HW315192   1.896   1.881   5.587
 3718SOL    MW415193   1.896   1.795   5.570
 3719SOL     OW15194   2.649   1.544   4.583
 3719SOL    HW215195   2.577   1.481   4.596
 3719SOL    HW315196   2.610   1.629   4.601
 3719SOL    MW415197   2.633   1.547   4.586
 3720SOL     OW15198   2.969   0.392   4.231
 3720SOL    HW215199   2.991   0.329   4.163
 3720SOL    HW315200   2.874   0.384   4.242
 3720SOL    MW415201   2.959   0.383   4.223
 3721SOL     OW15202   2.054   0.082   4.163
 3721SOL    HW215203   2.125   0.103   4.102
 3721SOL    HW315204   2.008   0.010   4.121
 3721SOL    MW415205   2.058   0.076   4.149
 3722SOL     OW15206   1.885   0.549   5.306
 3722SOL    HW215207   1.949   0.615   5.281
 3722SOL    HW315208   1.804   0.576   5.263
 3722SOL    MW415209   1.883   0.561   5.298
 3723SOL     OW15210   3.623   1.456   4.263
 3723SOL    HW215211   3.593   1.389   4.324
 3723SOL    HW315212   3.717   1.462   4.277
 3723SOL    MW415213   3.631   1.448   4.273
 3724SOL     OW15214   3.179   1.133   4.193
 3724SOL    HW215215   3.151   1.219   4.226
 3724SOL    HW315216   3.207   1.149   4.103
 3724SOL    MW415217   3.179   1.147   4.185
 3725SOL     OW15218   3.694   0.935   4.668
 3725SOL    HW215219   3.685   0.967   4.579
 3725SOL    HW315220   3.647   0.851   4.668
 3725SOL    MW415221   3.687   0.928   4.658
 3726SOL     OW15222   2.070   0.775   5.247
 3726SOL    HW215223   2.091   0.844   5.185
 3726SOL    HW315224   2.150   0.722   5.252
 3726SOL    MW415225   2.083   0.776   5.241
 3727SOL     OW15226   3.606   0.866   4.369
 3727SOL    HW215227   3.700   0.855   4.357
 3727SOL    HW315228   3.582   0.938   4.310
 3727SOL    MW415229   3.616   0.874   4.360
 3728SOL     OW15230   2.055   0.790   5.514
 3728SOL    HW215231   1.981   0.734   5.540
 3728SOL    HW315232   2.050   0.793   5.419
 3728SOL    MW415233   2.044   0.783   5.504
 3729SOL     OW15234   2.221   0.077   4.964
 3729SOL    HW215235   2.264   0.161   4.984
 3729SOL    HW315236   2.294   0.015   4.957
 3729SOL    MW415237   2.236   0.080   4.965
 3730SOL     OW15238   2.262   0.744   4.142
 3730SOL    HW215239   2.262   0.839   4.127
 3730SOL    HW315240   2.339   0.728   4.196
 3730SOL    MW415241   2.272   0.755   4.147
 3731SOL     OW15242   3.038   0.603   5.206
 3731SOL    HW215243   3.074   0.576   5.122
 3731SOL    HW315244   2.951   0.637   5.185
 3731SOL    MW415245   3.032   0.604   5.193
 3732SOL     OW15246   2.021   0.475   4.431
 3732SOL    HW215247   2.083   0.482   4.504
 3732SOL    HW315248   2.021   0.382   4.408
 3732SOL    MW415249   2.029   0.464   4.438
 3733SOL     OW15250   3.568   1.815   3.963
 3733SOL    HW215251   3.635   1.848   3.903
 3733SOL    HW315252   3.525   1.894   3.997
 3733SOL    MW415253   3.570   1.830   3.959
 3734SOL     OW15254   2.703   0.736   4.915
 3734SOL    HW215255   2.661   0.654   4.891
 3734SOL    HW315256   2.704   0.735   5.011
 3734SOL    MW415257   2.696   0.725   4.924
 3735SOL     OW15258   3.374   1.869   5.314
 3735SOL    HW215259   3.377   1.775   5.297
 3735SOL    HW315260   3.397   1.877   5.406
 3735SOL    MW415261   3.377   1.857   5.324
 3736SOL     OW15262   2.507   0.206   5.020
 3736SOL    HW215263   2.438   0.269   5.041
 3736SOL    HW315264   2.534   0.170   5.105
 3736SOL    MW415265   2.501   0.209   5.033
 3737SOL     OW15266   1.890   1.047   3.889
 3737SOL    HW215267   1.859   1.112   3.952
 3737SOL    HW315268   1.839   0.969   3.908
 3737SOL    MW415269   1.880   1.044   3.899
 3738SOL     OW15270   3.302   0.059   4.637
 3738SOL    HW215271   3.390   0.068   4.674
 3738SOL    HW315272   3.312   0.000   4.563
 3738SOL    MW415273   3.316   0.053   4.631
 3739SOL     OW15274   3.334   0.798   4.481
 3739SOL    HW215275   3.414   0.813   4.430
 3739SOL    HW315276   3.327   0.703   4.487
 3739SOL    MW415277   3.343   0.787   4.476
 3740SOL     OW15278   2.474   1.847   3.831
 3740SOL    HW215279   2.379   1.847   3.823
 3740SOL    HW315280   2.490   1.793   3.909
 3740SOL    MW415281   2.464   1.841   3.840
 3741SOL     OW15282   2.784   0.724   5.178
 3741SOL    HW215283   2.853   0.791   5.175
 3741SOL    HW315284   2.717   0.762   5.234
 3741SOL    MW415285   2.785   0.737   5.185
 3742SOL     OW15286   2.202   1.024   5.426
 3742SOL    HW215287   2.156   0.940   5.428
 3742SOL    HW315288   2.259   1.018   5.350
 3742SOL    MW415289   2.204   1.012   5.418
 3743SOL     OW15290   3.319   0.667   3.747
 3743SOL    HW215291   3.247   0.643   3.689
 3743SOL    HW315292   3.385   0.704   3.689
 3743SOL    MW415293   3.318   0.669   3.732
 3744SOL     OW15294   2.453   1.399   4.427
 3744SOL    HW215295   2.518   1.332   4.448
 3744SOL    HW315296   2.505   1.476   4.404
 3744SOL    MW415297   2.468   1.401   4.426
 3745SOL     OW15298   2.714   0.564   4.557
 3745SOL    HW215299   2.654   0.582   4.629
 3745SOL    HW315300   2.748   0.476   4.576
 3745SOL    MW415301   2.710   0.554   4.570
 3746SOL     OW15302   3.655   0.063   5.226
 3746SOL    HW215303   3.576   0.109   5.254
 3746SOL    HW315304   3.690   0.117   5.155
 3746SOL    MW415305   3.649   0.076   5.220
 3747SOL     OW15306   2.939   1.147   4.576
 3747SOL    HW215307   3.031   1.128   4.594
 3747SOL    HW315308   2.912   1.077   4.516
 3747SOL    MW415309   2.947   1.135   4.570
 3748SOL     OW15310   2.732   0.967   3.931
 3748SOL    HW215311   2.718   0.879   3.896
 3748SOL    HW315312   2.683   1.024   3.872
 3748SOL    MW415313   2.724   0.962   3.919
 3749SOL     OW15314   3.213   1.385   4.672
 3749SOL    HW215315   3.186   1.469   4.637
 3749SOL    HW315316   3.173   1.380   4.759
 3749SOL    MW415317   3.206   1.394   4.678
 3750SOL     OW15318   3.132   1.333   4.940
 3750SOL    HW215319   3.143   1.300   5.029
 3750SOL    HW315320   3.051   1.292   4.909
 3750SOL    MW415321   3.122   1.325   4.946
 3751SOL     OW15322   2.145   0.691   4.710
 3751SOL    HW215323   2.095   0.690   4.791
 3751SOL    HW315324   2.165   0.783   4.694
 3751SOL    MW415325   2.141   0.703   4.718
 3752SOL     OW15326   3.212   1.455   5.472
 3752SOL    HW215327   3.212   1.549   5.488
 3752SOL    HW315328   3.257   1.445   5.388
 3752SOL    MW415329   3.218   1.465   5.463
 3753SOL     OW15330   3.451   0.173   4.033
 3753SOL    HW215331   3.444   0.177   4.128
 3753SOL    HW315332   3.463   0.264   4.006
 3753SOL    MW415333   3.452   0.186   4.041
 3754SOL     OW15334   2.740   0.736   4.147
 3754SOL    HW215335   2.720   0.722   4.054
 3754SOL    HW315336   2.833   0.715   4.154
 3754SOL    MW415337   2.750   0.731   4.136
 3755SOL     OW15338   2.067   0.359   5.451
 3755SOL    HW215339   2.024   0.418   5.388
 3755SOL    HW315340   2.135   0.414   5.491
 3755SOL    MW415341   2.071   0.374   5.448
 3756SOL     OW15342   3.179   0.979   4.996
 3756SOL    HW215343   3.242   0.976   5.069
 3756SOL    HW315344   3.095   0.997   5.038
 3756SOL    MW415345   3.175   0.981   5.011
 3757SOL     OW15346   2.723   1.694   4.185
 3757SOL    HW215347   2.781   1.765   4.212
 3757SOL    HW315348   2.746   1.622   4.243
 3757SOL    MW415349   2.734   1.694   4.196
 3758SOL     OW15350   3.518   0.156   4.775
 3758SOL    HW215351   3.563   0.074   4.794
 3758SOL    HW315352   3.538   0.212   4.851
 3758SOL    MW415353   3.528   0.152   4.787
 3759SOL     OW15354   1.966  -0.001   4.874
 3759SOL    HW215355   1.957   0.000   4.779
 3759SOL    HW315356   2.060   0.011   4.889
 3759SOL    MW415357   1.978   0.002   4.865
 3760SOL     OW15358   3.603   1.192   4.494
 3760SOL    HW215359   3.582   1.138   4.417
 3760SOL    HW315360   3.699   1.190   4.498
 3760SOL    MW415361   3.612   1.185   4.483
 3761SOL     OW15362   2.295   1.337   5.237
 3761SOL    HW215363   2.216   1.287   5.260
 3761SOL    HW315364   2.365   1.296   5.287
 3761SOL    MW415365   2.293   1.325   5.247
 3762SOL     OW15366   2.179   0.126   3.920
 3762SOL    HW215367   2.108   0.181   3.888
 3762SOL    HW315368   2.221   0.092   3.841
 3762SOL    MW415369   2.175   0.128   3.906
 3763SOL     OW15370   3.303   0.623   4.756
 3763SOL    HW215371   3.226   0.669   4.722
 3763SOL    HW315372   3.360   0.692   4.790
 3763SOL    MW415373   3.300   0.638   4.756
 3764SOL     OW15374   1.935   0.225   3.769
 3764SOL    HW215375   1.902   0.304   3.813
 3764SOL    HW315376   1.990   0.258   3.698
 3764SOL    MW415377   1.938   0.239   3.766
 3765SOL     OW15378   1.969   1.482   3.958
 3765SOL    HW215379   1.986   1.566   4.000
 3765SOL    HW315380   2.004   1.491   3.870
 3765SOL    MW415381   1.974   1.495   3.952
 3766SOL     OW15382   3.241   1.571   4.175
 3766SOL    HW215383   3.304   1.561   4.104
 3766SOL    HW315384   3.158   1.591   4.130
 3766SOL    MW415385   3.238   1.572   4.160
 3767SOL     OW15386   3.604   0.839   5.862
 3767SOL    HW215387   3.645   0.781   5.927
 3767SOL    HW315388   3.511   0.831   5.879
 3767SOL    MW415389   3.598   0.831   5.872
 3768SOL     OW15390   2.398   1.022   6.091
 3768SOL    HW215391   2.488   0.997   6.075
 3768SOL    HW315392   2.394   1.115   6.068
 3768SOL    MW415393   2.410   1.031   6.086
 3769SOL     OW15394   3.514   1.725   6.233
 3769SOL    HW215395   3.526   1.671   6.311
 3769SOL    HW315396   3.551   1.673   6.162
 3769SOL    MW415397   3.520   1.710   6.234
 3770SOL     OW15398   2.682   0.478   6.104
 3770SOL    HW215399   2.657   0.566   6.132
 3770SOL    HW315400   2.679   0.481   6.008
 3770SOL    MW415401   2.678   0.490   6.096
 3771SOL     OW15402   2.124   0.506   6.032
 3771SOL    HW215403   2.156   0.594   6.014
 3771SOL    HW315404   2.112   0.504   6.127
 3771SOL    MW415405   2.127   0.518   6.044
 3772SOL     OW15406   2.523   0.261   6.119
 3772SOL    HW215407   2.581   0.337   6.121
 3772SOL    HW315408   2.458   0.282   6.052
 3772SOL    MW415409   2.522   0.273   6.110
 3773SOL     OW15410   2.610   1.188   6.294
 3773SOL    HW215411   2.690   1.191   6.346
 3773SOL    HW315412   2.638   1.155   6.208
 3773SOL    MW415413   2.624   1.184   6.289
 3774SOL     OW15414   2.387   0.692   6.285
 3774SOL    HW215415   2.372   0.612   6.336
 3774SOL    HW315416   2.469   0.727   6.319
 3774SOL    MW415417   2.395   0.684   6.297
 3775SOL     OW15418   2.529   0.518   6.662
 3775SOL    HW215419   2.435   0.514   6.680
 3775SOL    HW315420   2.559   0.427   6.671
 3775SOL    MW415421   2.520   0.506   6.665
 3776SOL     OW15422   2.275   0.932   6.566
 3776SOL    HW215423   2.230   0.939   6.482
 3776SOL    HW315424   2.255   1.015   6.610
 3776SOL    MW415425   2.267   0.944   6.560
 3777SOL     OW15426   1.972   1.778   6.441
 3777SOL    HW215427   2.061   1.770   6.476
 3777SOL    HW315428   1.936   1.690   6.446
 3777SOL    MW415429   1.979   1.765   6.446
 3778SOL     OW15430   3.237   1.170   5.810
 3778SOL    HW215431   3.155   1.206   5.776
 3778SOL    HW315432   3.305   1.213   5.759
 3778SOL    MW415433   3.235   1.180   5.798
 3779SOL     OW15434   2.236   1.305   6.476
 3779SOL    HW215435   2.212   1.358   6.552
 3779SOL    HW315436   2.292   1.363   6.424
 3779SOL    MW415437   2.240   1.320   6.479
 3780SOL     OW15438   2.798   0.949   6.286
 3780SOL    HW215439   2.712   0.936   6.326
 3780SOL    HW315440   2.851   0.876   6.318
 3780SOL    MW415441   2.794   0.938   6.295
 3781SOL     OW15442   2.789   1.311   6.003
 3781SOL    HW215443   2.766   1.373   6.071
 3781SOL    HW315444   2.746   1.229   6.029
 3781SOL    MW415445   2.781   1.307   6.014
 3782SOL     OW15446   3.662   0.312   6.459
 3782SOL    HW215447   3.599   0.292   6.528
 3782SOL    HW315448   3.652   0.241   6.396
 3782SOL    MW415449   3.652   0.299   6.460
 3783SOL     OW15450   2.286   0.284   5.971
 3783SOL    HW215451   2.260   0.246   5.887
 3783SOL    HW315452   2.223   0.354   5.987
 3783SOL    MW415453   2.275   0.287   5.962
 3784SOL     OW15454   2.121   1.245   6.008
 3784SOL    HW215455   2.069   1.313   5.964
 3784SOL    HW315456   2.118   1.171   5.948
 3784SOL    MW415457   2.113   1.244   5.995
 3785SOL     OW15458   2.783   1.708   5.786
 3785SOL    HW215459   2.738   1.724   5.869
 3785SOL    HW315460   2.714   1.673   5.728
 3785SOL    MW415461   2.769   1.705   5.788
 3786SOL     OW15462   3.718   0.481   5.761
 3786SOL    HW215463   3.627   0.483   5.789
 3786SOL    HW315464   3.763   0.543   5.819
 3786SOL    MW415465   3.711   0.489   5.771
 3787SOL     OW15466   3.463   1.084   6.111
 3787SOL    HW215467   3.373   1.084   6.146
 3787SOL    HW315468   3.456   1.130   6.028
 3787SOL    MW415469   3.450   1.090   6.105
 3788SOL     OW15470   2.004   1.599   6.735
 3788SOL    HW215471   1.987   1.545   6.812
 3788SOL    HW315472   1.992   1.689   6.765
 3788SOL    MW415473   2.001   1.603   6.749
 3789SOL     OW15474   2.990   0.665   6.072
 3789SOL    HW215475   3.016   0.689   5.983
 3789SOL    HW315476   2.972   0.572   6.068
 3789SOL    MW415477   2.992   0.657   6.059
 3790SOL     OW15478   3.655   1.285   5.923
 3790SOL    HW215479   3.611   1.326   5.998
 3790SOL    HW315480   3.712   1.353   5.888
 3790SOL    MW415481   3.657   1.299   5.928
 3791SOL     OW15482   2.311   1.701   6.241
 3791SOL    HW215483   2.343   1.789   6.219
 3791SOL    HW315484   2.264   1.673   6.163
 3791SOL    MW415485   2.310   1.709   6.228
 3792SOL     OW15486   3.695   0.063   6.290
 3792SOL    HW215487   3.749   0.014   6.352
 3792SOL    HW315488   3.638  -0.003   6.251
 3792SOL    MW415489   3.695   0.047   6.292
 3793SOL     OW15490   2.027   1.761   5.818
 3793SOL    HW215491   2.056   1.851   5.810
 3793SOL    HW315492   1.977   1.744   5.739
 3793SOL    MW415493   2.025   1.769   5.807
 3794SOL     OW15494   3.431   1.569   5.789
 3794SOL    HW215495   3.479   1.638   5.835
 3794SOL    HW315496   3.352   1.613   5.758
 3794SOL    MW415497   3.426   1.583   5.792
 3795SOL     OW15498   2.829   0.694   5.733
 3795SOL    HW215499   2.831   0.641   5.654
 3795SOL    HW315500   2.917   0.731   5.739
 3795SOL    MW415501   2.841   0.693   5.722
 3796SOL     OW15502   3.443   0.620   6.069
 3796SOL    HW215503   3.482   0.620   6.156
 3796SOL    HW315504   3.384   0.696   6.069
 3796SOL    MW415505   3.440   0.631   6.080
 3797SOL     OW15506   3.630   0.506   6.235
 3797SOL    HW215507   3.719   0.475   6.252
 3797SOL    HW315508   3.573   0.446   6.283
 3797SOL    MW415509   3.633   0.494   6.244
 3798SOL     OW15510   2.056   0.220   6.264
 3798SOL    HW215511   2.047   0.160   6.190
 3798SOL    HW315512   1.989   0.191   6.327
 3798SOL    MW415513   2.046   0.207   6.262
 3799SOL     OW15514   2.999   1.313   5.825
 3799SOL    HW215515   2.949   1.315   5.907
 3799SOL    HW315516   2.933   1.331   5.757
 3799SOL    MW415517   2.985   1.315   5.827
 3800SOL     OW15518   2.003   0.393   6.627
 3800SOL    HW215519   1.975   0.484   6.636
 3800SOL    HW315520   1.940   0.354   6.566
 3800SOL    MW415521   1.990   0.399   6.621
 3801SOL     OW15522   2.462   1.731   5.933
 3801SOL    HW215523   2.383   1.689   5.966
 3801SOL    HW315524   2.528   1.714   6.000
 3801SOL    MW415525   2.461   1.723   5.946
 3802SOL     OW15526   2.598   1.146   5.640
 3802SOL    HW215527   2.520   1.092   5.627
 3802SOL    HW315528   2.569   1.219   5.693
 3802SOL    MW415529   2.584   1.148   5.645
 3803SOL     OW15530   3.179   1.662   5.708
 3803SOL    HW215531   3.105   1.625   5.758
 3803SOL    HW315532   3.187   1.752   5.741
 3803SOL    MW415533   3.170   1.669   5.720
 3804SOL     OW15534   3.403   1.336   5.650
 3804SOL    HW215535   3.350   1.385   5.586
 3804SOL    HW315536   3.434   1.402   5.711
 3804SOL    MW415537   3.401   1.350   5.648
 3805SOL     OW15538   2.628   0.225   5.705
 3805SOL    HW215539   2.576   0.145   5.693
 3805SOL    HW315540   2.715   0.202   5.673
 3805SOL    MW415541   2.631   0.211   5.699
 3806SOL     OW15542   2.134   1.096   6.756
 3806SOL    HW215543   2.187   1.171   6.781
 3806SOL    HW315544   2.053   1.134   6.722
 3806SOL    MW415545   2.130   1.111   6.756
 3807SOL     OW15546   1.989   0.865   6.162
 3807SOL    HW215547   2.080   0.880   6.189
 3807SOL    HW315548   1.992   0.786   6.108
 3807SOL    MW415549   2.001   0.857   6.160
 3808SOL     OW15550   2.616   1.797   6.536
 3808SOL    HW215551   2.705   1.812   6.566
 3808SOL    HW315552   2.611   1.844   6.452
 3808SOL    MW415553   2.626   1.805   6.529
 3809SOL     OW15554   1.997   1.477   6.201
 3809SOL    HW215555   1.969   1.516   6.283
 3809SOL    HW315556   2.017   1.386   6.223
 3809SOL    MW415557   1.995   1.469   6.214
 3810SOL     OW15558   2.830   1.520   6.236
 3810SOL    HW215559   2.913   1.474   6.220
 3810SOL    HW315560   2.820   1.519   6.332
 3810SOL    MW415561   2.840   1.513   6.246
 3811SOL     OW15562   2.563   1.577   5.641
 3811SOL    HW215563   2.503   1.646   5.611
 3811SOL    HW315564   2.508   1.519   5.694
 3811SOL    MW415565   2.547   1.579   5.643
 3812SOL     OW15566   3.001   0.222   5.864
 3812SOL    HW215567   2.934   0.198   5.801
 3812SOL    HW315568   3.066   0.271   5.813
 3812SOL    MW415569   3.001   0.224   5.849
 3813SOL     OW15570   2.520   0.939   6.376
 3813SOL    HW215571   2.431   0.930   6.409
 3813SOL    HW315572   2.524   1.029   6.344
 3813SOL    MW415573   2.509   0.950   6.376
 3814SOL     OW15574   3.319   0.522   6.371
 3814SOL    HW215575   3.264   0.443   6.370
 3814SOL    HW315576   3.301   0.563   6.455
 3814SOL    MW415577   3.309   0.517   6.380
 3815SOL     OW15578   2.938   0.726   6.328
 3815SOL    HW215579   2.875   0.658   6.352
 3815SOL    HW315580   2.958   0.707   6.236
 3815SOL    MW415581   2.932   0.713   6.320
 3816SOL     OW15582   2.194   1.621   6.030
 3816SOL    HW215583   2.155   1.668   5.956
 3816SOL    HW315584   2.128   1.556   6.055
 3816SOL    MW415585   2.181   1.619   6.024
 3817SOL     OW15586   2.686   1.030   6.054
 3817SOL    HW215587   2.688   1.004   5.961
 3817SOL    HW315588   2.744   0.967   6.097
 3817SOL    MW415589   2.694   1.019   6.048
 3818SOL     OW15590   3.243   1.798   6.256
 3818SOL    HW215591   3.186   1.751   6.195
 3818SOL    HW315592   3.329   1.759   6.243
 3818SOL    MW415593   3.246   1.789   6.246
 3819SOL     OW15594   3.196   0.274   6.387
 3819SOL    HW215595   3.224   0.206   6.448
 3819SOL    HW315596   3.110   0.245   6.357
 3819SOL    MW415597   3.189   0.261   6.391
 3820SOL     OW15598   2.001   1.208   6.321
 3820SOL    HW215599   2.065   1.240   6.384
 3820SOL    HW315600   2.050   1.144   6.269
 3820SOL    MW415601   2.016   1.204   6.322
 3821SOL     OW15602   3.176   0.378   5.722
 3821SOL    HW215603   3.149   0.444   5.658
 3821SOL    HW315604   3.246   0.421   5.772
 3821SOL    MW415605   3.181   0.391   5.719
 3822SOL     OW15606   2.844   0.083   5.659
 3822SOL    HW215607   2.900   0.075   5.581
 3822SOL    HW315608   2.821  -0.007   5.681
 3822SOL    MW415609   2.849   0.070   5.652
 3823SOL     OW15610   3.349   0.934   5.864
 3823SOL    HW215611   3.316   1.023   5.854
 3823SOL    HW315612   3.314   0.905   5.949
 3823SOL    MW415613   3.339   0.943   5.875
 3824SOL     OW15614   2.279   1.521   6.693
 3824SOL    HW215615   2.324   1.583   6.750
 3824SOL    HW315616   2.186   1.540   6.706
 3824SOL    MW415617   2.272   1.531   6.700
 3825SOL     OW15618   2.343   0.972   5.656
 3825SOL    HW215619   2.266   0.985   5.712
 3825SOL    HW315620   2.307   0.936   5.575
 3825SOL    MW415621   2.329   0.968   5.653
 3826SOL     OW15622   2.996   0.945   5.899
 3826SOL    HW215623   2.906   0.966   5.874
 3826SOL    HW315624   3.023   1.018   5.955
 3826SOL    MW415625   2.988   0.957   5.902
 3827SOL     OW15626   2.496   1.294   6.591
 3827SOL    HW215627   2.489   1.273   6.685
 3827SOL    HW315628   2.414   1.262   6.554
 3827SOL    MW415629   2.484   1.288   6.598
 3828SOL     OW15630   2.625   0.061   6.306
 3828SOL    HW215631   2.554   0.122   6.288
 3828SOL    HW315632   2.676   0.058   6.225
 3828SOL    MW415633   2.621   0.067   6.293
 3829SOL     OW15634   2.383   1.301   6.055
 3829SOL    HW215635   2.376   1.333   6.145
 3829SOL    HW315636   2.293   1.285   6.027
 3829SOL    MW415637   2.371   1.303   6.062
 3830SOL     OW15638   3.092   1.659   6.454
 3830SOL    HW215639   3.139   1.732   6.413
 3830SOL    HW315640   3.013   1.698   6.490
 3830SOL    MW415641   3.087   1.674   6.453
 3831SOL     OW15642   2.386   0.585   5.769
 3831SOL    HW215643   2.352   0.641   5.839
 3831SOL    HW315644   2.457   0.535   5.809
 3831SOL    MW415645   2.392   0.586   5.783
 3832SOL     OW15646   3.442   0.471   5.833
 3832SOL    HW215647   3.434   0.542   5.770
 3832SOL    HW315648   3.460   0.515   5.916
 3832SOL    MW415649   3.443   0.485   5.835
 3833SOL     OW15650   2.302   0.126   6.262
 3833SOL    HW215651   2.352   0.169   6.193
 3833SOL    HW315652   2.217   0.170   6.262
 3833SOL    MW415653   2.299   0.139   6.253
 3834SOL     OW15654   3.111   0.733   5.808
 3834SOL    HW215655   3.158   0.751   5.727
 3834SOL    HW315656   3.077   0.817   5.836
 3834SOL    MW415657   3.113   0.747   5.801
 3835SOL     OW15658   2.224   0.911   6.302
 3835SOL    HW215659   2.282   0.967   6.250
 3835SOL    HW315660   2.268   0.826   6.304
 3835SOL    MW415661   2.237   0.908   6.295
 3836SOL     OW15662   3.364   0.263   6.139
 3836SOL    HW215663   3.286   0.213   6.164
 3836SOL    HW315664   3.335   0.354   6.139
 3836SOL    MW415665   3.350   0.267   6.142
 3837SOL     OW15666   2.950   0.225   6.298
 3837SOL    HW215667   2.970   0.300   6.242
 3837SOL    HW315668   2.930   0.264   6.383
 3837SOL    MW415669   2.951   0.241   6.302
 3838SOL     OW15670   1.931   1.511   6.474
 3838SOL    HW215671   1.963   1.515   6.565
 3838SOL    HW315672   1.836   1.519   6.482
 3838SOL    MW415673   1.923   1.514   6.487
 3839SOL     OW15674   1.886   0.637   6.021
 3839SOL    HW215675   1.826   0.609   6.091
 3839SOL    HW315676   1.960   0.577   6.027
 3839SOL    MW415677   1.888   0.626   6.030
 3840SOL     OW15678   3.054   1.368   6.181
 3840SOL    HW215679   3.077   1.319   6.259
 3840SOL    HW315680   3.135   1.410   6.153
 3840SOL    MW415681   3.067   1.368   6.188
 3841SOL     OW15682   2.266   0.343   6.646
 3841SOL    HW215683   2.296   0.257   6.617
 3841SOL    HW315684   2.171   0.336   6.649
 3841SOL    MW415685   2.258   0.332   6.644
 3842SOL     OW15686   2.409   0.121   6.537
 3842SOL    HW215687   2.419   0.030   6.563
 3842SOL    HW315688   2.365   0.117   6.452
 3842SOL    MW415689   2.405   0.109   6.529
 3843SOL     OW15690   3.194   0.035   5.817
 3843SOL    HW215691   3.268   0.079   5.860
 3843SOL    HW315692   3.118   0.089   5.839
 3843SOL    MW415693   3.194   0.047   5.825
 3844SOL     OW15694   3.254   0.810   6.095
 3844SOL    HW215695   3.169   0.780   6.065
 3844SOL    HW315696   3.246   0.817   6.190
 3844SOL    MW415697   3.242   0.808   6.104
 3845SOL     OW15698   2.627   0.476   5.821
 3845SOL    HW215699   2.700   0.525   5.784
 3845SOL    HW315700   2.643   0.385   5.795
 3845SOL    MW415701   2.639   0.471   5.814
 3846SOL     OW15702   2.102   0.985   5.919
 3846SOL    HW215703   2.039   1.001   5.848
 3846SOL    HW315704   2.049   0.948   5.990
 3846SOL    MW415705   2.087   0.982   5.919
 3847SOL     OW15706   2.458   1.339   5.778
 3847SOL    HW215707   2.473   1.315   5.870
 3847SOL    HW315708   2.366   1.317   5.762
 3847SOL    MW415709   2.448   1.332   5.788
 3848SOL     OW15710   2.997   1.570   5.930
 3848SOL    HW215711   3.005   1.488   5.881
 3848SOL    HW315712   2.916   1.609   5.897
 3848SOL    MW415713   2.987   1.565   5.920
 3849SOL     OW15714   2.256   1.728   6.499
 3849SOL    HW215715   2.260   1.639   6.534
 3849SOL    HW315716   2.282   1.719   6.408
 3849SOL    MW415717   2.259   1.716   6.491
 3850SOL     OW15718   2.333   0.451   6.376
 3850SOL    HW215719   2.404   0.399   6.339
 3850SOL    HW315720   2.319   0.416   6.463
 3850SOL    MW415721   2.341   0.440   6.383
 3851SOL     OW15722   2.649   1.544   6.452
 3851SOL    HW215723   2.577   1.481   6.465
 3851SOL    HW315724   2.610   1.629   6.470
 3851SOL    MW415725   2.633   1.547   6.455
 3852SOL     OW15726   2.969   0.392   6.100
 3852SOL    HW215727   2.991   0.329   6.032
 3852SOL    HW315728   2.874   0.384   6.111
 3852SOL    MW415729   2.959   0.383   6.092
 3853SOL     OW15730   2.054   0.082   6.032
 3853SOL    HW215731   2.125   0.103   5.971
 3853SOL    HW315732   2.008   0.010   5.990
 3853SOL    MW415733   2.058   0.076   6.018
 3854SOL     OW15734   3.623   1.456   6.132
 3854SOL    HW215735   3.593   1.389   6.193
 3854SOL    HW315736   3.717   1.462   6.146
 3854SOL    MW415737   3.631   1.448   6.142
 3855SOL     OW15738   3.179   1.133   6.062
 3855SOL    HW215739   3.151   1.219   6.095
 3855SOL    HW315740   3.207   1.149   5.972
 3855SOL    MW415741   3.179   1.147   6.054
 3856SOL     OW15742   2.841   0.053   6.115
 3856SOL    HW215743   2.878   0.112   6.180
 3856SOL    HW315744   2.818   0.109   6.041
 3856SOL    MW415745   2.842   0.068   6.114
 3857SOL     OW15746   3.694   0.935   6.537
 3857SOL    HW215747   3.685   0.967   6.448
 3857SOL    HW315748   3.647   0.851   6.537
 3857SOL    MW415749   3.687   0.928   6.527
 3858SOL     OW15750   3.606   0.866   6.238
 3858SOL    HW215751   3.700   0.855   6.226
 3858SOL    HW315752   3.582   0.938   6.179
 3858SOL    MW415753   3.616   0.874   6.229
 3859SOL     OW15754   2.262   0.744   6.011
 3859SOL    HW215755   2.262   0.839   5.996
 3859SOL    HW315756   2.339   0.728   6.065
 3859SOL    MW415757   2.272   0.755   6.016
 3860SOL     OW15758   2.021   0.475   6.300
 3860SOL    HW215759   2.083   0.482   6.373
 3860SOL    HW315760   2.021   0.382   6.277
 3860SOL    MW415761   2.029   0.464   6.307
 3861SOL     OW15762   3.568   1.815   5.832
 3861SOL    HW215763   3.635   1.848   5.772
 3861SOL    HW315764   3.525   1.894   5.866
 3861SOL    MW415765   3.570   1.830   5.828
 3862SOL     OW15766   1.890   1.047   5.758
 3862SOL    HW215767   1.859   1.112   5.821
 3862SOL    HW315768   1.839   0.969   5.777
 3862SOL    MW415769   1.880   1.044   5.768
 3863SOL     OW15770   3.334   0.798   6.350
 3863SOL    HW215771   3.414   0.813   6.299
 3863SOL    HW315772   3.327   0.703   6.356
 3863SOL    MW415773   3.343   0.787   6.345
 3864SOL     OW15774   2.474   1.847   5.700
 3864SOL    HW215775   2.379   1.847   5.692
 3864SOL    HW315776   2.490   1.793   5.778
 3864SOL    MW415777   2.464   1.841   5.709
 3865SOL     OW15778   3.319   0.667   5.615
 3865SOL    HW215779   3.247   0.643   5.557
 3865SOL    HW315780   3.385   0.704   5.557
 3865SOL    MW415781   3.318   0.669   5.600
 3866SOL     OW15782   2.453   1.399   6.296
 3866SOL    HW215783   2.518   1.332   6.317
 3866SOL    HW315784   2.505   1.476   6.273
 3866SOL    MW415785   2.468   1.401   6.295
 3867SOL     OW15786   2.939   1.147   6.445
 3867SOL    HW215787   3.031   1.128   6.463
 3867SOL    HW315788   2.912   1.077   6.385
 3867SOL    MW415789   2.947   1.135   6.439
 3868SOL     OW15790   2.732   0.967   5.800
 3868SOL    HW215791   2.718   0.879   5.765
 3868SOL    HW315792   2.683   1.024   5.741
 3868SOL    MW415793   2.724   0.962   5.788
 3869SOL     OW15794   2.145   0.691   6.579
 3869SOL    HW215795   2.095   0.690   6.660
 3869SOL    HW315796   2.165   0.783   6.563
 3869SOL    MW415797   2.141   0.703   6.587
 3870SOL     OW15798   3.451   0.173   5.902
 3870SOL    HW215799   3.444   0.177   5.997
 3870SOL    HW315800   3.463   0.264   5.875
 3870SOL    MW415801   3.452   0.186   5.910
 3871SOL     OW15802   2.740   0.736   6.016
 3871SOL    HW215803   2.720   0.722   5.923
 3871SOL    HW315804   2.833   0.715   6.023
 3871SOL    MW415805   2.750   0.731   6.005
 3872SOL     OW15806   2.723   1.694   6.054
 3872SOL    HW215807   2.781   1.765   6.081
 3872SOL    HW315808   2.746   1.622   6.112
 3872SOL    MW415809   2.734   1.694   6.065
 3873SOL     OW15810   1.966  -0.001   6.743
 3873SOL    HW215811   1.957   0.000   6.648
 3873SOL    HW315812   2.060   0.011   6.758
 3873SOL    MW415813   1.978   0.002   6.734
 3874SOL     OW15814   3.603   1.192   6.363
 3874SOL    HW215815   3.582   1.138   6.286
 3874SOL    HW315816   3.699   1.190   6.367
 3874SOL    MW415817   3.612   1.185   6.352
 3875SOL     OW15818   2.179   0.126   5.789
 3875SOL    HW215819   2.108   0.181   5.757
 3875SOL    HW315820   2.221   0.092   5.710
 3875SOL    MW415821   2.175   0.128   5.775
 3876SOL     OW15822   1.935   0.225   5.638
 3876SOL    HW215823   1.902   0.304   5.682
 3876SOL    HW315824   1.990   0.258   5.567
 3876SOL    MW415825   1.938   0.239   5.635
 3877SOL     OW15826   1.969   1.482   5.827
 3877SOL    HW215827   1.986   1.566   5.869
 3877SOL    HW315828   2.004   1.491   5.739
 3877SOL    MW415829   1.974   1.495   5.821
 3878SOL     OW15830   3.241   1.571   6.044
 3878SOL    HW215831   3.304   1.561   5.973
 3878SOL    HW315832   3.158   1.591   5.999
 3878SOL    MW415833   3.238   1.572   6.029
 3879SOL     OW15834   3.470   2.639   1.252
 3879SOL    HW215835   3.425   2.706   1.303
 3879SOL    HW315836   3.558   2.675   1.238
 3879SOL    MW415837   3.476   2.652   1.256
 3880SOL     OW15838   2.398   2.890   0.486
 3880SOL    HW215839   2.488   2.865   0.470
 3880SOL    HW315840   2.394   2.983   0.463
 3880SOL    MW415841   2.410   2.899   0.481
 3881SOL     OW15842   3.514   3.593   0.628
 3881SOL    HW215843   3.526   3.539   0.706
 3881SOL    HW315844   3.551   3.541   0.557
 3881SOL    MW415845   3.520   3.578   0.629
 3882SOL     OW15846   2.893   3.478   1.629
 3882SOL    HW215847   2.934   3.514   1.550
 3882SOL    HW315848   2.928   3.389   1.636
 3882SOL    MW415849   2.904   3.471   1.620
 3883SOL     OW15850   3.450   3.033   1.233
 3883SOL    HW215851   3.371   2.998   1.191
 3883SOL    HW315852   3.477   3.105   1.177
 3883SOL    MW415853   3.443   3.038   1.220
 3884SOL     OW15854   2.682   2.346   0.499
 3884SOL    HW215855   2.657   2.434   0.527
 3884SOL    HW315856   2.679   2.349   0.403
 3884SOL    MW415857   2.678   2.358   0.491
 3885SOL     OW15858   2.124   2.374   0.427
 3885SOL    HW215859   2.156   2.462   0.409
 3885SOL    HW315860   2.112   2.372   0.522
 3885SOL    MW415861   2.127   2.386   0.439
 3886SOL     OW15862   2.202   2.787   1.328
 3886SOL    HW215863   2.265   2.734   1.279
 3886SOL    HW315864   2.183   2.861   1.271
 3886SOL    MW415865   2.208   2.789   1.315
 3887SOL     OW15866   2.523   2.129   0.514
 3887SOL    HW215867   2.581   2.205   0.516
 3887SOL    HW315868   2.458   2.150   0.447
 3887SOL    MW415869   2.522   2.141   0.505
 3888SOL     OW15870   2.610   3.056   0.689
 3888SOL    HW215871   2.690   3.059   0.741
 3888SOL    HW315872   2.638   3.023   0.603
 3888SOL    MW415873   2.624   3.052   0.684
 3889SOL     OW15874   2.635   3.397   1.592
 3889SOL    HW215875   2.719   3.423   1.631
 3889SOL    HW315876   2.659   3.341   1.518
 3889SOL    MW415877   2.649   3.393   1.587
 3890SOL     OW15878   2.387   2.560   0.680
 3890SOL    HW215879   2.372   2.480   0.731
 3890SOL    HW315880   2.469   2.595   0.714
 3890SOL    MW415881   2.395   2.552   0.692
 3891SOL     OW15882   2.724   3.246   1.365
 3891SOL    HW215883   2.688   3.312   1.305
 3891SOL    HW315884   2.652   3.184   1.378
 3891SOL    MW415885   2.710   3.246   1.359
 3892SOL     OW15886   2.529   2.386   1.057
 3892SOL    HW215887   2.435   2.382   1.075
 3892SOL    HW315888   2.559   2.295   1.066
 3892SOL    MW415889   2.520   2.374   1.060
 3893SOL     OW15890   2.275   2.800   0.961
 3893SOL    HW215891   2.230   2.807   0.877
 3893SOL    HW315892   2.255   2.883   1.005
 3893SOL    MW415893   2.267   2.812   0.955
 3894SOL     OW15894   1.972   3.646   0.836
 3894SOL    HW215895   2.061   3.638   0.871
 3894SOL    HW315896   1.936   3.558   0.841
 3894SOL    MW415897   1.979   3.633   0.841
 3895SOL     OW15898   2.236   3.173   0.871
 3895SOL    HW215899   2.212   3.226   0.947
 3895SOL    HW315900   2.292   3.231   0.819
 3895SOL    MW415901   2.240   3.188   0.874
 3896SOL     OW15902   2.798   2.817   0.681
 3896SOL    HW215903   2.712   2.804   0.721
 3896SOL    HW315904   2.851   2.744   0.713
 3896SOL    MW415905   2.794   2.806   0.690
 3897SOL     OW15906   2.206   3.469   1.466
 3897SOL    HW215907   2.114   3.445   1.451
 3897SOL    HW315908   2.250   3.386   1.483
 3897SOL    MW415909   2.200   3.454   1.465
 3898SOL     OW15910   2.789   3.179   0.398
 3898SOL    HW215911   2.766   3.241   0.466
 3898SOL    HW315912   2.746   3.097   0.424
 3898SOL    MW415913   2.781   3.175   0.409
 3899SOL     OW15914   3.662   2.180   0.854
 3899SOL    HW215915   3.599   2.160   0.923
 3899SOL    HW315916   3.652   2.109   0.791
 3899SOL    MW415917   3.652   2.167   0.855
 3900SOL     OW15918   2.286   2.152   0.366
 3900SOL    HW215919   2.260   2.114   0.282
 3900SOL    HW315920   2.223   2.222   0.382
 3900SOL    MW415921   2.275   2.155   0.357
 3901SOL     OW15922   2.121   3.113   0.403
 3901SOL    HW215923   2.069   3.181   0.359
 3901SOL    HW315924   2.118   3.039   0.343
 3901SOL    MW415925   2.113   3.112   0.390
 3902SOL     OW15926   3.463   2.952   0.506
 3902SOL    HW215927   3.373   2.952   0.541
 3902SOL    HW315928   3.456   2.998   0.423
 3902SOL    MW415929   3.450   2.958   0.500
 3903SOL     OW15930   3.263   2.587   1.578
 3903SOL    HW215931   3.332   2.525   1.555
 3903SOL    HW315932   3.188   2.561   1.525
 3903SOL    MW415933   3.263   2.574   1.569
 3904SOL     OW15934   2.004   3.467   1.130
 3904SOL    HW215935   1.987   3.413   1.207
 3904SOL    HW315936   1.992   3.557   1.160
 3904SOL    MW415937   2.001   3.471   1.144
 3905SOL     OW15938   2.999   2.974   1.570
 3905SOL    HW215939   2.984   3.067   1.555
 3905SOL    HW315940   3.094   2.964   1.570
 3905SOL    MW415941   3.008   2.984   1.567
 3906SOL     OW15942   2.795   2.398   1.771
 3906SOL    HW215943   2.885   2.399   1.738
 3906SOL    HW315944   2.754   2.323   1.729
 3906SOL    MW415945   2.801   2.388   1.762
 3907SOL     OW15946   3.370   2.930   0.898
 3907SOL    HW215947   3.373   2.864   0.829
 3907SOL    HW315948   3.455   2.973   0.894
 3907SOL    MW415949   3.382   2.926   0.889
 3908SOL     OW15950   2.990   2.533   0.467
 3908SOL    HW215951   3.016   2.557   0.378
 3908SOL    HW315952   2.972   2.440   0.463
 3908SOL    MW415953   2.992   2.525   0.454
 3909SOL     OW15954   2.575   2.202   1.721
 3909SOL    HW215955   2.585   2.128   1.661
 3909SOL    HW315956   2.611   2.171   1.804
 3909SOL    MW415957   2.581   2.188   1.723
 3910SOL     OW15958   2.311   3.569   0.636
 3910SOL    HW215959   2.343   3.657   0.614
 3910SOL    HW315960   2.264   3.541   0.558
 3910SOL    MW415961   2.310   3.577   0.623
 3911SOL     OW15962   3.695   1.931   0.685
 3911SOL    HW215963   3.749   1.882   0.747
 3911SOL    HW315964   3.638   1.865   0.646
 3911SOL    MW415965   3.695   1.915   0.687
 3912SOL     OW15966   2.027   3.629   0.213
 3912SOL    HW215967   2.056   3.719   0.205
 3912SOL    HW315968   1.977   3.612   0.134
 3912SOL    MW415969   2.025   3.637   0.202
 3913SOL     OW15970   2.814   1.884   1.098
 3913SOL    HW215971   2.773   1.962   1.060
 3913SOL    HW315972   2.908   1.902   1.093
 3913SOL    MW415973   2.820   1.896   1.093
 3914SOL     OW15974   2.760   2.855   1.593
 3914SOL    HW215975   2.737   2.835   1.683
 3914SOL    HW315976   2.845   2.899   1.598
 3914SOL    MW415977   2.767   2.858   1.605
 3915SOL     OW15978   2.840   1.992   1.353
 3915SOL    HW215979   2.846   1.954   1.266
 3915SOL    HW315980   2.829   2.086   1.338
 3915SOL    MW415981   2.841   2.000   1.341
 3916SOL     OW15982   2.929   2.481   1.187
 3916SOL    HW215983   3.004   2.510   1.134
 3916SOL    HW315984   2.861   2.546   1.171
 3916SOL    MW415985   2.930   2.493   1.177
 3917SOL     OW15986   3.479   2.449   1.464
 3917SOL    HW215987   3.460   2.358   1.443
 3917SOL    HW315988   3.457   2.498   1.385
 3917SOL    MW415989   3.474   2.442   1.451
 3918SOL     OW15990   3.621   3.543   1.368
 3918SOL    HW215991   3.549   3.505   1.419
 3918SOL    HW315992   3.638   3.628   1.409
 3918SOL    MW415993   3.615   3.548   1.380
 3919SOL     OW15994   2.926   2.187   1.570
 3919SOL    HW215995   2.892   2.226   1.489
 3919SOL    HW315996   2.904   2.095   1.563
 3919SOL    MW415997   2.919   2.180   1.560
 3920SOL     OW15998   3.335   3.001   1.646
 3920SOL    HW215999   3.417   3.042   1.676
 3920SOL    HW316000   3.298   2.963   1.726
 3920SOL    MW416001   3.341   3.002   1.661
 3921SOL     OW16002   3.630   2.374   0.630
 3921SOL    HW216003   3.719   2.343   0.647
 3921SOL    HW316004   3.573   2.314   0.678
 3921SOL    MW416005   3.633   2.362   0.639
 3922SOL     OW16006   2.056   2.088   0.659
 3922SOL    HW216007   2.047   2.028   0.585
 3922SOL    HW316008   1.989   2.059   0.722
 3922SOL    MW416009   2.046   2.075   0.657
 3923SOL     OW16010   2.999   3.181   0.220
 3923SOL    HW216011   2.949   3.183   0.302
 3923SOL    HW316012   2.933   3.199   0.152
 3923SOL    MW416013   2.985   3.183   0.222
 3924SOL     OW16014   2.003   2.261   1.022
 3924SOL    HW216015   1.975   2.352   1.031
 3924SOL    HW316016   1.940   2.222   0.961
 3924SOL    MW416017   1.990   2.267   1.016
 3925SOL     OW16018   2.462   3.599   0.328
 3925SOL    HW216019   2.383   3.557   0.361
 3925SOL    HW316020   2.528   3.582   0.395
 3925SOL    MW416021   2.461   3.591   0.341
 3926SOL     OW16022   3.590   3.119   1.725
 3926SOL    HW216023   3.640   3.045   1.757
 3926SOL    HW316024   3.536   3.146   1.800
 3926SOL    MW416025   3.590   3.113   1.738
 3927SOL     OW16026   2.598   3.014   0.035
 3927SOL    HW216027   2.520   2.960   0.022
 3927SOL    HW316028   2.569   3.087   0.088
 3927SOL    MW416029   2.584   3.016   0.040
 3928SOL     OW16030   3.724   2.754   1.227
 3928SOL    HW216031   3.740   2.792   1.140
 3928SOL    HW316032   3.758   2.820   1.288
 3928SOL    MW416033   3.731   2.767   1.223
 3929SOL     OW16034   3.516   3.463   0.896
 3929SOL    HW216035   3.545   3.530   0.957
 3929SOL    HW316036   3.497   3.387   0.951
 3929SOL    MW416037   3.518   3.463   0.911
 3930SOL     OW16038   1.987   2.536   1.192
 3930SOL    HW216039   2.049   2.566   1.258
 3930SOL    HW316040   1.921   2.605   1.186
 3930SOL    MW416041   1.986   2.549   1.199
 3931SOL     OW16042   2.082   3.645   1.644
 3931SOL    HW216043   2.056   3.713   1.582
 3931SOL    HW316044   2.130   3.582   1.592
 3931SOL    MW416045   2.084   3.645   1.630
 3932SOL     OW16046   2.134   2.964   1.151
 3932SOL    HW216047   2.187   3.039   1.176
 3932SOL    HW316048   2.053   3.002   1.117
 3932SOL    MW416049   2.130   2.979   1.151
 3933SOL     OW16050   2.674   2.868   1.139
 3933SOL    HW216051   2.702   2.777   1.151
 3933SOL    HW316052   2.603   2.862   1.075
 3933SOL    MW416053   2.667   2.856   1.134
 3934SOL     OW16054   1.989   2.733   0.557
 3934SOL    HW216055   2.080   2.748   0.584
 3934SOL    HW316056   1.992   2.654   0.503
 3934SOL    MW416057   2.001   2.725   0.555
 3935SOL     OW16058   2.225   2.441   1.811
 3935SOL    HW216059   2.172   2.521   1.818
 3935SOL    HW316060   2.295   2.453   1.876
 3935SOL    MW416061   2.227   2.454   1.819
 3936SOL     OW16062   2.611   1.991   1.518
 3936SOL    HW216063   2.588   1.899   1.520
 3936SOL    HW316064   2.697   1.993   1.475
 3936SOL    MW416065   2.618   1.981   1.514
 3937SOL     OW16066   2.295   2.515   1.557
 3937SOL    HW216067   2.375   2.565   1.543
 3937SOL    HW316068   2.286   2.509   1.652
 3937SOL    MW416069   2.304   2.521   1.567
 3938SOL     OW16070   2.616   3.665   0.931
 3938SOL    HW216071   2.705   3.680   0.961
 3938SOL    HW316072   2.611   3.712   0.847
 3938SOL    MW416073   2.626   3.673   0.924
 3939SOL     OW16074   3.272   2.040   1.828
 3939SOL    HW216075   3.328   1.967   1.854
 3939SOL    HW316076   3.242   2.078   1.910
 3939SOL    MW416077   3.276   2.035   1.841
 3940SOL     OW16078   1.997   3.345   0.596
 3940SOL    HW216079   1.969   3.384   0.678
 3940SOL    HW316080   2.017   3.254   0.618
 3940SOL    MW416081   1.995   3.337   0.609
 3941SOL     OW16082   2.830   3.388   0.631
 3941SOL    HW216083   2.913   3.342   0.615
 3941SOL    HW316084   2.820   3.387   0.727
 3941SOL    MW416085   2.840   3.381   0.641
 3942SOL     OW16086   3.662   2.533   0.945
 3942SOL    HW216087   3.751   2.563   0.927
 3942SOL    HW316088   3.642   2.473   0.874
 3942SOL    MW416089   3.671   2.530   0.934
 3943SOL     OW16090   3.513   2.712   1.825
 3943SOL    HW216091   3.568   2.636   1.806
 3943SOL    HW316092   3.515   2.720   1.920
 3943SOL    MW416093   3.521   2.703   1.833
 3944SOL     OW16094   2.808   2.274   1.344
 3944SOL    HW216095   2.727   2.315   1.372
 3944SOL    HW316096   2.855   2.342   1.296
 3944SOL    MW416097   2.803   2.289   1.342
 3945SOL     OW16098   3.068   2.612   0.967
 3945SOL    HW216099   3.081   2.706   0.977
 3945SOL    HW316100   3.029   2.602   0.881
 3945SOL    MW416101   3.064   2.623   0.957
 3946SOL     OW16102   2.520   2.807   0.771
 3946SOL    HW216103   2.431   2.798   0.804
 3946SOL    HW316104   2.524   2.897   0.739
 3946SOL    MW416105   2.509   2.818   0.771
 3947SOL     OW16106   3.319   2.390   0.766
 3947SOL    HW216107   3.264   2.311   0.765
 3947SOL    HW316108   3.301   2.431   0.850
 3947SOL    MW416109   3.309   2.385   0.775
 3948SOL     OW16110   2.290   2.077   1.583
 3948SOL    HW216111   2.211   2.095   1.635
 3948SOL    HW316112   2.285   2.139   1.510
 3948SOL    MW416113   2.280   2.087   1.580
 3949SOL     OW16114   2.938   2.594   0.723
 3949SOL    HW216115   2.875   2.526   0.747
 3949SOL    HW316116   2.958   2.575   0.631
 3949SOL    MW416117   2.932   2.581   0.715
 3950SOL     OW16118   2.194   3.489   0.425
 3950SOL    HW216119   2.155   3.536   0.351
 3950SOL    HW316120   2.128   3.424   0.450
 3950SOL    MW416121   2.181   3.487   0.419
 3951SOL     OW16122   2.686   2.898   0.449
 3951SOL    HW216123   2.688   2.872   0.356
 3951SOL    HW316124   2.744   2.835   0.492
 3951SOL    MW416125   2.694   2.887   0.443
 3952SOL     OW16126   3.239   3.458   1.221
 3952SOL    HW216127   3.164   3.504   1.259
 3952SOL    HW316128   3.221   3.365   1.238
 3952SOL    MW416129   3.228   3.452   1.229
 3953SOL     OW16130   3.196   2.142   0.782
 3953SOL    HW216131   3.224   2.074   0.843
 3953SOL    HW316132   3.110   2.113   0.752
 3953SOL    MW416133   3.189   2.129   0.786
 3954SOL     OW16134   2.001   3.076   0.716
 3954SOL    HW216135   2.065   3.108   0.779
 3954SOL    HW316136   2.050   3.012   0.664
 3954SOL    MW416137   2.016   3.072   0.717
 3955SOL     OW16138   2.501   3.152   1.698
 3955SOL    HW216139   2.549   3.235   1.685
 3955SOL    HW316140   2.558   3.100   1.754
 3955SOL    MW416141   2.515   3.156   1.704
 3956SOL     OW16142   2.077   3.394   1.838
 3956SOL    HW216143   2.133   3.318   1.853
 3956SOL    HW316144   2.026   3.372   1.760
 3956SOL    MW416145   2.077   3.381   1.829
 3957SOL     OW16146   2.962   3.231   1.447
 3957SOL    HW216147   2.873   3.237   1.415
 3957SOL    HW316148   3.006   3.310   1.415
 3957SOL    MW416149   2.957   3.241   1.439
 3958SOL     OW16150   2.255   1.899   1.789
 3958SOL    HW216151   2.183   1.864   1.737
 3958SOL    HW316152   2.313   1.940   1.724
 3958SOL    MW416153   2.253   1.900   1.774
 3959SOL     OW16154   2.279   3.389   1.088
 3959SOL    HW216155   2.324   3.451   1.145
 3959SOL    HW316156   2.186   3.408   1.101
 3959SOL    MW416157   2.272   3.399   1.095
 3960SOL     OW16158   3.719   2.918   1.442
 3960SOL    HW216159   3.634   2.931   1.401
 3960SOL    HW316160   3.699   2.882   1.529
 3960SOL    MW416161   3.706   2.914   1.447
 3961SOL     OW16162   2.701   3.457   1.196
 3961SOL    HW216163   2.725   3.446   1.105
 3961SOL    HW316164   2.624   3.514   1.194
 3961SOL    MW416165   2.693   3.462   1.185
 3962SOL     OW16166   2.343   2.840   0.051
 3962SOL    HW216167   2.266   2.853   0.107
 3962SOL    HW316168   2.307   2.804  -0.030
 3962SOL    MW416169   2.329   2.836   0.048
 3963SOL     OW16170   2.496   3.162   0.986
 3963SOL    HW216171   2.489   3.141   1.080
 3963SOL    HW316172   2.414   3.130   0.949
 3963SOL    MW416173   2.484   3.156   0.993
 3964SOL     OW16174   3.360   2.172   1.388
 3964SOL    HW216175   3.307   2.174   1.468
 3964SOL    HW316176   3.345   2.085   1.351
 3964SOL    MW416177   3.352   2.162   1.393
 3965SOL     OW16178   3.696   2.096   1.261
 3965SOL    HW216179   3.677   2.163   1.196
 3965SOL    HW316180   3.753   2.034   1.216
 3965SOL    MW416181   3.700   2.097   1.247
 3966SOL     OW16182   1.942   3.254   1.649
 3966SOL    HW216183   1.986   3.187   1.595
 3966SOL    HW316184   1.857   3.216   1.669
 3966SOL    MW416185   1.937   3.240   1.645
 3967SOL     OW16186   2.625   1.929   0.701
 3967SOL    HW216187   2.554   1.990   0.683
 3967SOL    HW316188   2.676   1.926   0.620
 3967SOL    MW416189   2.621   1.935   0.688
 3968SOL     OW16190   2.383   3.169   0.450
 3968SOL    HW216191   2.376   3.201   0.540
 3968SOL    HW316192   2.293   3.153   0.422
 3968SOL    MW416193   2.371   3.171   0.457
 3969SOL     OW16194   2.978   3.562   1.359
 3969SOL    HW216195   2.898   3.547   1.309
 3969SOL    HW316196   2.985   3.657   1.366
 3969SOL    MW416197   2.969   3.573   1.353
 3970SOL     OW16198   3.092   3.527   0.849
 3970SOL    HW216199   3.139   3.600   0.808
 3970SOL    HW316200   3.013   3.566   0.885
 3970SOL    MW416201   3.087   3.542   0.848
 3971SOL     OW16202   3.500   3.622   1.124
 3971SOL    HW216203   3.543   3.592   1.204
 3971SOL    HW316204   3.419   3.570   1.121
 3971SOL    MW416205   3.495   3.611   1.134
 3972SOL     OW16206   2.585   2.586   1.831
 3972SOL    HW216207   2.655   2.528   1.803
 3972SOL    HW316208   2.528   2.531   1.886
 3972SOL    MW416209   2.587   2.573   1.835
 3973SOL     OW16210   3.372   2.798   1.464
 3973SOL    HW216211   3.377   2.851   1.544
 3973SOL    HW316212   3.334   2.715   1.492
 3973SOL    MW416213   3.368   2.793   1.479
 3974SOL     OW16214   3.012   1.933   1.710
 3974SOL    HW216215   3.007   1.840   1.691
 3974SOL    HW316216   3.095   1.944   1.756
 3974SOL    MW416217   3.020   1.922   1.714
 3975SOL     OW16218   2.386   2.453   0.164
 3975SOL    HW216219   2.352   2.509   0.234
 3975SOL    HW316220   2.457   2.403   0.204
 3975SOL    MW416221   2.392   2.454   0.178
 3976SOL     OW16222   3.482   3.204   0.986
 3976SOL    HW216223   3.517   3.186   0.899
 3976SOL    HW316224   3.387   3.205   0.973
 3976SOL    MW416225   3.474   3.201   0.973
 3977SOL     OW16226   2.911   2.852   1.355
 3977SOL    HW216227   2.954   2.887   1.433
 3977SOL    HW316228   2.894   2.929   1.301
 3977SOL    MW416229   2.914   2.867   1.358
 3978SOL     OW16230   2.302   1.994   0.657
 3978SOL    HW216231   2.352   2.037   0.588
 3978SOL    HW316232   2.217   2.038   0.657
 3978SOL    MW416233   2.299   2.007   0.648
 3979SOL     OW16234   2.061   3.056   1.517
 3979SOL    HW216235   2.089   3.009   1.595
 3979SOL    HW316236   1.982   3.011   1.488
 3979SOL    MW416237   2.054   3.045   1.523
 3980SOL     OW16238   2.569   2.383   1.484
 3980SOL    HW216239   2.541   2.471   1.508
 3980SOL    HW316240   2.538   2.327   1.555
 3980SOL    MW416241   2.561   2.386   1.496
 3981SOL     OW16242   3.111   2.601   0.203
 3981SOL    HW216243   3.158   2.619   0.122
 3981SOL    HW316244   3.077   2.685   0.231
 3981SOL    MW416245   3.113   2.615   0.196
 3982SOL     OW16246   2.224   2.779   0.697
 3982SOL    HW216247   2.282   2.835   0.645
 3982SOL    HW316248   2.268   2.694   0.699
 3982SOL    MW416249   2.237   2.776   0.690
 3983SOL     OW16250   3.364   2.131   0.534
 3983SOL    HW216251   3.286   2.081   0.559
 3983SOL    HW316252   3.335   2.222   0.534
 3983SOL    MW416253   3.350   2.135   0.537
 3984SOL     OW16254   2.950   2.093   0.693
 3984SOL    HW216255   2.970   2.168   0.637
 3984SOL    HW316256   2.930   2.132   0.778
 3984SOL    MW416257   2.951   2.109   0.697
 3985SOL     OW16258   3.710   2.866   1.712
 3985SOL    HW216259   3.623   2.846   1.748
 3985SOL    HW316260   3.764   2.792   1.737
 3985SOL    MW416261   3.705   2.855   1.720
 3986SOL     OW16262   1.931   3.379   0.869
 3986SOL    HW216263   1.963   3.383   0.960
 3986SOL    HW316264   1.836   3.387   0.877
 3986SOL    MW416265   1.923   3.382   0.882
 3987SOL     OW16266   1.886   2.505   0.416
 3987SOL    HW216267   1.826   2.477   0.486
 3987SOL    HW316268   1.960   2.445   0.422
 3987SOL    MW416269   1.888   2.494   0.425
 3988SOL     OW16270   3.454   3.717   1.850
 3988SOL    HW216271   3.499   3.641   1.815
 3988SOL    HW316272   3.492   3.730   1.937
 3988SOL    MW416273   3.464   3.710   1.856
 3989SOL     OW16274   3.054   3.236   0.576
 3989SOL    HW216275   3.077   3.187   0.654
 3989SOL    HW316276   3.135   3.278   0.548
 3989SOL    MW416277   3.067   3.236   0.583
 3990SOL     OW16278   2.312   2.244   1.305
 3990SOL    HW216279   2.345   2.325   1.345
 3990SOL    HW316280   2.285   2.270   1.217
 3990SOL    MW416281   2.311   2.258   1.299
 3991SOL     OW16282   2.266   2.211   1.041
 3991SOL    HW216283   2.296   2.125   1.012
 3991SOL    HW316284   2.171   2.204   1.044
 3991SOL    MW416285   2.258   2.200   1.039
 3992SOL     OW16286   3.095   2.420   1.732
 3992SOL    HW216287   3.147   2.355   1.685
 3992SOL    HW316288   3.053   2.471   1.662
 3992SOL    MW416289   3.096   2.417   1.715
 3993SOL     OW16290   3.194   2.215   1.593
 3993SOL    HW216291   3.101   2.199   1.580
 3993SOL    HW316292   3.220   2.153   1.661
 3993SOL    MW416293   3.184   2.205   1.600
 3994SOL     OW16294   2.409   1.989   0.932
 3994SOL    HW216295   2.419   1.898   0.958
 3994SOL    HW316296   2.365   1.985   0.847
 3994SOL    MW416297   2.405   1.977   0.924
 3995SOL     OW16298   2.503   3.604   1.478
 3995SOL    HW216299   2.420   3.589   1.523
 3995SOL    HW316300   2.562   3.537   1.513
 3995SOL    MW416301   2.501   3.594   1.488
 3996SOL     OW16302   3.560   2.311   1.103
 3996SOL    HW216303   3.493   2.344   1.163
 3996SOL    HW316304   3.603   2.389   1.069
 3996SOL    MW416305   3.558   2.326   1.107
 3997SOL     OW16306   3.738   3.031   1.073
 3997SOL    HW216307   3.731   2.971   0.998
 3997SOL    HW316308   3.664   3.091   1.062
 3997SOL    MW416309   3.728   3.031   1.062
 3998SOL     OW16310   3.120   2.893   0.991
 3998SOL    HW216311   3.134   2.865   1.082
 3998SOL    HW316312   3.206   2.924   0.963
 3998SOL    MW416313   3.133   2.894   1.000
 3999SOL     OW16314   3.203   2.388   1.270
 3999SOL    HW216315   3.224   2.389   1.177
 3999SOL    HW316316   3.248   2.310   1.303
 3999SOL    MW416317   3.210   2.378   1.262
 4000SOL     OW16318   3.696   2.519   1.812
 4000SOL    HW216319   3.733   2.464   1.881
 4000SOL    HW316320   3.721   2.476   1.730
 4000SOL    MW416321   3.703   2.507   1.811
 4001SOL     OW16322   3.243   2.817   1.863
 4001SOL    HW216323   3.309   2.765   1.817
 4001SOL    HW316324   3.263   2.804   1.956
 4001SOL    MW416325   3.254   2.808   1.870
 4002SOL     OW16326   3.194   1.903   0.212
 4002SOL    HW216327   3.268   1.947   0.255
 4002SOL    HW316328   3.118   1.957   0.234
 4002SOL    MW416329   3.194   1.915   0.220
 4003SOL     OW16330   3.254   2.678   0.490
 4003SOL    HW216331   3.169   2.648   0.460
 4003SOL    HW316332   3.246   2.685   0.585
 4003SOL    MW416333   3.242   2.676   0.499
 4004SOL     OW16334   2.330   3.141   1.221
 4004SOL    HW216335   2.342   3.168   1.312
 4004SOL    HW316336   2.311   3.222   1.174
 4004SOL    MW416337   2.329   3.156   1.226
 4005SOL     OW16338   2.614   2.121   1.044
 4005SOL    HW216339   2.587   2.123   1.135
 4005SOL    HW316340   2.544   2.073   0.999
 4005SOL    MW416341   2.602   2.117   1.051
 4006SOL     OW16342   2.468   3.613   1.206
 4006SOL    HW216343   2.520   3.690   1.183
 4006SOL    HW316344   2.477   3.605   1.301
 4006SOL    MW416345   2.477   3.620   1.217
 4007SOL     OW16346   3.370   3.198   1.438
 4007SOL    HW216347   3.355   3.127   1.501
 4007SOL    HW316348   3.416   3.156   1.366
 4007SOL    MW416349   3.376   3.182   1.438
 4008SOL     OW16350   2.444   2.929   1.555
 4008SOL    HW216351   2.481   2.934   1.467
 4008SOL    HW316352   2.483   3.002   1.602
 4008SOL    MW416353   2.454   2.939   1.550
 4009SOL     OW16354   2.624   2.972   1.367
 4009SOL    HW216355   2.683   2.918   1.420
 4009SOL    HW316356   2.639   2.944   1.277
 4009SOL    MW416357   2.634   2.961   1.363
 4010SOL     OW16358   3.435   3.461   1.539
 4010SOL    HW216359   3.477   3.446   1.624
 4010SOL    HW316360   3.426   3.374   1.501
 4010SOL    MW416361   3.439   3.449   1.546
 4011SOL     OW16362   3.095   1.940   1.130
 4011SOL    HW216363   3.150   1.949   1.052
 4011SOL    HW316364   3.150   1.974   1.201
 4011SOL    MW416365   3.109   1.945   1.129
 4012SOL     OW16366   2.102   2.853   0.314
 4012SOL    HW216367   2.039   2.869   0.243
 4012SOL    HW316368   2.049   2.816   0.385
 4012SOL    MW416369   2.087   2.850   0.314
 4013SOL     OW16370   2.458   3.207   0.173
 4013SOL    HW216371   2.473   3.183   0.265
 4013SOL    HW316372   2.366   3.185   0.157
 4013SOL    MW416373   2.448   3.200   0.183
 4014SOL     OW16374   2.256   3.596   0.894
 4014SOL    HW216375   2.260   3.507   0.929
 4014SOL    HW316376   2.282   3.587   0.803
 4014SOL    MW416377   2.259   3.584   0.886
 4015SOL     OW16378   2.873   3.074   1.137
 4015SOL    HW216379   2.805   3.008   1.153
 4015SOL    HW316380   2.891   3.068   1.044
 4015SOL    MW416381   2.866   3.065   1.128
 4016SOL     OW16382   1.962   3.349   1.388
 4016SOL    HW216383   1.952   3.307   1.474
 4016SOL    HW316384   1.883   3.402   1.378
 4016SOL    MW416385   1.951   3.350   1.399
 4017SOL     OW16386   2.866   2.213   0.958
 4017SOL    HW216387   2.796   2.165   1.003
 4017SOL    HW316388   2.898   2.276   1.022
 4017SOL    MW416389   2.861   2.215   0.972
 4018SOL     OW16390   2.517   2.649   1.578
 4018SOL    HW216391   2.510   2.744   1.566
 4018SOL    HW316392   2.526   2.638   1.673
 4018SOL    MW416393   2.518   2.661   1.588
 4019SOL     OW16394   2.238   3.164   1.836
 4019SOL    HW216395   2.310   3.166   1.773
 4019SOL    HW316396   2.208   3.073   1.835
 4019SOL    MW416397   2.243   3.153   1.828
 4020SOL     OW16398   3.322   1.927   1.303
 4020SOL    HW216399   3.393   1.873   1.267
 4020SOL    HW316400   3.321   1.906   1.396
 4020SOL    MW416401   3.331   1.918   1.311
 4021SOL     OW16402   3.522   3.457   1.787
 4021SOL    HW216403   3.495   3.454   1.878
 4021SOL    HW316404   3.618   3.461   1.790
 4021SOL    MW416405   3.532   3.457   1.799
 4022SOL     OW16406   2.333   2.319   0.771
 4022SOL    HW216407   2.404   2.267   0.734
 4022SOL    HW316408   2.319   2.284   0.858
 4022SOL    MW416409   2.341   2.308   0.778
 4023SOL     OW16410   1.888   3.654   1.843
 4023SOL    HW216411   1.938   3.632   1.765
 4023SOL    HW316412   1.896   3.749   1.851
 4023SOL    MW416413   1.896   3.663   1.834
 4024SOL     OW16414   2.649   3.412   0.847
 4024SOL    HW216415   2.577   3.349   0.860
 4024SOL    HW316416   2.610   3.497   0.865
 4024SOL    MW416417   2.633   3.415   0.850
 4025SOL     OW16418   2.969   2.260   0.495
 4025SOL    HW216419   2.991   2.197   0.427
 4025SOL    HW316420   2.874   2.252   0.506
 4025SOL    MW416421   2.959   2.251   0.487
 4026SOL     OW16422   2.054   1.950   0.427
 4026SOL    HW216423   2.125   1.971   0.366
 4026SOL    HW316424   2.008   1.878   0.385
 4026SOL    MW416425   2.058   1.944   0.413
 4027SOL     OW16426   1.885   2.417   1.570
 4027SOL    HW216427   1.949   2.483   1.545
 4027SOL    HW316428   1.804   2.444   1.527
 4027SOL    MW416429   1.883   2.429   1.562
 4028SOL     OW16430   3.623   3.324   0.527
 4028SOL    HW216431   3.593   3.257   0.588
 4028SOL    HW316432   3.717   3.330   0.541
 4028SOL    MW416433   3.631   3.316   0.537
 4029SOL     OW16434   3.179   3.001   0.457
 4029SOL    HW216435   3.151   3.087   0.490
 4029SOL    HW316436   3.207   3.017   0.367
 4029SOL    MW416437   3.179   3.015   0.449
 4030SOL     OW16438   2.841   1.921   0.510
 4030SOL    HW216439   2.878   1.980   0.575
 4030SOL    HW316440   2.818   1.977   0.436
 4030SOL    MW416441   2.842   1.936   0.509
 4031SOL     OW16442   3.694   2.803   0.932
 4031SOL    HW216443   3.685   2.835   0.843
 4031SOL    HW316444   3.647   2.719   0.932
 4031SOL    MW416445   3.687   2.796   0.922
 4032SOL     OW16446   2.070   2.643   1.511
 4032SOL    HW216447   2.091   2.712   1.449
 4032SOL    HW316448   2.150   2.590   1.516
 4032SOL    MW416449   2.083   2.644   1.505
 4033SOL     OW16450   3.606   2.734   0.633
 4033SOL    HW216451   3.700   2.723   0.621
 4033SOL    HW316452   3.582   2.806   0.574
 4033SOL    MW416453   3.616   2.742   0.624
 4034SOL     OW16454   2.055   2.658   1.778
 4034SOL    HW216455   1.981   2.602   1.804
 4034SOL    HW316456   2.050   2.661   1.683
 4034SOL    MW416457   2.044   2.651   1.768
 4035SOL     OW16458   2.221   1.945   1.228
 4035SOL    HW216459   2.264   2.029   1.248
 4035SOL    HW316460   2.294   1.883   1.221
 4035SOL    MW416461   2.236   1.948   1.229
 4036SOL     OW16462   2.262   2.612   0.406
 4036SOL    HW216463   2.262   2.707   0.391
 4036SOL    HW316464   2.339   2.596   0.460
 4036SOL    MW416465   2.272   2.623   0.411
 4037SOL     OW16466   3.038   2.471   1.470
 4037SOL    HW216467   3.074   2.444   1.386
 4037SOL    HW316468   2.951   2.505   1.449
 4037SOL    MW416469   3.032   2.472   1.457
 4038SOL     OW16470   2.021   2.343   0.695
 4038SOL    HW216471   2.083   2.350   0.768
 4038SOL    HW316472   2.021   2.250   0.672
 4038SOL    MW416473   2.029   2.332   0.702
 4039SOL     OW16474   3.568   3.683   0.227
 4039SOL    HW216475   3.635   3.716   0.167
 4039SOL    HW316476   3.525   3.762   0.261
 4039SOL    MW416477   3.570   3.698   0.223
 4040SOL     OW16478   2.703   2.604   1.179
 4040SOL    HW216479   2.661   2.522   1.155
 4040SOL    HW316480   2.704   2.603   1.275
 4040SOL    MW416481   2.696   2.593   1.188
 4041SOL     OW16482   3.374   3.737   1.578
 4041SOL    HW216483   3.377   3.643   1.561
 4041SOL    HW316484   3.397   3.745   1.670
 4041SOL    MW416485   3.377   3.725   1.588
 4042SOL     OW16486   2.507   2.074   1.284
 4042SOL    HW216487   2.438   2.137   1.305
 4042SOL    HW316488   2.534   2.038   1.369
 4042SOL    MW416489   2.501   2.077   1.297
 4043SOL     OW16490   1.890   2.915   0.153
 4043SOL    HW216491   1.859   2.980   0.216
 4043SOL    HW316492   1.839   2.837   0.172
 4043SOL    MW416493   1.880   2.912   0.163
 4044SOL     OW16494   3.302   1.927   0.901
 4044SOL    HW216495   3.390   1.936   0.938
 4044SOL    HW316496   3.312   1.868   0.827
 4044SOL    MW416497   3.316   1.921   0.895
 4045SOL     OW16498   3.334   2.666   0.745
 4045SOL    HW216499   3.414   2.681   0.694
 4045SOL    HW316500   3.327   2.571   0.751
 4045SOL    MW416501   3.343   2.655   0.740
 4046SOL     OW16502   2.474   3.715   0.095
 4046SOL    HW216503   2.379   3.715   0.087
 4046SOL    HW316504   2.490   3.661   0.173
 4046SOL    MW416505   2.464   3.709   0.104
 4047SOL     OW16506   2.784   2.592   1.442
 4047SOL    HW216507   2.853   2.659   1.439
 4047SOL    HW316508   2.717   2.630   1.498
 4047SOL    MW416509   2.785   2.605   1.449
 4048SOL     OW16510   2.202   2.892   1.690
 4048SOL    HW216511   2.156   2.808   1.692
 4048SOL    HW316512   2.259   2.886   1.614
 4048SOL    MW416513   2.204   2.880   1.682
 4049SOL     OW16514   3.319   2.535   0.011
 4049SOL    HW216515   3.247   2.511  -0.047
 4049SOL    HW316516   3.385   2.572  -0.047
 4049SOL    MW416517   3.318   2.537  -0.004
 4050SOL     OW16518   2.453   3.267   0.691
 4050SOL    HW216519   2.518   3.200   0.712
 4050SOL    HW316520   2.505   3.344   0.668
 4050SOL    MW416521   2.468   3.269   0.690
 4051SOL     OW16522   2.714   2.432   0.821
 4051SOL    HW216523   2.654   2.450   0.893
 4051SOL    HW316524   2.748   2.344   0.840
 4051SOL    MW416525   2.710   2.422   0.834
 4052SOL     OW16526   3.655   1.931   1.490
 4052SOL    HW216527   3.576   1.977   1.518
 4052SOL    HW316528   3.690   1.985   1.419
 4052SOL    MW416529   3.649   1.944   1.484
 4053SOL     OW16530   2.939   3.015   0.840
 4053SOL    HW216531   3.031   2.996   0.858
 4053SOL    HW316532   2.912   2.945   0.780
 4053SOL    MW416533   2.947   3.003   0.834
 4054SOL     OW16534   2.732   2.835   0.195
 4054SOL    HW216535   2.718   2.747   0.160
 4054SOL    HW316536   2.683   2.892   0.136
 4054SOL    MW416537   2.724   2.830   0.183
 4055SOL     OW16538   3.213   3.253   0.936
 4055SOL    HW216539   3.186   3.337   0.901
 4055SOL    HW316540   3.173   3.248   1.023
 4055SOL    MW416541   3.206   3.262   0.942
 4056SOL     OW16542   3.132   3.201   1.204
 4056SOL    HW216543   3.143   3.168   1.293
 4056SOL    HW316544   3.051   3.160   1.173
 4056SOL    MW416545   3.122   3.193   1.210
 4057SOL     OW16546   2.145   2.559   0.974
 4057SOL    HW216547   2.095   2.558   1.055
 4057SOL    HW316548   2.165   2.651   0.958
 4057SOL    MW416549   2.141   2.571   0.982
 4058SOL     OW16550   3.212   3.323   1.736
 4058SOL    HW216551   3.212   3.417   1.752
 4058SOL    HW316552   3.257   3.313   1.652
 4058SOL    MW416553   3.218   3.333   1.727
 4059SOL     OW16554   2.740   2.604   0.411
 4059SOL    HW216555   2.720   2.590   0.318
 4059SOL    HW316556   2.833   2.583   0.418
 4059SOL    MW416557   2.750   2.599   0.400
 4060SOL     OW16558   2.067   2.227   1.715
 4060SOL    HW216559   2.024   2.286   1.652
 4060SOL    HW316560   2.135   2.282   1.755
 4060SOL    MW416561   2.071   2.242   1.712
 4061SOL     OW16562   3.179   2.847   1.260
 4061SOL    HW216563   3.242   2.844   1.333
 4061SOL    HW316564   3.095   2.865   1.302
 4061SOL    MW416565   3.175   2.849   1.275
 4062SOL     OW16566   2.723   3.562   0.449
 4062SOL    HW216567   2.781   3.633   0.476
 4062SOL    HW316568   2.746   3.490   0.507
 4062SOL    MW416569   2.734   3.562   0.460
 4063SOL     OW16570   3.518   2.024   1.039
 4063SOL    HW216571   3.563   1.942   1.058
 4063SOL    HW316572   3.538   2.080   1.115
 4063SOL    MW416573   3.528   2.020   1.051
 4064SOL     OW16574   1.966   1.867   1.138
 4064SOL    HW216575   1.957   1.868   1.043
 4064SOL    HW316576   2.060   1.879   1.153
 4064SOL    MW416577   1.978   1.870   1.129
 4065SOL     OW16578   3.603   3.060   0.758
 4065SOL    HW216579   3.582   3.006   0.681
 4065SOL    HW316580   3.699   3.058   0.762
 4065SOL    MW416581   3.612   3.053   0.747
 4066SOL     OW16582   2.295   3.205   1.501
 4066SOL    HW216583   2.216   3.155   1.524
 4066SOL    HW316584   2.365   3.164   1.551
 4066SOL    MW416585   2.293   3.193   1.511
 4067SOL     OW16586   2.179   1.994   0.184
 4067SOL    HW216587   2.108   2.049   0.152
 4067SOL    HW316588   2.221   1.960   0.105
 4067SOL    MW416589   2.175   1.996   0.170
 4068SOL     OW16590   3.303   2.491   1.020
 4068SOL    HW216591   3.226   2.537   0.986
 4068SOL    HW316592   3.360   2.560   1.054
 4068SOL    MW416593   3.300   2.506   1.020
 4069SOL     OW16594   1.935   2.093   0.033
 4069SOL    HW216595   1.902   2.172   0.077
 4069SOL    HW316596   1.990   2.126  -0.038
 4069SOL    MW416597   1.938   2.107   0.030
 4070SOL     OW16598   1.969   3.350   0.222
 4070SOL    HW216599   1.986   3.434   0.264
 4070SOL    HW316600   2.004   3.359   0.134
 4070SOL    MW416601   1.974   3.363   0.216
 4071SOL     OW16602   3.241   3.439   0.439
 4071SOL    HW216603   3.304   3.429   0.368
 4071SOL    HW316604   3.158   3.459   0.394
 4071SOL    MW416605   3.238   3.440   0.424
 4072SOL     OW16606   3.604   2.707   2.125
 4072SOL    HW216607   3.645   2.649   2.190
 4072SOL    HW316608   3.511   2.699   2.142
 4072SOL    MW416609   3.598   2.699   2.135
 4073SOL     OW16610   3.470   2.639   3.120
 4073SOL    HW216611   3.425   2.706   3.171
 4073SOL    HW316612   3.558   2.675   3.106
 4073SOL    MW416613   3.476   2.652   3.124
 4074SOL     OW16614   2.398   2.890   2.354
 4074SOL    HW216615   2.488   2.865   2.338
 4074SOL    HW316616   2.394   2.983   2.331
 4074SOL    MW416617   2.410   2.899   2.349
 4075SOL     OW16618   3.514   3.593   2.496
 4075SOL    HW216619   3.526   3.539   2.574
 4075SOL    HW316620   3.551   3.541   2.425
 4075SOL    MW416621   3.520   3.578   2.497
 4076SOL     OW16622   2.893   3.478   3.497
 4076SOL    HW216623   2.934   3.514   3.418
 4076SOL    HW316624   2.928   3.389   3.504
 4076SOL    MW416625   2.904   3.471   3.488
 4077SOL     OW16626   3.450   3.033   3.101
 4077SOL    HW216627   3.371   2.998   3.059
 4077SOL    HW316628   3.477   3.105   3.045
 4077SOL    MW416629   3.443   3.038   3.088
 4078SOL     OW16630   2.682   2.346   2.367
 4078SOL    HW216631   2.657   2.434   2.395
 4078SOL    HW316632   2.679   2.349   2.271
 4078SOL    MW416633   2.678   2.358   2.359
 4079SOL     OW16634   2.124   2.374   2.295
 4079SOL    HW216635   2.156   2.462   2.277
 4079SOL    HW316636   2.112   2.372   2.390
 4079SOL    MW416637   2.127   2.386   2.307
 4080SOL     OW16638   2.202   2.787   3.196
 4080SOL    HW216639   2.265   2.734   3.147
 4080SOL    HW316640   2.183   2.861   3.139
 4080SOL    MW416641   2.208   2.789   3.183
 4081SOL     OW16642   2.523   2.129   2.382
 4081SOL    HW216643   2.581   2.205   2.384
 4081SOL    HW316644   2.458   2.150   2.315
 4081SOL    MW416645   2.522   2.141   2.373
 4082SOL     OW16646   2.610   3.056   2.557
 4082SOL    HW216647   2.690   3.059   2.609
 4082SOL    HW316648   2.638   3.023   2.471
 4082SOL    MW416649   2.624   3.052   2.552
 4083SOL     OW16650   2.635   3.397   3.460
 4083SOL    HW216651   2.719   3.423   3.499
 4083SOL    HW316652   2.659   3.341   3.386
 4083SOL    MW416653   2.649   3.393   3.455
 4084SOL     OW16654   2.387   2.560   2.548
 4084SOL    HW216655   2.372   2.480   2.599
 4084SOL    HW316656   2.469   2.595   2.582
 4084SOL    MW416657   2.395   2.552   2.560
 4085SOL     OW16658   2.724   3.246   3.233
 4085SOL    HW216659   2.688   3.312   3.173
 4085SOL    HW316660   2.652   3.184   3.246
 4085SOL    MW416661   2.710   3.246   3.227
 4086SOL     OW16662   2.529   2.386   2.925
 4086SOL    HW216663   2.435   2.382   2.943
 4086SOL    HW316664   2.559   2.295   2.934
 4086SOL    MW416665   2.520   2.374   2.928
 4087SOL     OW16666   2.275   2.800   2.829
 4087SOL    HW216667   2.230   2.807   2.745
 4087SOL    HW316668   2.255   2.883   2.873
 4087SOL    MW416669   2.267   2.812   2.823
 4088SOL     OW16670   1.972   3.646   2.704
 4088SOL    HW216671   2.061   3.638   2.739
 4088SOL    HW316672   1.936   3.558   2.709
 4088SOL    MW416673   1.979   3.633   2.709
 4089SOL     OW16674   3.237   3.038   2.073
 4089SOL    HW216675   3.155   3.074   2.039
 4089SOL    HW316676   3.305   3.081   2.022
 4089SOL    MW416677   3.235   3.048   2.061
 4090SOL     OW16678   2.236   3.173   2.739
 4090SOL    HW216679   2.212   3.226   2.815
 4090SOL    HW316680   2.292   3.231   2.687
 4090SOL    MW416681   2.240   3.188   2.742
 4091SOL     OW16682   2.798   2.817   2.549
 4091SOL    HW216683   2.712   2.804   2.589
 4091SOL    HW316684   2.851   2.744   2.581
 4091SOL    MW416685   2.794   2.806   2.558
 4092SOL     OW16686   2.206   3.469   3.334
 4092SOL    HW216687   2.114   3.445   3.319
 4092SOL    HW316688   2.250   3.386   3.351
 4092SOL    MW416689   2.200   3.454   3.333
 4093SOL     OW16690   2.789   3.179   2.266
 4093SOL    HW216691   2.766   3.241   2.334
 4093SOL    HW316692   2.746   3.097   2.292
 4093SOL    MW416693   2.781   3.175   2.277
 4094SOL     OW16694   3.662   2.180   2.722
 4094SOL    HW216695   3.599   2.160   2.791
 4094SOL    HW316696   3.652   2.109   2.659
 4094SOL    MW416697   3.652   2.167   2.723
 4095SOL     OW16698   2.286   2.152   2.234
 4095SOL    HW216699   2.260   2.114   2.150
 4095SOL    HW316700   2.223   2.222   2.250
 4095SOL    MW416701   2.275   2.155   2.225
 4096SOL     OW16702   2.121   3.113   2.271
 4096SOL    HW216703   2.069   3.181   2.227
 4096SOL    HW316704   2.118   3.039   2.211
 4096SOL    MW416705   2.113   3.112   2.258
 4097SOL     OW16706   2.783   3.576   2.049
 4097SOL    HW216707   2.738   3.592   2.132
 4097SOL    HW316708   2.714   3.541   1.991
 4097SOL    MW416709   2.769   3.573   2.051
 4098SOL     OW16710   3.718   2.349   2.024
 4098SOL    HW216711   3.627   2.351   2.052
 4098SOL    HW316712   3.763   2.411   2.082
 4098SOL    MW416713   3.711   2.357   2.034
 4099SOL     OW16714   3.463   2.952   2.374
 4099SOL    HW216715   3.373   2.952   2.409
 4099SOL    HW316716   3.456   2.998   2.291
 4099SOL    MW416717   3.450   2.958   2.368
 4100SOL     OW16718   3.263   2.587   3.446
 4100SOL    HW216719   3.332   2.525   3.423
 4100SOL    HW316720   3.188   2.561   3.393
 4100SOL    MW416721   3.263   2.574   3.437
 4101SOL     OW16722   2.004   3.467   2.998
 4101SOL    HW216723   1.987   3.413   3.075
 4101SOL    HW316724   1.992   3.557   3.028
 4101SOL    MW416725   2.001   3.471   3.012
 4102SOL     OW16726   2.999   2.974   3.438
 4102SOL    HW216727   2.984   3.067   3.423
 4102SOL    HW316728   3.094   2.964   3.438
 4102SOL    MW416729   3.008   2.984   3.435
 4103SOL     OW16730   2.795   2.398   3.639
 4103SOL    HW216731   2.885   2.399   3.606
 4103SOL    HW316732   2.754   2.323   3.597
 4103SOL    MW416733   2.801   2.388   3.630
 4104SOL     OW16734   3.370   2.930   2.766
 4104SOL    HW216735   3.373   2.864   2.697
 4104SOL    HW316736   3.455   2.973   2.762
 4104SOL    MW416737   3.382   2.926   2.757
 4105SOL     OW16738   2.990   2.533   2.335
 4105SOL    HW216739   3.016   2.557   2.246
 4105SOL    HW316740   2.972   2.440   2.331
 4105SOL    MW416741   2.992   2.525   2.322
 4106SOL     OW16742   3.655   3.153   2.186
 4106SOL    HW216743   3.611   3.194   2.261
 4106SOL    HW316744   3.712   3.221   2.151
 4106SOL    MW416745   3.657   3.167   2.191
 4107SOL     OW16746   2.575   2.202   3.589
 4107SOL    HW216747   2.585   2.128   3.529
 4107SOL    HW316748   2.611   2.171   3.672
 4107SOL    MW416749   2.581   2.188   3.591
 4108SOL     OW16750   2.311   3.569   2.504
 4108SOL    HW216751   2.343   3.657   2.482
 4108SOL    HW316752   2.264   3.541   2.426
 4108SOL    MW416753   2.310   3.577   2.491
 4109SOL     OW16754   3.695   1.931   2.553
 4109SOL    HW216755   3.749   1.882   2.615
 4109SOL    HW316756   3.638   1.865   2.514
 4109SOL    MW416757   3.695   1.915   2.555
 4110SOL     OW16758   2.027   3.629   2.081
 4110SOL    HW216759   2.056   3.719   2.073
 4110SOL    HW316760   1.977   3.612   2.002
 4110SOL    MW416761   2.025   3.637   2.070
 4111SOL     OW16762   2.814   1.884   2.966
 4111SOL    HW216763   2.773   1.962   2.928
 4111SOL    HW316764   2.908   1.902   2.961
 4111SOL    MW416765   2.820   1.896   2.961
 4112SOL     OW16766   3.431   3.437   2.052
 4112SOL    HW216767   3.479   3.506   2.098
 4112SOL    HW316768   3.352   3.481   2.021
 4112SOL    MW416769   3.426   3.451   2.055
 4113SOL     OW16770   2.829   2.562   1.996
 4113SOL    HW216771   2.831   2.509   1.917
 4113SOL    HW316772   2.917   2.599   2.002
 4113SOL    MW416773   2.841   2.561   1.985
 4114SOL     OW16774   3.443   2.488   2.332
 4114SOL    HW216775   3.482   2.488   2.419
 4114SOL    HW316776   3.384   2.564   2.332
 4114SOL    MW416777   3.440   2.499   2.343
 4115SOL     OW16778   2.760   2.855   3.461
 4115SOL    HW216779   2.737   2.835   3.551
 4115SOL    HW316780   2.845   2.899   3.466
 4115SOL    MW416781   2.767   2.858   3.473
 4116SOL     OW16782   2.840   1.992   3.221
 4116SOL    HW216783   2.846   1.954   3.134
 4116SOL    HW316784   2.829   2.086   3.206
 4116SOL    MW416785   2.841   2.000   3.209
 4117SOL     OW16786   2.929   2.481   3.055
 4117SOL    HW216787   3.004   2.510   3.002
 4117SOL    HW316788   2.861   2.546   3.039
 4117SOL    MW416789   2.930   2.493   3.045
 4118SOL     OW16790   3.479   2.449   3.332
 4118SOL    HW216791   3.460   2.358   3.311
 4118SOL    HW316792   3.457   2.498   3.253
 4118SOL    MW416793   3.474   2.442   3.319
 4119SOL     OW16794   3.621   3.543   3.236
 4119SOL    HW216795   3.549   3.505   3.287
 4119SOL    HW316796   3.638   3.628   3.277
 4119SOL    MW416797   3.615   3.548   3.248
 4120SOL     OW16798   2.926   2.187   3.438
 4120SOL    HW216799   2.892   2.226   3.357
 4120SOL    HW316800   2.904   2.095   3.431
 4120SOL    MW416801   2.919   2.180   3.428
 4121SOL     OW16802   3.335   3.001   3.514
 4121SOL    HW216803   3.417   3.042   3.544
 4121SOL    HW316804   3.298   2.963   3.594
 4121SOL    MW416805   3.341   3.002   3.529
 4122SOL     OW16806   3.630   2.374   2.498
 4122SOL    HW216807   3.719   2.343   2.515
 4122SOL    HW316808   3.573   2.314   2.546
 4122SOL    MW416809   3.633   2.362   2.507
 4123SOL     OW16810   2.056   2.088   2.527
 4123SOL    HW216811   2.047   2.028   2.453
 4123SOL    HW316812   1.989   2.059   2.590
 4123SOL    MW416813   2.046   2.075   2.525
 4124SOL     OW16814   2.999   3.181   2.088
 4124SOL    HW216815   2.949   3.183   2.170
 4124SOL    HW316816   2.933   3.199   2.020
 4124SOL    MW416817   2.985   3.183   2.090
 4125SOL     OW16818   2.003   2.261   2.890
 4125SOL    HW216819   1.975   2.352   2.899
 4125SOL    HW316820   1.940   2.222   2.829
 4125SOL    MW416821   1.990   2.267   2.884
 4126SOL     OW16822   2.462   3.599   2.196
 4126SOL    HW216823   2.383   3.557   2.229
 4126SOL    HW316824   2.528   3.582   2.263
 4126SOL    MW416825   2.461   3.591   2.209
 4127SOL     OW16826   3.590   3.119   3.593
 4127SOL    HW216827   3.640   3.045   3.625
 4127SOL    HW316828   3.536   3.146   3.668
 4127SOL    MW416829   3.590   3.113   3.606
 4128SOL     OW16830   2.598   3.014   1.903
 4128SOL    HW216831   2.520   2.960   1.890
 4128SOL    HW316832   2.569   3.087   1.956
 4128SOL    MW416833   2.584   3.016   1.908
 4129SOL     OW16834   3.724   2.754   3.095
 4129SOL    HW216835   3.740   2.792   3.008
 4129SOL    HW316836   3.758   2.820   3.156
 4129SOL    MW416837   3.731   2.767   3.091
 4130SOL     OW16838   3.516   3.463   2.764
 4130SOL    HW216839   3.545   3.530   2.825
 4130SOL    HW316840   3.497   3.387   2.819
 4130SOL    MW416841   3.518   3.463   2.779
 4131SOL     OW16842   3.179   3.530   1.971
 4131SOL    HW216843   3.105   3.493   2.021
 4131SOL    HW316844   3.187   3.620   2.004
 4131SOL    MW416845   3.170   3.537   1.983
 4132SOL     OW16846   1.987   2.536   3.060
 4132SOL    HW216847   2.049   2.566   3.126
 4132SOL    HW316848   1.921   2.605   3.054
 4132SOL    MW416849   1.986   2.549   3.067
 4133SOL     OW16850   3.403   3.204   1.913
 4133SOL    HW216851   3.350   3.253   1.849
 4133SOL    HW316852   3.434   3.270   1.974
 4133SOL    MW416853   3.401   3.218   1.911
 4134SOL     OW16854   2.628   2.093   1.968
 4134SOL    HW216855   2.576   2.013   1.956
 4134SOL    HW316856   2.715   2.070   1.936
 4134SOL    MW416857   2.631   2.079   1.962
 4135SOL     OW16858   2.082   3.645   3.512
 4135SOL    HW216859   2.056   3.713   3.450
 4135SOL    HW316860   2.130   3.582   3.460
 4135SOL    MW416861   2.084   3.645   3.498
 4136SOL     OW16862   2.134   2.964   3.019
 4136SOL    HW216863   2.187   3.039   3.044
 4136SOL    HW316864   2.053   3.002   2.985
 4136SOL    MW416865   2.130   2.979   3.019
 4137SOL     OW16866   2.674   2.868   3.007
 4137SOL    HW216867   2.702   2.777   3.019
 4137SOL    HW316868   2.603   2.862   2.943
 4137SOL    MW416869   2.667   2.856   3.002
 4138SOL     OW16870   1.989   2.733   2.425
 4138SOL    HW216871   2.080   2.748   2.452
 4138SOL    HW316872   1.992   2.654   2.371
 4138SOL    MW416873   2.001   2.725   2.423
 4139SOL     OW16874   2.225   2.441   3.679
 4139SOL    HW216875   2.172   2.521   3.686
 4139SOL    HW316876   2.295   2.453   3.744
 4139SOL    MW416877   2.227   2.454   3.687
 4140SOL     OW16878   2.611   1.991   3.386
 4140SOL    HW216879   2.588   1.899   3.388
 4140SOL    HW316880   2.697   1.993   3.343
 4140SOL    MW416881   2.618   1.981   3.382
 4141SOL     OW16882   2.295   2.515   3.425
 4141SOL    HW216883   2.375   2.565   3.411
 4141SOL    HW316884   2.286   2.509   3.520
 4141SOL    MW416885   2.304   2.521   3.435
 4142SOL     OW16886   2.616   3.665   2.799
 4142SOL    HW216887   2.705   3.680   2.829
 4142SOL    HW316888   2.611   3.712   2.715
 4142SOL    MW416889   2.626   3.673   2.792
 4143SOL     OW16890   3.272   2.040   3.696
 4143SOL    HW216891   3.328   1.967   3.722
 4143SOL    HW316892   3.242   2.078   3.778
 4143SOL    MW416893   3.276   2.035   3.709
 4144SOL     OW16894   1.997   3.345   2.464
 4144SOL    HW216895   1.969   3.384   2.546
 4144SOL    HW316896   2.017   3.254   2.486
 4144SOL    MW416897   1.995   3.337   2.477
 4145SOL     OW16898   2.830   3.388   2.499
 4145SOL    HW216899   2.913   3.342   2.483
 4145SOL    HW316900   2.820   3.387   2.595
 4145SOL    MW416901   2.840   3.381   2.509
 4146SOL     OW16902   3.662   2.533   2.813
 4146SOL    HW216903   3.751   2.563   2.795
 4146SOL    HW316904   3.642   2.473   2.742
 4146SOL    MW416905   3.671   2.530   2.802
 4147SOL     OW16906   3.513   2.712   3.693
 4147SOL    HW216907   3.568   2.636   3.674
 4147SOL    HW316908   3.515   2.720   3.788
 4147SOL    MW416909   3.521   2.703   3.701
 4148SOL     OW16910   2.563   3.445   1.904
 4148SOL    HW216911   2.503   3.514   1.874
 4148SOL    HW316912   2.508   3.387   1.957
 4148SOL    MW416913   2.547   3.447   1.906
 4149SOL     OW16914   3.001   2.090   2.127
 4149SOL    HW216915   2.934   2.066   2.064
 4149SOL    HW316916   3.066   2.139   2.076
 4149SOL    MW416917   3.001   2.092   2.112
 4150SOL     OW16918   2.808   2.274   3.212
 4150SOL    HW216919   2.727   2.315   3.240
 4150SOL    HW316920   2.855   2.342   3.164
 4150SOL    MW416921   2.803   2.289   3.210
 4151SOL     OW16922   3.068   2.612   2.835
 4151SOL    HW216923   3.081   2.706   2.845
 4151SOL    HW316924   3.029   2.602   2.749
 4151SOL    MW416925   3.064   2.623   2.825
 4152SOL     OW16926   2.520   2.807   2.639
 4152SOL    HW216927   2.431   2.798   2.672
 4152SOL    HW316928   2.524   2.897   2.607
 4152SOL    MW416929   2.509   2.818   2.639
 4153SOL     OW16930   3.319   2.390   2.634
 4153SOL    HW216931   3.264   2.311   2.633
 4153SOL    HW316932   3.301   2.431   2.718
 4153SOL    MW416933   3.309   2.385   2.643
 4154SOL     OW16934   2.290   2.077   3.451
 4154SOL    HW216935   2.211   2.095   3.503
 4154SOL    HW316936   2.285   2.139   3.378
 4154SOL    MW416937   2.280   2.087   3.448
 4155SOL     OW16938   2.938   2.594   2.591
 4155SOL    HW216939   2.875   2.526   2.615
 4155SOL    HW316940   2.958   2.575   2.499
 4155SOL    MW416941   2.932   2.581   2.583
 4156SOL     OW16942   2.194   3.489   2.293
 4156SOL    HW216943   2.155   3.536   2.219
 4156SOL    HW316944   2.128   3.424   2.318
 4156SOL    MW416945   2.181   3.487   2.287
 4157SOL     OW16946   2.686   2.898   2.317
 4157SOL    HW216947   2.688   2.872   2.224
 4157SOL    HW316948   2.744   2.835   2.360
 4157SOL    MW416949   2.694   2.887   2.311
 4158SOL     OW16950   3.239   3.458   3.089
 4158SOL    HW216951   3.164   3.504   3.127
 4158SOL    HW316952   3.221   3.365   3.106
 4158SOL    MW416953   3.228   3.452   3.097
 4159SOL     OW16954   3.243   3.666   2.519
 4159SOL    HW216955   3.186   3.619   2.458
 4159SOL    HW316956   3.329   3.627   2.506
 4159SOL    MW416957   3.246   3.657   2.509
 4160SOL     OW16958   3.196   2.142   2.650
 4160SOL    HW216959   3.224   2.074   2.711
 4160SOL    HW316960   3.110   2.113   2.620
 4160SOL    MW416961   3.189   2.129   2.654
 4161SOL     OW16962   2.001   3.076   2.584
 4161SOL    HW216963   2.065   3.108   2.647
 4161SOL    HW316964   2.050   3.012   2.532
 4161SOL    MW416965   2.016   3.072   2.585
 4162SOL     OW16966   2.501   3.152   3.566
 4162SOL    HW216967   2.549   3.235   3.553
 4162SOL    HW316968   2.558   3.100   3.622
 4162SOL    MW416969   2.515   3.156   3.572
 4163SOL     OW16970   2.077   3.394   3.706
 4163SOL    HW216971   2.133   3.318   3.721
 4163SOL    HW316972   2.026   3.372   3.628
 4163SOL    MW416973   2.077   3.381   3.697
 4164SOL     OW16974   3.176   2.246   1.985
 4164SOL    HW216975   3.149   2.312   1.921
 4164SOL    HW316976   3.246   2.289   2.035
 4164SOL    MW416977   3.181   2.259   1.982
 4165SOL     OW16978   2.844   1.951   1.922
 4165SOL    HW216979   2.900   1.943   1.844
 4165SOL    HW316980   2.821   1.861   1.944
 4165SOL    MW416981   2.849   1.938   1.915
 4166SOL     OW16982   3.349   2.802   2.127
 4166SOL    HW216983   3.316   2.891   2.117
 4166SOL    HW316984   3.314   2.773   2.212
 4166SOL    MW416985   3.339   2.811   2.138
 4167SOL     OW16986   2.962   3.231   3.315
 4167SOL    HW216987   2.873   3.237   3.283
 4167SOL    HW316988   3.006   3.310   3.283
 4167SOL    MW416989   2.957   3.241   3.307
 4168SOL     OW16990   2.255   1.899   3.657
 4168SOL    HW216991   2.183   1.864   3.605
 4168SOL    HW316992   2.313   1.940   3.592
 4168SOL    MW416993   2.253   1.900   3.642
 4169SOL     OW16994   2.279   3.389   2.956
 4169SOL    HW216995   2.324   3.451   3.013
 4169SOL    HW316996   2.186   3.408   2.969
 4169SOL    MW416997   2.272   3.399   2.963
 4170SOL     OW16998   3.719   2.918   3.310
 4170SOL    HW216999   3.634   2.931   3.269
 4170SOL    HW317000   3.699   2.882   3.397
 4170SOL    MW417001   3.706   2.914   3.315
 4171SOL     OW17002   2.701   3.457   3.064
 4171SOL    HW217003   2.725   3.446   2.973
 4171SOL    HW317004   2.624   3.514   3.062
 4171SOL    MW417005   2.693   3.462   3.053
 4172SOL     OW17006   2.343   2.840   1.919
 4172SOL    HW217007   2.266   2.853   1.975
 4172SOL    HW317008   2.307   2.804   1.838
 4172SOL    MW417009   2.329   2.836   1.916
 4173SOL     OW17010   2.996   2.813   2.162
 4173SOL    HW217011   2.906   2.834   2.137
 4173SOL    HW317012   3.023   2.886   2.218
 4173SOL    MW417013   2.988   2.825   2.165
 4174SOL     OW17014   2.496   3.162   2.854
 4174SOL    HW217015   2.489   3.141   2.948
 4174SOL    HW317016   2.414   3.130   2.817
 4174SOL    MW417017   2.484   3.156   2.861
 4175SOL     OW17018   3.360   2.172   3.256
 4175SOL    HW217019   3.307   2.174   3.336
 4175SOL    HW317020   3.345   2.085   3.219
 4175SOL    MW417021   3.352   2.162   3.261
 4176SOL     OW17022   3.696   2.096   3.129
 4176SOL    HW217023   3.677   2.163   3.064
 4176SOL    HW317024   3.753   2.034   3.084
 4176SOL    MW417025   3.700   2.097   3.115
 4177SOL     OW17026   1.942   3.254   3.517
 4177SOL    HW217027   1.986   3.187   3.463
 4177SOL    HW317028   1.857   3.216   3.537
 4177SOL    MW417029   1.937   3.240   3.513
 4178SOL     OW17030   2.625   1.929   2.569
 4178SOL    HW217031   2.554   1.990   2.551
 4178SOL    HW317032   2.676   1.926   2.488
 4178SOL    MW417033   2.621   1.935   2.556
 4179SOL     OW17034   2.383   3.169   2.318
 4179SOL    HW217035   2.376   3.201   2.408
 4179SOL    HW317036   2.293   3.153   2.290
 4179SOL    MW417037   2.371   3.171   2.325
 4180SOL     OW17038   2.978   3.562   3.227
 4180SOL    HW217039   2.898   3.547   3.177
 4180SOL    HW317040   2.985   3.657   3.234
 4180SOL    MW417041   2.969   3.573   3.221
 4181SOL     OW17042   3.092   3.527   2.717
 4181SOL    HW217043   3.139   3.600   2.676
 4181SOL    HW317044   3.013   3.566   2.753
 4181SOL    MW417045   3.087   3.542   2.716
 4182SOL     OW17046   3.500   3.622   2.992
 4182SOL    HW217047   3.543   3.592   3.072
 4182SOL    HW317048   3.419   3.570   2.989
 4182SOL    MW417049   3.495   3.611   3.002
 4183SOL     OW17050   2.585   2.586   3.699
 4183SOL    HW217051   2.655   2.528   3.671
 4183SOL    HW317052   2.528   2.531   3.754
 4183SOL    MW417053   2.587   2.573   3.703
 4184SOL     OW17054   3.372   2.798   3.332
 4184SOL    HW217055   3.377   2.851   3.412
 4184SOL    HW317056   3.334   2.715   3.360
 4184SOL    MW417057   3.368   2.793   3.347
 4185SOL     OW17058   3.012   1.933   3.578
 4185SOL    HW217059   3.007   1.840   3.559
 4185SOL    HW317060   3.095   1.944   3.624
 4185SOL    MW417061   3.020   1.922   3.582
 4186SOL     OW17062   2.386   2.453   2.032
 4186SOL    HW217063   2.352   2.509   2.102
 4186SOL    HW317064   2.457   2.403   2.072
 4186SOL    MW417065   2.392   2.454   2.046
 4187SOL     OW17066   3.482   3.204   2.854
 4187SOL    HW217067   3.517   3.186   2.767
 4187SOL    HW317068   3.387   3.205   2.841
 4187SOL    MW417069   3.474   3.201   2.841
 4188SOL     OW17070   2.911   2.852   3.223
 4188SOL    HW217071   2.954   2.887   3.301
 4188SOL    HW317072   2.894   2.929   3.169
 4188SOL    MW417073   2.914   2.867   3.226
 4189SOL     OW17074   3.442   2.339   2.096
 4189SOL    HW217075   3.434   2.410   2.033
 4189SOL    HW317076   3.460   2.383   2.179
 4189SOL    MW417077   3.443   2.353   2.098
 4190SOL     OW17078   2.302   1.994   2.525
 4190SOL    HW217079   2.352   2.037   2.456
 4190SOL    HW317080   2.217   2.038   2.525
 4190SOL    MW417081   2.299   2.007   2.516
 4191SOL     OW17082   2.061   3.056   3.385
 4191SOL    HW217083   2.089   3.009   3.463
 4191SOL    HW317084   1.982   3.011   3.356
 4191SOL    MW417085   2.054   3.045   3.391
 4192SOL     OW17086   2.569   2.383   3.352
 4192SOL    HW217087   2.541   2.471   3.376
 4192SOL    HW317088   2.538   2.327   3.423
 4192SOL    MW417089   2.561   2.386   3.364
 4193SOL     OW17090   3.111   2.601   2.071
 4193SOL    HW217091   3.158   2.619   1.990
 4193SOL    HW317092   3.077   2.685   2.099
 4193SOL    MW417093   3.113   2.615   2.064
 4194SOL     OW17094   2.224   2.779   2.565
 4194SOL    HW217095   2.282   2.835   2.513
 4194SOL    HW317096   2.268   2.694   2.567
 4194SOL    MW417097   2.237   2.776   2.558
 4195SOL     OW17098   3.364   2.131   2.402
 4195SOL    HW217099   3.286   2.081   2.427
 4195SOL    HW317100   3.335   2.222   2.402
 4195SOL    MW417101   3.350   2.135   2.405
 4196SOL     OW17102   2.950   2.093   2.561
 4196SOL    HW217103   2.970   2.168   2.505
 4196SOL    HW317104   2.930   2.132   2.646
 4196SOL    MW417105   2.951   2.109   2.565
 4197SOL     OW17106   2.846   3.343   1.893
 4197SOL    HW217107   2.873   3.421   1.845
 4197SOL    HW317108   2.753   3.358   1.912
 4197SOL    MW417109   2.837   3.356   1.889
 4198SOL     OW17110   3.710   2.866   3.580
 4198SOL    HW217111   3.623   2.846   3.616
 4198SOL    HW317112   3.764   2.792   3.605
 4198SOL    MW417113   3.705   2.855   3.588
 4199SOL     OW17114   1.931   3.379   2.737
 4199SOL    HW217115   1.963   3.383   2.828
 4199SOL    HW317116   1.836   3.387   2.745
 4199SOL    MW417117   1.923   3.382   2.750
 4200SOL     OW17118   1.886   2.505   2.284
 4200SOL    HW217119   1.826   2.477   2.354
 4200SOL    HW317120   1.960   2.445   2.290
 4200SOL    MW417121   1.888   2.494   2.293
 4201SOL     OW17122   3.454   3.717   3.718
 4201SOL    HW217123   3.499   3.641   3.683
 4201SOL    HW317124   3.492   3.730   3.805
 4201SOL    MW417125   3.464   3.710   3.724
 4202SOL     OW17126   3.054   3.236   2.444
 4202SOL    HW217127   3.077   3.187   2.522
 4202SOL    HW317128   3.135   3.278   2.416
 4202SOL    MW417129   3.067   3.236   2.451
 4203SOL     OW17130   2.312   2.244   3.173
 4203SOL    HW217131   2.345   2.325   3.213
 4203SOL    HW317132   2.285   2.270   3.085
 4203SOL    MW417133   2.311   2.258   3.167
 4204SOL     OW17134   2.266   2.211   2.909
 4204SOL    HW217135   2.296   2.125   2.880
 4204SOL    HW317136   2.171   2.204   2.912
 4204SOL    MW417137   2.258   2.200   2.907
 4205SOL     OW17138   3.095   2.420   3.600
 4205SOL    HW217139   3.147   2.355   3.553
 4205SOL    HW317140   3.053   2.471   3.530
 4205SOL    MW417141   3.096   2.417   3.583
 4206SOL     OW17142   3.194   2.215   3.461
 4206SOL    HW217143   3.101   2.199   3.448
 4206SOL    HW317144   3.220   2.153   3.529
 4206SOL    MW417145   3.184   2.205   3.468
 4207SOL     OW17146   2.409   1.989   2.800
 4207SOL    HW217147   2.419   1.898   2.826
 4207SOL    HW317148   2.365   1.985   2.715
 4207SOL    MW417149   2.405   1.977   2.792
 4208SOL     OW17150   2.503   3.604   3.346
 4208SOL    HW217151   2.420   3.589   3.391
 4208SOL    HW317152   2.562   3.537   3.381
 4208SOL    MW417153   2.501   3.594   3.356
 4209SOL     OW17154   3.560   2.311   2.971
 4209SOL    HW217155   3.493   2.344   3.031
 4209SOL    HW317156   3.603   2.389   2.937
 4209SOL    MW417157   3.558   2.326   2.975
 4210SOL     OW17158   3.738   3.031   2.941
 4210SOL    HW217159   3.731   2.971   2.866
 4210SOL    HW317160   3.664   3.091   2.930
 4210SOL    MW417161   3.728   3.031   2.930
 4211SOL     OW17162   3.120   2.893   2.859
 4211SOL    HW217163   3.134   2.865   2.950
 4211SOL    HW317164   3.206   2.924   2.831
 4211SOL    MW417165   3.133   2.894   2.868
 4212SOL     OW17166   3.203   2.388   3.138
 4212SOL    HW217167   3.224   2.389   3.045
 4212SOL    HW317168   3.248   2.310   3.171
 4212SOL    MW417169   3.210   2.378   3.130
 4213SOL     OW17170   3.696   2.519   3.680
 4213SOL    HW217171   3.733   2.464   3.749
 4213SOL    HW317172   3.721   2.476   3.598
 4213SOL    MW417173   3.703   2.507   3.679
 4214SOL     OW17174   3.243   2.817   3.731
 4214SOL    HW217175   3.309   2.765   3.685
 4214SOL    HW317176   3.263   2.804   3.824
 4214SOL    MW417177   3.254   2.808   3.738
 4215SOL     OW17178   3.194   1.903   2.080
 4215SOL    HW217179   3.268   1.947   2.123
 4215SOL    HW317180   3.118   1.957   2.102
 4215SOL    MW417181   3.194   1.915   2.088
 4216SOL     OW17182   3.254   2.678   2.358
 4216SOL    HW217183   3.169   2.648   2.328
 4216SOL    HW317184   3.246   2.685   2.453
 4216SOL    MW417185   3.242   2.676   2.367
 4217SOL     OW17186   2.330   3.141   3.089
 4217SOL    HW217187   2.342   3.168   3.180
 4217SOL    HW317188   2.311   3.222   3.042
 4217SOL    MW417189   2.329   3.156   3.094
 4218SOL     OW17190   2.614   2.121   2.912
 4218SOL    HW217191   2.587   2.123   3.003
 4218SOL    HW317192   2.544   2.073   2.867
 4218SOL    MW417193   2.602   2.117   2.919
 4219SOL     OW17194   2.468   3.613   3.074
 4219SOL    HW217195   2.520   3.690   3.051
 4219SOL    HW317196   2.477   3.605   3.169
 4219SOL    MW417197   2.477   3.620   3.085
 4220SOL     OW17198   3.370   3.198   3.306
 4220SOL    HW217199   3.355   3.127   3.369
 4220SOL    HW317200   3.416   3.156   3.234
 4220SOL    MW417201   3.376   3.182   3.306
 4221SOL     OW17202   2.444   2.929   3.423
 4221SOL    HW217203   2.481   2.934   3.335
 4221SOL    HW317204   2.483   3.002   3.470
 4221SOL    MW417205   2.454   2.939   3.418
 4222SOL     OW17206   2.624   2.972   3.235
 4222SOL    HW217207   2.683   2.918   3.288
 4222SOL    HW317208   2.639   2.944   3.145
 4222SOL    MW417209   2.634   2.961   3.231
 4223SOL     OW17210   2.627   2.344   2.084
 4223SOL    HW217211   2.700   2.393   2.047
 4223SOL    HW317212   2.643   2.253   2.058
 4223SOL    MW417213   2.639   2.339   2.077
 4224SOL     OW17214   3.435   3.461   3.407
 4224SOL    HW217215   3.477   3.446   3.492
 4224SOL    HW317216   3.426   3.374   3.369
 4224SOL    MW417217   3.439   3.449   3.414
 4225SOL     OW17218   3.095   1.940   2.998
 4225SOL    HW217219   3.150   1.949   2.920
 4225SOL    HW317220   3.150   1.974   3.069
 4225SOL    MW417221   3.109   1.945   2.997
 4226SOL     OW17222   2.102   2.853   2.182
 4226SOL    HW217223   2.039   2.869   2.111
 4226SOL    HW317224   2.049   2.816   2.253
 4226SOL    MW417225   2.087   2.850   2.182
 4227SOL     OW17226   2.458   3.207   2.041
 4227SOL    HW217227   2.473   3.183   2.133
 4227SOL    HW317228   2.366   3.185   2.025
 4227SOL    MW417229   2.448   3.200   2.051
 4228SOL     OW17230   2.997   3.438   2.193
 4228SOL    HW217231   3.005   3.356   2.144
 4228SOL    HW317232   2.916   3.477   2.160
 4228SOL    MW417233   2.987   3.433   2.183
 4229SOL     OW17234   2.256   3.596   2.762
 4229SOL    HW217235   2.260   3.507   2.797
 4229SOL    HW317236   2.282   3.587   2.671
 4229SOL    MW417237   2.259   3.584   2.754
 4230SOL     OW17238   2.873   3.074   3.005
 4230SOL    HW217239   2.805   3.008   3.021
 4230SOL    HW317240   2.891   3.068   2.912
 4230SOL    MW417241   2.866   3.065   2.996
 4231SOL     OW17242   1.962   3.349   3.256
 4231SOL    HW217243   1.952   3.307   3.342
 4231SOL    HW317244   1.883   3.402   3.246
 4231SOL    MW417245   1.951   3.350   3.267
 4232SOL     OW17246   2.866   2.213   2.826
 4232SOL    HW217247   2.796   2.165   2.871
 4232SOL    HW317248   2.898   2.276   2.890
 4232SOL    MW417249   2.861   2.215   2.840
 4233SOL     OW17250   2.517   2.649   3.446
 4233SOL    HW217251   2.510   2.744   3.434
 4233SOL    HW317252   2.526   2.638   3.541
 4233SOL    MW417253   2.518   2.661   3.456
 4234SOL     OW17254   2.238   3.164   3.704
 4234SOL    HW217255   2.310   3.166   3.641
 4234SOL    HW317256   2.208   3.073   3.703
 4234SOL    MW417257   2.243   3.153   3.696
 4235SOL     OW17258   3.322   1.927   3.171
 4235SOL    HW217259   3.393   1.873   3.135
 4235SOL    HW317260   3.321   1.906   3.264
 4235SOL    MW417261   3.331   1.918   3.179
 4236SOL     OW17262   3.522   3.457   3.655
 4236SOL    HW217263   3.495   3.454   3.746
 4236SOL    HW317264   3.618   3.461   3.658
 4236SOL    MW417265   3.532   3.457   3.667
 4237SOL     OW17266   2.333   2.319   2.639
 4237SOL    HW217267   2.404   2.267   2.602
 4237SOL    HW317268   2.319   2.284   2.726
 4237SOL    MW417269   2.341   2.308   2.646
 4238SOL     OW17270   1.888   3.654   3.711
 4238SOL    HW217271   1.938   3.632   3.633
 4238SOL    HW317272   1.896   3.749   3.719
 4238SOL    MW417273   1.896   3.663   3.702
 4239SOL     OW17274   2.649   3.412   2.715
 4239SOL    HW217275   2.577   3.349   2.728
 4239SOL    HW317276   2.610   3.497   2.733
 4239SOL    MW417277   2.633   3.415   2.718
 4240SOL     OW17278   2.969   2.260   2.363
 4240SOL    HW217279   2.991   2.197   2.295
 4240SOL    HW317280   2.874   2.252   2.374
 4240SOL    MW417281   2.959   2.251   2.355
 4241SOL     OW17282   2.054   1.950   2.295
 4241SOL    HW217283   2.125   1.971   2.234
 4241SOL    HW317284   2.008   1.878   2.253
 4241SOL    MW417285   2.058   1.944   2.281
 4242SOL     OW17286   1.885   2.417   3.438
 4242SOL    HW217287   1.949   2.483   3.413
 4242SOL    HW317288   1.804   2.444   3.395
 4242SOL    MW417289   1.883   2.429   3.430
 4243SOL     OW17290   3.623   3.324   2.395
 4243SOL    HW217291   3.593   3.257   2.456
 4243SOL    HW317292   3.717   3.330   2.409
 4243SOL    MW417293   3.631   3.316   2.405
 4244SOL     OW17294   3.179   3.001   2.325
 4244SOL    HW217295   3.151   3.087   2.358
 4244SOL    HW317296   3.207   3.017   2.235
 4244SOL    MW417297   3.179   3.015   2.317
 4245SOL     OW17298   2.841   1.921   2.378
 4245SOL    HW217299   2.878   1.980   2.443
 4245SOL    HW317300   2.818   1.977   2.304
 4245SOL    MW417301   2.842   1.936   2.377
 4246SOL     OW17302   3.694   2.803   2.800
 4246SOL    HW217303   3.685   2.835   2.711
 4246SOL    HW317304   3.647   2.719   2.800
 4246SOL    MW417305   3.687   2.796   2.790
 4247SOL     OW17306   2.070   2.643   3.379
 4247SOL    HW217307   2.091   2.712   3.317
 4247SOL    HW317308   2.150   2.590   3.384
 4247SOL    MW417309   2.083   2.644   3.373
 4248SOL     OW17310   3.606   2.734   2.501
 4248SOL    HW217311   3.700   2.723   2.489
 4248SOL    HW317312   3.582   2.806   2.442
 4248SOL    MW417313   3.616   2.742   2.492
 4249SOL     OW17314   2.055   2.658   3.646
 4249SOL    HW217315   1.981   2.602   3.672
 4249SOL    HW317316   2.050   2.661   3.551
 4249SOL    MW417317   2.044   2.651   3.636
 4250SOL     OW17318   2.221   1.945   3.096
 4250SOL    HW217319   2.264   2.029   3.116
 4250SOL    HW317320   2.294   1.883   3.089
 4250SOL    MW417321   2.236   1.948   3.097
 4251SOL     OW17322   2.262   2.612   2.274
 4251SOL    HW217323   2.262   2.707   2.259
 4251SOL    HW317324   2.339   2.596   2.328
 4251SOL    MW417325   2.272   2.623   2.279
 4252SOL     OW17326   3.038   2.471   3.338
 4252SOL    HW217327   3.074   2.444   3.254
 4252SOL    HW317328   2.951   2.505   3.317
 4252SOL    MW417329   3.032   2.472   3.325
 4253SOL     OW17330   2.021   2.343   2.563
 4253SOL    HW217331   2.083   2.350   2.636
 4253SOL    HW317332   2.021   2.250   2.540
 4253SOL    MW417333   2.029   2.332   2.570
 4254SOL     OW17334   3.568   3.683   2.095
 4254SOL    HW217335   3.635   3.716   2.035
 4254SOL    HW317336   3.525   3.762   2.129
 4254SOL    MW417337   3.570   3.698   2.091
 4255SOL     OW17338   2.703   2.604   3.047
 4255SOL    HW217339   2.661   2.522   3.023
 4255SOL    HW317340   2.704   2.603   3.143
 4255SOL    MW417341   2.696   2.593   3.056
 4256SOL     OW17342   3.374   3.737   3.446
 4256SOL    HW217343   3.377   3.643   3.429
 4256SOL    HW317344   3.397   3.745   3.538
 4256SOL    MW417345   3.377   3.725   3.456
 4257SOL     OW17346   2.507   2.074   3.152
 4257SOL    HW217347   2.438   2.137   3.173
 4257SOL    HW317348   2.534   2.038   3.237
 4257SOL    MW417349   2.501   2.077   3.165
 4258SOL     OW17350   1.890   2.915   2.021
 4258SOL    HW217351   1.859   2.980   2.084
 4258SOL    HW317352   1.839   2.837   2.040
 4258SOL    MW417353   1.880   2.912   2.031
 4259SOL     OW17354   3.302   1.927   2.769
 4259SOL    HW217355   3.390   1.936   2.806
 4259SOL    HW317356   3.312   1.868   2.695
 4259SOL    MW417357   3.316   1.921   2.763
 4260SOL     OW17358   3.334   2.666   2.613
 4260SOL    HW217359   3.414   2.681   2.562
 4260SOL    HW317360   3.327   2.571   2.619
 4260SOL    MW417361   3.343   2.655   2.608
 4261SOL     OW17362   2.474   3.715   1.963
 4261SOL    HW217363   2.379   3.715   1.955
 4261SOL    HW317364   2.490   3.661   2.041
 4261SOL    MW417365   2.464   3.709   1.972
 4262SOL     OW17366   2.784   2.592   3.310
 4262SOL    HW217367   2.853   2.659   3.307
 4262SOL    HW317368   2.717   2.630   3.366
 4262SOL    MW417369   2.785   2.605   3.317
 4263SOL     OW17370   2.202   2.892   3.558
 4263SOL    HW217371   2.156   2.808   3.560
 4263SOL    HW317372   2.259   2.886   3.482
 4263SOL    MW417373   2.204   2.880   3.550
 4264SOL     OW17374   3.319   2.535   1.879
 4264SOL    HW217375   3.247   2.511   1.821
 4264SOL    HW317376   3.385   2.572   1.821
 4264SOL    MW417377   3.318   2.537   1.864
 4265SOL     OW17378   2.453   3.267   2.559
 4265SOL    HW217379   2.518   3.200   2.580
 4265SOL    HW317380   2.505   3.344   2.536
 4265SOL    MW417381   2.468   3.269   2.558
 4266SOL     OW17382   2.714   2.432   2.689
 4266SOL    HW217383   2.654   2.450   2.761
 4266SOL    HW317384   2.748   2.344   2.708
 4266SOL    MW417385   2.710   2.422   2.702
 4267SOL     OW17386   3.655   1.931   3.358
 4267SOL    HW217387   3.576   1.977   3.386
 4267SOL    HW317388   3.690   1.985   3.287
 4267SOL    MW417389   3.649   1.944   3.352
 4268SOL     OW17390   2.939   3.015   2.708
 4268SOL    HW217391   3.031   2.996   2.726
 4268SOL    HW317392   2.912   2.945   2.648
 4268SOL    MW417393   2.947   3.003   2.702
 4269SOL     OW17394   2.732   2.835   2.063
 4269SOL    HW217395   2.718   2.747   2.028
 4269SOL    HW317396   2.683   2.892   2.004
 4269SOL    MW417397   2.724   2.830   2.051
 4270SOL     OW17398   3.213   3.253   2.804
 4270SOL    HW217399   3.186   3.337   2.769
 4270SOL    HW317400   3.173   3.248   2.891
 4270SOL    MW417401   3.206   3.262   2.810
 4271SOL     OW17402   3.132   3.201   3.072
 4271SOL    HW217403   3.143   3.168   3.161
 4271SOL    HW317404   3.051   3.160   3.041
 4271SOL    MW417405   3.122   3.193   3.078
 4272SOL     OW17406   2.145   2.559   2.842
 4272SOL    HW217407   2.095   2.558   2.923
 4272SOL    HW317408   2.165   2.651   2.826
 4272SOL    MW417409   2.141   2.571   2.850
 4273SOL     OW17410   3.212   3.323   3.604
 4273SOL    HW217411   3.212   3.417   3.620
 4273SOL    HW317412   3.257   3.313   3.520
 4273SOL    MW417413   3.218   3.333   3.595
 4274SOL     OW17414   3.451   2.041   2.165
 4274SOL    HW217415   3.444   2.045   2.260
 4274SOL    HW317416   3.463   2.132   2.138
 4274SOL    MW417417   3.452   2.054   2.173
 4275SOL     OW17418   2.740   2.604   2.279
 4275SOL    HW217419   2.720   2.590   2.186
 4275SOL    HW317420   2.833   2.583   2.286
 4275SOL    MW417421   2.750   2.599   2.268
 4276SOL     OW17422   2.067   2.227   3.583
 4276SOL    HW217423   2.024   2.286   3.520
 4276SOL    HW317424   2.135   2.282   3.623
 4276SOL    MW417425   2.071   2.242   3.580
 4277SOL     OW17426   3.179   2.847   3.128
 4277SOL    HW217427   3.242   2.844   3.201
 4277SOL    HW317428   3.095   2.865   3.170
 4277SOL    MW417429   3.175   2.849   3.143
 4278SOL     OW17430   2.723   3.562   2.317
 4278SOL    HW217431   2.781   3.633   2.344
 4278SOL    HW317432   2.746   3.490   2.375
 4278SOL    MW417433   2.734   3.562   2.328
 4279SOL     OW17434   3.518   2.024   2.907
 4279SOL    HW217435   3.563   1.942   2.926
 4279SOL    HW317436   3.538   2.080   2.983
 4279SOL    MW417437   3.528   2.020   2.919
 4280SOL     OW17438   1.966   1.867   3.006
 4280SOL    HW217439   1.957   1.868   2.911
 4280SOL    HW317440   2.060   1.879   3.021
 4280SOL    MW417441   1.978   1.870   2.997
 4281SOL     OW17442   3.603   3.060   2.626
 4281SOL    HW217443   3.582   3.006   2.549
 4281SOL    HW317444   3.699   3.058   2.630
 4281SOL    MW417445   3.612   3.053   2.615
 4282SOL     OW17446   2.295   3.205   3.369
 4282SOL    HW217447   2.216   3.155   3.392
 4282SOL    HW317448   2.365   3.164   3.419
 4282SOL    MW417449   2.293   3.193   3.379
 4283SOL     OW17450   2.179   1.994   2.052
 4283SOL    HW217451   2.108   2.049   2.020
 4283SOL    HW317452   2.221   1.960   1.973
 4283SOL    MW417453   2.175   1.996   2.038
 4284SOL     OW17454   3.303   2.491   2.888
 4284SOL    HW217455   3.226   2.537   2.854
 4284SOL    HW317456   3.360   2.560   2.922
 4284SOL    MW417457   3.300   2.506   2.888
 4285SOL     OW17458   1.935   2.093   1.901
 4285SOL    HW217459   1.902   2.172   1.945
 4285SOL    HW317460   1.990   2.126   1.830
 4285SOL    MW417461   1.938   2.107   1.898
 4286SOL     OW17462   1.969   3.350   2.090
 4286SOL    HW217463   1.986   3.434   2.132
 4286SOL    HW317464   2.004   3.359   2.002
 4286SOL    MW417465   1.974   3.363   2.084
 4287SOL     OW17466   3.241   3.439   2.307
 4287SOL    HW217467   3.304   3.429   2.236
 4287SOL    HW317468   3.158   3.459   2.262
 4287SOL    MW417469   3.238   3.440   2.292
 4288SOL     OW17470   3.604   2.707   3.993
 4288SOL    HW217471   3.645   2.649   4.058
 4288SOL    HW317472   3.511   2.699   4.010
 4288SOL    MW417473   3.598   2.699   4.003
 4289SOL     OW17474   3.470   2.639   4.988
 4289SOL    HW217475   3.425   2.706   5.039
 4289SOL    HW317476   3.558   2.675   4.974
 4289SOL    MW417477   3.476   2.652   4.992
 4290SOL     OW17478   2.398   2.890   4.222
 4290SOL    HW217479   2.488   2.865   4.206
 4290SOL    HW317480   2.394   2.983   4.199
 4290SOL    MW417481   2.410   2.899   4.217
 4291SOL     OW17482   3.514   3.593   4.364
 4291SOL    HW217483   3.526   3.539   4.442
 4291SOL    HW317484   3.551   3.541   4.293
 4291SOL    MW417485   3.520   3.578   4.365
 4292SOL     OW17486   2.893   3.478   5.365
 4292SOL    HW217487   2.934   3.514   5.286
 4292SOL    HW317488   2.928   3.389   5.372
 4292SOL    MW417489   2.904   3.471   5.356
 4293SOL     OW17490   3.450   3.033   4.969
 4293SOL    HW217491   3.371   2.998   4.927
 4293SOL    HW317492   3.477   3.105   4.913
 4293SOL    MW417493   3.443   3.038   4.956
 4294SOL     OW17494   2.682   2.346   4.235
 4294SOL    HW217495   2.657   2.434   4.263
 4294SOL    HW317496   2.679   2.349   4.139
 4294SOL    MW417497   2.678   2.358   4.227
 4295SOL     OW17498   2.124   2.374   4.163
 4295SOL    HW217499   2.156   2.462   4.145
 4295SOL    HW317500   2.112   2.372   4.258
 4295SOL    MW417501   2.127   2.386   4.175
 4296SOL     OW17502   2.202   2.787   5.064
 4296SOL    HW217503   2.265   2.734   5.015
 4296SOL    HW317504   2.183   2.861   5.007
 4296SOL    MW417505   2.208   2.789   5.051
 4297SOL     OW17506   2.523   2.129   4.250
 4297SOL    HW217507   2.581   2.205   4.252
 4297SOL    HW317508   2.458   2.150   4.183
 4297SOL    MW417509   2.522   2.141   4.241
 4298SOL     OW17510   2.610   3.056   4.425
 4298SOL    HW217511   2.690   3.059   4.477
 4298SOL    HW317512   2.638   3.023   4.339
 4298SOL    MW417513   2.624   3.052   4.420
 4299SOL     OW17514   2.635   3.397   5.328
 4299SOL    HW217515   2.719   3.423   5.367
 4299SOL    HW317516   2.659   3.341   5.254
 4299SOL    MW417517   2.649   3.393   5.323
 4300SOL     OW17518   2.387   2.560   4.416
 4300SOL    HW217519   2.372   2.480   4.467
 4300SOL    HW317520   2.469   2.595   4.450
 4300SOL    MW417521   2.395   2.552   4.428
 4301SOL     OW17522   2.724   3.246   5.101
 4301SOL    HW217523   2.688   3.312   5.041
 4301SOL    HW317524   2.652   3.184   5.114
 4301SOL    MW417525   2.710   3.246   5.095
 4302SOL     OW17526   2.529   2.386   4.793
 4302SOL    HW217527   2.435   2.382   4.811
 4302SOL    HW317528   2.559   2.295   4.802
 4302SOL    MW417529   2.520   2.374   4.796
 4303SOL     OW17530   2.275   2.800   4.697
 4303SOL    HW217531   2.230   2.807   4.613
 4303SOL    HW317532   2.255   2.883   4.741
 4303SOL    MW417533   2.267   2.812   4.691
 4304SOL     OW17534   1.972   3.646   4.572
 4304SOL    HW217535   2.061   3.638   4.607
 4304SOL    HW317536   1.936   3.558   4.577
 4304SOL    MW417537   1.979   3.633   4.577
 4305SOL     OW17538   2.236   3.173   4.607
 4305SOL    HW217539   2.212   3.226   4.683
 4305SOL    HW317540   2.292   3.231   4.555
 4305SOL    MW417541   2.240   3.188   4.610
 4306SOL     OW17542   2.798   2.817   4.417
 4306SOL    HW217543   2.712   2.804   4.457
 4306SOL    HW317544   2.851   2.744   4.449
 4306SOL    MW417545   2.794   2.806   4.426
 4307SOL     OW17546   2.206   3.469   5.202
 4307SOL    HW217547   2.114   3.445   5.187
 4307SOL    HW317548   2.250   3.386   5.219
 4307SOL    MW417549   2.200   3.454   5.201
 4308SOL     OW17550   2.789   3.179   4.134
 4308SOL    HW217551   2.766   3.241   4.202
 4308SOL    HW317552   2.746   3.097   4.160
 4308SOL    MW417553   2.781   3.175   4.145
 4309SOL     OW17554   3.662   2.180   4.590
 4309SOL    HW217555   3.599   2.160   4.659
 4309SOL    HW317556   3.652   2.109   4.527
 4309SOL    MW417557   3.652   2.167   4.591
 4310SOL     OW17558   2.286   2.152   4.102
 4310SOL    HW217559   2.260   2.114   4.018
 4310SOL    HW317560   2.223   2.222   4.118
 4310SOL    MW417561   2.275   2.155   4.093
 4311SOL     OW17562   2.121   3.113   4.139
 4311SOL    HW217563   2.069   3.181   4.095
 4311SOL    HW317564   2.118   3.039   4.079
 4311SOL    MW417565   2.113   3.112   4.126
 4312SOL     OW17566   2.783   3.576   3.917
 4312SOL    HW217567   2.738   3.592   4.000
 4312SOL    HW317568   2.714   3.541   3.859
 4312SOL    MW417569   2.769   3.573   3.919
 4313SOL     OW17570   3.718   2.349   3.892
 4313SOL    HW217571   3.627   2.351   3.920
 4313SOL    HW317572   3.763   2.411   3.950
 4313SOL    MW417573   3.711   2.357   3.902
 4314SOL     OW17574   3.463   2.952   4.242
 4314SOL    HW217575   3.373   2.952   4.277
 4314SOL    HW317576   3.456   2.998   4.159
 4314SOL    MW417577   3.450   2.958   4.236
 4315SOL     OW17578   3.263   2.587   5.314
 4315SOL    HW217579   3.332   2.525   5.291
 4315SOL    HW317580   3.188   2.561   5.261
 4315SOL    MW417581   3.263   2.574   5.305
 4316SOL     OW17582   2.004   3.467   4.866
 4316SOL    HW217583   1.987   3.413   4.943
 4316SOL    HW317584   1.992   3.557   4.896
 4316SOL    MW417585   2.001   3.471   4.880
 4317SOL     OW17586   2.999   2.974   5.306
 4317SOL    HW217587   2.984   3.067   5.291
 4317SOL    HW317588   3.094   2.964   5.306
 4317SOL    MW417589   3.008   2.984   5.303
 4318SOL     OW17590   2.795   2.398   5.507
 4318SOL    HW217591   2.885   2.399   5.474
 4318SOL    HW317592   2.754   2.323   5.465
 4318SOL    MW417593   2.801   2.388   5.498
 4319SOL     OW17594   3.370   2.930   4.634
 4319SOL    HW217595   3.373   2.864   4.565
 4319SOL    HW317596   3.455   2.973   4.630
 4319SOL    MW417597   3.382   2.926   4.625
 4320SOL     OW17598   2.990   2.533   4.203
 4320SOL    HW217599   3.016   2.557   4.114
 4320SOL    HW317600   2.972   2.440   4.199
 4320SOL    MW417601   2.992   2.525   4.190
 4321SOL     OW17602   3.655   3.153   4.054
 4321SOL    HW217603   3.611   3.194   4.129
 4321SOL    HW317604   3.712   3.221   4.019
 4321SOL    MW417605   3.657   3.167   4.059
 4322SOL     OW17606   2.575   2.202   5.457
 4322SOL    HW217607   2.585   2.128   5.397
 4322SOL    HW317608   2.611   2.171   5.540
 4322SOL    MW417609   2.581   2.188   5.459
 4323SOL     OW17610   2.311   3.569   4.372
 4323SOL    HW217611   2.343   3.657   4.350
 4323SOL    HW317612   2.264   3.541   4.294
 4323SOL    MW417613   2.310   3.577   4.359
 4324SOL     OW17614   3.695   1.931   4.421
 4324SOL    HW217615   3.749   1.882   4.483
 4324SOL    HW317616   3.638   1.865   4.382
 4324SOL    MW417617   3.695   1.915   4.423
 4325SOL     OW17618   2.027   3.629   3.949
 4325SOL    HW217619   2.056   3.719   3.941
 4325SOL    HW317620   1.977   3.612   3.870
 4325SOL    MW417621   2.025   3.637   3.938
 4326SOL     OW17622   2.814   1.884   4.834
 4326SOL    HW217623   2.773   1.962   4.796
 4326SOL    HW317624   2.908   1.902   4.829
 4326SOL    MW417625   2.820   1.896   4.829
 4327SOL     OW17626   3.431   3.437   3.920
 4327SOL    HW217627   3.479   3.506   3.966
 4327SOL    HW317628   3.352   3.481   3.889
 4327SOL    MW417629   3.426   3.451   3.923
 4328SOL     OW17630   2.829   2.562   3.864
 4328SOL    HW217631   2.831   2.509   3.785
 4328SOL    HW317632   2.917   2.599   3.870
 4328SOL    MW417633   2.841   2.561   3.853
 4329SOL     OW17634   3.443   2.488   4.200
 4329SOL    HW217635   3.482   2.488   4.287
 4329SOL    HW317636   3.384   2.564   4.200
 4329SOL    MW417637   3.440   2.499   4.211
 4330SOL     OW17638   2.760   2.855   5.329
 4330SOL    HW217639   2.737   2.835   5.419
 4330SOL    HW317640   2.845   2.899   5.334
 4330SOL    MW417641   2.767   2.858   5.341
 4331SOL     OW17642   2.840   1.992   5.089
 4331SOL    HW217643   2.846   1.954   5.002
 4331SOL    HW317644   2.829   2.086   5.074
 4331SOL    MW417645   2.841   2.000   5.077
 4332SOL     OW17646   2.929   2.481   4.923
 4332SOL    HW217647   3.004   2.510   4.870
 4332SOL    HW317648   2.861   2.546   4.907
 4332SOL    MW417649   2.930   2.493   4.913
 4333SOL     OW17650   3.479   2.449   5.200
 4333SOL    HW217651   3.460   2.358   5.179
 4333SOL    HW317652   3.457   2.498   5.121
 4333SOL    MW417653   3.474   2.442   5.187
 4334SOL     OW17654   3.621   3.543   5.104
 4334SOL    HW217655   3.549   3.505   5.155
 4334SOL    HW317656   3.638   3.628   5.145
 4334SOL    MW417657   3.615   3.548   5.116
 4335SOL     OW17658   2.926   2.187   5.306
 4335SOL    HW217659   2.892   2.226   5.225
 4335SOL    HW317660   2.904   2.095   5.299
 4335SOL    MW417661   2.919   2.180   5.296
 4336SOL     OW17662   3.335   3.001   5.382
 4336SOL    HW217663   3.417   3.042   5.412
 4336SOL    HW317664   3.298   2.963   5.462
 4336SOL    MW417665   3.341   3.002   5.397
 4337SOL     OW17666   3.630   2.374   4.366
 4337SOL    HW217667   3.719   2.343   4.383
 4337SOL    HW317668   3.573   2.314   4.414
 4337SOL    MW417669   3.633   2.362   4.375
 4338SOL     OW17670   2.056   2.088   4.395
 4338SOL    HW217671   2.047   2.028   4.321
 4338SOL    HW317672   1.989   2.059   4.458
 4338SOL    MW417673   2.046   2.075   4.393
 4339SOL     OW17674   2.999   3.181   3.956
 4339SOL    HW217675   2.949   3.183   4.038
 4339SOL    HW317676   2.933   3.199   3.888
 4339SOL    MW417677   2.985   3.183   3.958
 4340SOL     OW17678   2.003   2.261   4.758
 4340SOL    HW217679   1.975   2.352   4.767
 4340SOL    HW317680   1.940   2.222   4.697
 4340SOL    MW417681   1.990   2.267   4.752
 4341SOL     OW17682   2.462   3.599   4.064
 4341SOL    HW217683   2.383   3.557   4.097
 4341SOL    HW317684   2.528   3.582   4.131
 4341SOL    MW417685   2.461   3.591   4.077
 4342SOL     OW17686   3.590   3.119   5.461
 4342SOL    HW217687   3.640   3.045   5.493
 4342SOL    HW317688   3.536   3.146   5.536
 4342SOL    MW417689   3.590   3.113   5.474
 4343SOL     OW17690   2.598   3.014   3.771
 4343SOL    HW217691   2.520   2.960   3.758
 4343SOL    HW317692   2.569   3.087   3.824
 4343SOL    MW417693   2.584   3.016   3.776
 4344SOL     OW17694   3.724   2.754   4.963
 4344SOL    HW217695   3.740   2.792   4.876
 4344SOL    HW317696   3.758   2.820   5.024
 4344SOL    MW417697   3.731   2.767   4.959
 4345SOL     OW17698   3.516   3.463   4.632
 4345SOL    HW217699   3.545   3.530   4.693
 4345SOL    HW317700   3.497   3.387   4.687
 4345SOL    MW417701   3.518   3.463   4.647
 4346SOL     OW17702   3.179   3.530   3.839
 4346SOL    HW217703   3.105   3.493   3.889
 4346SOL    HW317704   3.187   3.620   3.872
 4346SOL    MW417705   3.170   3.537   3.851
 4347SOL     OW17706   1.987   2.536   4.928
 4347SOL    HW217707   2.049   2.566   4.994
 4347SOL    HW317708   1.921   2.605   4.922
 4347SOL    MW417709   1.986   2.549   4.935
 4348SOL     OW17710   3.403   3.204   3.781
 4348SOL    HW217711   3.350   3.253   3.717
 4348SOL    HW317712   3.434   3.270   3.842
 4348SOL    MW417713   3.401   3.218   3.779
 4349SOL     OW17714   2.628   2.093   3.836
 4349SOL    HW217715   2.576   2.013   3.824
 4349SOL    HW317716   2.715   2.070   3.804
 4349SOL    MW417717   2.631   2.079   3.830
 4350SOL     OW17718   2.082   3.645   5.380
 4350SOL    HW217719   2.056   3.713   5.318
 4350SOL    HW317720   2.130   3.582   5.328
 4350SOL    MW417721   2.084   3.645   5.366
 4351SOL     OW17722   2.134   2.964   4.887
 4351SOL    HW217723   2.187   3.039   4.912
 4351SOL    HW317724   2.053   3.002   4.853
 4351SOL    MW417725   2.130   2.979   4.887
 4352SOL     OW17726   2.674   2.868   4.875
 4352SOL    HW217727   2.702   2.777   4.887
 4352SOL    HW317728   2.603   2.862   4.811
 4352SOL    MW417729   2.667   2.856   4.870
 4353SOL     OW17730   1.989   2.733   4.293
 4353SOL    HW217731   2.080   2.748   4.320
 4353SOL    HW317732   1.992   2.654   4.239
 4353SOL    MW417733   2.001   2.725   4.291
 4354SOL     OW17734   2.225   2.441   5.547
 4354SOL    HW217735   2.172   2.521   5.554
 4354SOL    HW317736   2.295   2.453   5.612
 4354SOL    MW417737   2.227   2.454   5.555
 4355SOL     OW17738   2.611   1.991   5.254
 4355SOL    HW217739   2.588   1.899   5.256
 4355SOL    HW317740   2.697   1.993   5.211
 4355SOL    MW417741   2.618   1.981   5.250
 4356SOL     OW17742   2.295   2.515   5.293
 4356SOL    HW217743   2.375   2.565   5.279
 4356SOL    HW317744   2.286   2.509   5.388
 4356SOL    MW417745   2.304   2.521   5.303
 4357SOL     OW17746   2.616   3.665   4.667
 4357SOL    HW217747   2.705   3.680   4.697
 4357SOL    HW317748   2.611   3.712   4.583
 4357SOL    MW417749   2.626   3.673   4.660
 4358SOL     OW17750   3.272   2.040   5.564
 4358SOL    HW217751   3.328   1.967   5.590
 4358SOL    HW317752   3.242   2.078   5.646
 4358SOL    MW417753   3.276   2.035   5.577
 4359SOL     OW17754   1.997   3.345   4.332
 4359SOL    HW217755   1.969   3.384   4.414
 4359SOL    HW317756   2.017   3.254   4.354
 4359SOL    MW417757   1.995   3.337   4.345
 4360SOL     OW17758   2.830   3.388   4.367
 4360SOL    HW217759   2.913   3.342   4.351
 4360SOL    HW317760   2.820   3.387   4.463
 4360SOL    MW417761   2.840   3.381   4.377
 4361SOL     OW17762   3.662   2.533   4.681
 4361SOL    HW217763   3.751   2.563   4.663
 4361SOL    HW317764   3.642   2.473   4.610
 4361SOL    MW417765   3.671   2.530   4.670
 4362SOL     OW17766   3.513   2.712   5.561
 4362SOL    HW217767   3.568   2.636   5.542
 4362SOL    HW317768   3.515   2.720   5.656
 4362SOL    MW417769   3.521   2.703   5.569
 4363SOL     OW17770   2.563   3.445   3.772
 4363SOL    HW217771   2.503   3.514   3.742
 4363SOL    HW317772   2.508   3.387   3.825
 4363SOL    MW417773   2.547   3.447   3.774
 4364SOL     OW17774   3.001   2.090   3.995
 4364SOL    HW217775   2.934   2.066   3.932
 4364SOL    HW317776   3.066   2.139   3.944
 4364SOL    MW417777   3.001   2.092   3.980
 4365SOL     OW17778   2.808   2.274   5.080
 4365SOL    HW217779   2.727   2.315   5.108
 4365SOL    HW317780   2.855   2.342   5.032
 4365SOL    MW417781   2.803   2.289   5.078
 4366SOL     OW17782   3.068   2.612   4.703
 4366SOL    HW217783   3.081   2.706   4.713
 4366SOL    HW317784   3.029   2.602   4.617
 4366SOL    MW417785   3.064   2.623   4.693
 4367SOL     OW17786   2.520   2.807   4.507
 4367SOL    HW217787   2.431   2.798   4.540
 4367SOL    HW317788   2.524   2.897   4.475
 4367SOL    MW417789   2.509   2.818   4.507
 4368SOL     OW17790   3.319   2.390   4.502
 4368SOL    HW217791   3.264   2.311   4.501
 4368SOL    HW317792   3.301   2.431   4.586
 4368SOL    MW417793   3.309   2.385   4.511
 4369SOL     OW17794   2.290   2.077   5.319
 4369SOL    HW217795   2.211   2.095   5.371
 4369SOL    HW317796   2.285   2.139   5.246
 4369SOL    MW417797   2.280   2.087   5.316
 4370SOL     OW17798   2.938   2.594   4.459
 4370SOL    HW217799   2.875   2.526   4.483
 4370SOL    HW317800   2.958   2.575   4.367
 4370SOL    MW417801   2.932   2.581   4.451
 4371SOL     OW17802   2.194   3.489   4.161
 4371SOL    HW217803   2.155   3.536   4.087
 4371SOL    HW317804   2.128   3.424   4.186
 4371SOL    MW417805   2.181   3.487   4.155
 4372SOL     OW17806   2.686   2.898   4.185
 4372SOL    HW217807   2.688   2.872   4.092
 4372SOL    HW317808   2.744   2.835   4.228
 4372SOL    MW417809   2.694   2.887   4.179
 4373SOL     OW17810   3.239   3.458   4.957
 4373SOL    HW217811   3.164   3.504   4.995
 4373SOL    HW317812   3.221   3.365   4.974
 4373SOL    MW417813   3.228   3.452   4.965
 4374SOL     OW17814   3.243   3.666   4.387
 4374SOL    HW217815   3.186   3.619   4.326
 4374SOL    HW317816   3.329   3.627   4.374
 4374SOL    MW417817   3.246   3.657   4.377
 4375SOL     OW17818   3.196   2.142   4.518
 4375SOL    HW217819   3.224   2.074   4.579
 4375SOL    HW317820   3.110   2.113   4.488
 4375SOL    MW417821   3.189   2.129   4.522
 4376SOL     OW17822   2.001   3.076   4.452
 4376SOL    HW217823   2.065   3.108   4.515
 4376SOL    HW317824   2.050   3.012   4.400
 4376SOL    MW417825   2.016   3.072   4.453
 4377SOL     OW17826   2.501   3.152   5.434
 4377SOL    HW217827   2.549   3.235   5.421
 4377SOL    HW317828   2.558   3.100   5.490
 4377SOL    MW417829   2.515   3.156   5.440
 4378SOL     OW17830   2.077   3.394   5.574
 4378SOL    HW217831   2.133   3.318   5.589
 4378SOL    HW317832   2.026   3.372   5.496
 4378SOL    MW417833   2.077   3.381   5.565
 4379SOL     OW17834   3.176   2.246   3.853
 4379SOL    HW217835   3.149   2.312   3.789
 4379SOL    HW317836   3.246   2.289   3.903
 4379SOL    MW417837   3.181   2.259   3.850
 4380SOL     OW17838   2.844   1.951   3.790
 4380SOL    HW217839   2.900   1.943   3.712
 4380SOL    HW317840   2.821   1.861   3.812
 4380SOL    MW417841   2.849   1.938   3.783
 4381SOL     OW17842   3.349   2.802   3.995
 4381SOL    HW217843   3.316   2.891   3.985
 4381SOL    HW317844   3.314   2.773   4.080
 4381SOL    MW417845   3.339   2.811   4.006
 4382SOL     OW17846   2.962   3.231   5.183
 4382SOL    HW217847   2.873   3.237   5.151
 4382SOL    HW317848   3.006   3.310   5.151
 4382SOL    MW417849   2.957   3.241   5.175
 4383SOL     OW17850   2.255   1.899   5.525
 4383SOL    HW217851   2.183   1.864   5.473
 4383SOL    HW317852   2.313   1.940   5.460
 4383SOL    MW417853   2.253   1.900   5.510
 4384SOL     OW17854   2.279   3.389   4.824
 4384SOL    HW217855   2.324   3.451   4.881
 4384SOL    HW317856   2.186   3.408   4.837
 4384SOL    MW417857   2.272   3.399   4.831
 4385SOL     OW17858   3.719   2.918   5.178
 4385SOL    HW217859   3.634   2.931   5.137
 4385SOL    HW317860   3.699   2.882   5.265
 4385SOL    MW417861   3.706   2.914   5.183
 4386SOL     OW17862   2.701   3.457   4.932
 4386SOL    HW217863   2.725   3.446   4.841
 4386SOL    HW317864   2.624   3.514   4.930
 4386SOL    MW417865   2.693   3.462   4.921
 4387SOL     OW17866   2.343   2.840   3.787
 4387SOL    HW217867   2.266   2.853   3.843
 4387SOL    HW317868   2.307   2.804   3.706
 4387SOL    MW417869   2.329   2.836   3.784
 4388SOL     OW17870   2.996   2.813   4.030
 4388SOL    HW217871   2.906   2.834   4.005
 4388SOL    HW317872   3.023   2.886   4.086
 4388SOL    MW417873   2.988   2.825   4.033
 4389SOL     OW17874   2.496   3.162   4.722
 4389SOL    HW217875   2.489   3.141   4.816
 4389SOL    HW317876   2.414   3.130   4.685
 4389SOL    MW417877   2.484   3.156   4.729
 4390SOL     OW17878   3.360   2.172   5.124
 4390SOL    HW217879   3.307   2.174   5.204
 4390SOL    HW317880   3.345   2.085   5.087
 4390SOL    MW417881   3.352   2.162   5.129
 4391SOL     OW17882   3.696   2.096   4.997
 4391SOL    HW217883   3.677   2.163   4.932
 4391SOL    HW317884   3.753   2.034   4.952
 4391SOL    MW417885   3.700   2.097   4.983
 4392SOL     OW17886   1.942   3.254   5.385
 4392SOL    HW217887   1.986   3.187   5.331
 4392SOL    HW317888   1.857   3.216   5.405
 4392SOL    MW417889   1.937   3.240   5.381
 4393SOL     OW17890   2.625   1.929   4.437
 4393SOL    HW217891   2.554   1.990   4.419
 4393SOL    HW317892   2.676   1.926   4.356
 4393SOL    MW417893   2.621   1.935   4.424
 4394SOL     OW17894   2.383   3.169   4.186
 4394SOL    HW217895   2.376   3.201   4.276
 4394SOL    HW317896   2.293   3.153   4.158
 4394SOL    MW417897   2.371   3.171   4.193
 4395SOL     OW17898   2.978   3.562   5.095
 4395SOL    HW217899   2.898   3.547   5.045
 4395SOL    HW317900   2.985   3.657   5.102
 4395SOL    MW417901   2.969   3.573   5.089
 4396SOL     OW17902   3.092   3.527   4.585
 4396SOL    HW217903   3.139   3.600   4.544
 4396SOL    HW317904   3.013   3.566   4.621
 4396SOL    MW417905   3.087   3.542   4.584
 4397SOL     OW17906   3.500   3.622   4.860
 4397SOL    HW217907   3.543   3.592   4.940
 4397SOL    HW317908   3.419   3.570   4.857
 4397SOL    MW417909   3.495   3.611   4.870
 4398SOL     OW17910   2.585   2.586   5.567
 4398SOL    HW217911   2.655   2.528   5.539
 4398SOL    HW317912   2.528   2.531   5.622
 4398SOL    MW417913   2.587   2.573   5.571
 4399SOL     OW17914   3.372   2.798   5.200
 4399SOL    HW217915   3.377   2.851   5.280
 4399SOL    HW317916   3.334   2.715   5.228
 4399SOL    MW417917   3.368   2.793   5.215
 4400SOL     OW17918   3.012   1.933   5.446
 4400SOL    HW217919   3.007   1.840   5.427
 4400SOL    HW317920   3.095   1.944   5.492
 4400SOL    MW417921   3.020   1.922   5.450
 4401SOL     OW17922   2.386   2.453   3.900
 4401SOL    HW217923   2.352   2.509   3.970
 4401SOL    HW317924   2.457   2.403   3.940
 4401SOL    MW417925   2.392   2.454   3.914
 4402SOL     OW17926   3.482   3.204   4.722
 4402SOL    HW217927   3.517   3.186   4.635
 4402SOL    HW317928   3.387   3.205   4.709
 4402SOL    MW417929   3.474   3.201   4.709
 4403SOL     OW17930   2.911   2.852   5.091
 4403SOL    HW217931   2.954   2.887   5.169
 4403SOL    HW317932   2.894   2.929   5.037
 4403SOL    MW417933   2.914   2.867   5.094
 4404SOL     OW17934   3.442   2.339   3.964
 4404SOL    HW217935   3.434   2.410   3.901
 4404SOL    HW317936   3.460   2.383   4.047
 4404SOL    MW417937   3.443   2.353   3.966
 4405SOL     OW17938   2.302   1.994   4.393
 4405SOL    HW217939   2.352   2.037   4.324
 4405SOL    HW317940   2.217   2.038   4.393
 4405SOL    MW417941   2.299   2.007   4.384
 4406SOL     OW17942   2.061   3.056   5.253
 4406SOL    HW217943   2.089   3.009   5.331
 4406SOL    HW317944   1.982   3.011   5.224
 4406SOL    MW417945   2.054   3.045   5.259
 4407SOL     OW17946   2.569   2.383   5.220
 4407SOL    HW217947   2.541   2.471   5.244
 4407SOL    HW317948   2.538   2.327   5.291
 4407SOL    MW417949   2.561   2.386   5.232
 4408SOL     OW17950   3.111   2.601   3.939
 4408SOL    HW217951   3.158   2.619   3.858
 4408SOL    HW317952   3.077   2.685   3.967
 4408SOL    MW417953   3.113   2.615   3.932
 4409SOL     OW17954   2.224   2.779   4.433
 4409SOL    HW217955   2.282   2.835   4.381
 4409SOL    HW317956   2.268   2.694   4.435
 4409SOL    MW417957   2.237   2.776   4.426
 4410SOL     OW17958   3.364   2.131   4.270
 4410SOL    HW217959   3.286   2.081   4.295
 4410SOL    HW317960   3.335   2.222   4.270
 4410SOL    MW417961   3.350   2.135   4.273
 4411SOL     OW17962   2.950   2.093   4.429
 4411SOL    HW217963   2.970   2.168   4.373
 4411SOL    HW317964   2.930   2.132   4.514
 4411SOL    MW417965   2.951   2.109   4.433
 4412SOL     OW17966   2.846   3.343   3.761
 4412SOL    HW217967   2.873   3.421   3.713
 4412SOL    HW317968   2.753   3.358   3.780
 4412SOL    MW417969   2.837   3.356   3.757
 4413SOL     OW17970   3.710   2.866   5.448
 4413SOL    HW217971   3.623   2.846   5.484
 4413SOL    HW317972   3.764   2.792   5.473
 4413SOL    MW417973   3.705   2.855   5.456
 4414SOL     OW17974   1.931   3.379   4.605
 4414SOL    HW217975   1.963   3.383   4.696
 4414SOL    HW317976   1.836   3.387   4.613
 4414SOL    MW417977   1.923   3.382   4.618
 4415SOL     OW17978   1.886   2.505   4.152
 4415SOL    HW217979   1.826   2.477   4.222
 4415SOL    HW317980   1.960   2.445   4.158
 4415SOL    MW417981   1.888   2.494   4.161
 4416SOL     OW17982   3.454   3.717   5.586
 4416SOL    HW217983   3.499   3.641   5.551
 4416SOL    HW317984   3.492   3.730   5.673
 4416SOL    MW417985   3.464   3.710   5.592
 4417SOL     OW17986   3.054   3.236   4.312
 4417SOL    HW217987   3.077   3.187   4.390
 4417SOL    HW317988   3.135   3.278   4.284
 4417SOL    MW417989   3.067   3.236   4.319
 4418SOL     OW17990   2.312   2.244   5.041
 4418SOL    HW217991   2.345   2.325   5.081
 4418SOL    HW317992   2.285   2.270   4.953
 4418SOL    MW417993   2.311   2.258   5.035
 4419SOL     OW17994   2.266   2.211   4.777
 4419SOL    HW217995   2.296   2.125   4.748
 4419SOL    HW317996   2.171   2.204   4.780
 4419SOL    MW417997   2.258   2.200   4.775
 4420SOL     OW17998   3.095   2.420   5.468
 4420SOL    HW217999   3.147   2.355   5.421
 4420SOL    HW318000   3.053   2.471   5.398
 4420SOL    MW418001   3.096   2.417   5.451
 4421SOL     OW18002   3.194   2.215   5.329
 4421SOL    HW218003   3.101   2.199   5.316
 4421SOL    HW318004   3.220   2.153   5.397
 4421SOL    MW418005   3.184   2.205   5.336
 4422SOL     OW18006   2.409   1.989   4.668
 4422SOL    HW218007   2.419   1.898   4.694
 4422SOL    HW318008   2.365   1.985   4.583
 4422SOL    MW418009   2.405   1.977   4.660
 4423SOL     OW18010   2.503   3.604   5.214
 4423SOL    HW218011   2.420   3.589   5.259
 4423SOL    HW318012   2.562   3.537   5.249
 4423SOL    MW418013   2.501   3.594   5.224
 4424SOL     OW18014   3.560   2.311   4.839
 4424SOL    HW218015   3.493   2.344   4.899
 4424SOL    HW318016   3.603   2.389   4.805
 4424SOL    MW418017   3.558   2.326   4.843
 4425SOL     OW18018   3.738   3.031   4.809
 4425SOL    HW218019   3.731   2.971   4.734
 4425SOL    HW318020   3.664   3.091   4.798
 4425SOL    MW418021   3.728   3.031   4.798
 4426SOL     OW18022   3.120   2.893   4.727
 4426SOL    HW218023   3.134   2.865   4.818
 4426SOL    HW318024   3.206   2.924   4.699
 4426SOL    MW418025   3.133   2.894   4.736
 4427SOL     OW18026   3.203   2.388   5.006
 4427SOL    HW218027   3.224   2.389   4.913
 4427SOL    HW318028   3.248   2.310   5.039
 4427SOL    MW418029   3.210   2.378   4.998
 4428SOL     OW18030   3.696   2.519   5.548
 4428SOL    HW218031   3.733   2.464   5.617
 4428SOL    HW318032   3.721   2.476   5.466
 4428SOL    MW418033   3.703   2.507   5.547
 4429SOL     OW18034   3.243   2.817   5.600
 4429SOL    HW218035   3.309   2.765   5.554
 4429SOL    HW318036   3.263   2.804   5.693
 4429SOL    MW418037   3.254   2.808   5.607
 4430SOL     OW18038   3.194   1.903   3.948
 4430SOL    HW218039   3.268   1.947   3.991
 4430SOL    HW318040   3.118   1.957   3.970
 4430SOL    MW418041   3.194   1.915   3.956
 4431SOL     OW18042   3.254   2.678   4.226
 4431SOL    HW218043   3.169   2.648   4.196
 4431SOL    HW318044   3.246   2.685   4.321
 4431SOL    MW418045   3.242   2.676   4.235
 4432SOL     OW18046   2.330   3.141   4.957
 4432SOL    HW218047   2.342   3.168   5.048
 4432SOL    HW318048   2.311   3.222   4.910
 4432SOL    MW418049   2.329   3.156   4.962
 4433SOL     OW18050   2.614   2.121   4.780
 4433SOL    HW218051   2.587   2.123   4.871
 4433SOL    HW318052   2.544   2.073   4.735
 4433SOL    MW418053   2.602   2.117   4.787
 4434SOL     OW18054   3.370   3.198   5.174
 4434SOL    HW218055   3.355   3.127   5.237
 4434SOL    HW318056   3.416   3.156   5.102
 4434SOL    MW418057   3.376   3.182   5.174
 4435SOL     OW18058   2.444   2.929   5.291
 4435SOL    HW218059   2.481   2.934   5.203
 4435SOL    HW318060   2.483   3.002   5.338
 4435SOL    MW418061   2.454   2.939   5.286
 4436SOL     OW18062   2.624   2.972   5.103
 4436SOL    HW218063   2.683   2.918   5.156
 4436SOL    HW318064   2.639   2.944   5.013
 4436SOL    MW418065   2.634   2.961   5.099
 4437SOL     OW18066   2.627   2.344   3.952
 4437SOL    HW218067   2.700   2.393   3.915
 4437SOL    HW318068   2.643   2.253   3.926
 4437SOL    MW418069   2.639   2.339   3.945
 4438SOL     OW18070   3.435   3.461   5.275
 4438SOL    HW218071   3.477   3.446   5.360
 4438SOL    HW318072   3.426   3.374   5.237
 4438SOL    MW418073   3.439   3.449   5.282
 4439SOL     OW18074   3.095   1.940   4.866
 4439SOL    HW218075   3.150   1.949   4.788
 4439SOL    HW318076   3.150   1.974   4.937
 4439SOL    MW418077   3.109   1.945   4.865
 4440SOL     OW18078   2.102   2.853   4.050
 4440SOL    HW218079   2.039   2.869   3.979
 4440SOL    HW318080   2.049   2.816   4.121
 4440SOL    MW418081   2.087   2.850   4.050
 4441SOL     OW18082   2.458   3.207   3.909
 4441SOL    HW218083   2.473   3.183   4.001
 4441SOL    HW318084   2.366   3.185   3.893
 4441SOL    MW418085   2.448   3.200   3.919
 4442SOL     OW18086   2.997   3.438   4.061
 4442SOL    HW218087   3.005   3.356   4.012
 4442SOL    HW318088   2.916   3.477   4.028
 4442SOL    MW418089   2.987   3.433   4.051
 4443SOL     OW18090   2.256   3.596   4.630
 4443SOL    HW218091   2.260   3.507   4.665
 4443SOL    HW318092   2.282   3.587   4.539
 4443SOL    MW418093   2.259   3.584   4.622
 4444SOL     OW18094   2.873   3.074   4.873
 4444SOL    HW218095   2.805   3.008   4.889
 4444SOL    HW318096   2.891   3.068   4.780
 4444SOL    MW418097   2.866   3.065   4.864
 4445SOL     OW18098   1.962   3.349   5.124
 4445SOL    HW218099   1.952   3.307   5.210
 4445SOL    HW318100   1.883   3.402   5.114
 4445SOL    MW418101   1.951   3.350   5.135
 4446SOL     OW18102   2.866   2.213   4.694
 4446SOL    HW218103   2.796   2.165   4.739
 4446SOL    HW318104   2.898   2.276   4.758
 4446SOL    MW418105   2.861   2.215   4.708
 4447SOL     OW18106   2.517   2.649   5.314
 4447SOL    HW218107   2.510   2.744   5.302
 4447SOL    HW318108   2.526   2.638   5.409
 4447SOL    MW418109   2.518   2.661   5.324
 4448SOL     OW18110   2.238   3.164   5.572
 4448SOL    HW218111   2.310   3.166   5.509
 4448SOL    HW318112   2.208   3.073   5.571
 4448SOL    MW418113   2.243   3.153   5.564
 4449SOL     OW18114   3.322   1.927   5.039
 4449SOL    HW218115   3.393   1.873   5.003
 4449SOL    HW318116   3.321   1.906   5.132
 4449SOL    MW418117   3.331   1.918   5.047
 4450SOL     OW18118   3.522   3.457   5.523
 4450SOL    HW218119   3.495   3.454   5.614
 4450SOL    HW318120   3.618   3.461   5.526
 4450SOL    MW418121   3.532   3.457   5.535
 4451SOL     OW18122   2.333   2.319   4.507
 4451SOL    HW218123   2.404   2.267   4.470
 4451SOL    HW318124   2.319   2.284   4.594
 4451SOL    MW418125   2.341   2.308   4.514
 4452SOL     OW18126   1.888   3.654   5.579
 4452SOL    HW218127   1.938   3.632   5.501
 4452SOL    HW318128   1.896   3.749   5.587
 4452SOL    MW418129   1.896   3.663   5.570
 4453SOL     OW18130   2.649   3.412   4.583
 4453SOL    HW218131   2.577   3.349   4.596
 4453SOL    HW318132   2.610   3.497   4.601
 4453SOL    MW418133   2.633   3.415   4.586
 4454SOL     OW18134   2.969   2.260   4.231
 4454SOL    HW218135   2.991   2.197   4.163
 4454SOL    HW318136   2.874   2.252   4.242
 4454SOL    MW418137   2.959   2.251   4.223
 4455SOL     OW18138   2.054   1.950   4.163
 4455SOL    HW218139   2.125   1.971   4.102
 4455SOL    HW318140   2.008   1.878   4.121
 4455SOL    MW418141   2.058   1.944   4.149
 4456SOL     OW18142   1.885   2.417   5.306
 4456SOL    HW218143   1.949   2.483   5.281
 4456SOL    HW318144   1.804   2.444   5.263
 4456SOL    MW418145   1.883   2.429   5.298
 4457SOL     OW18146   3.623   3.324   4.263
 4457SOL    HW218147   3.593   3.257   4.324
 4457SOL    HW318148   3.717   3.330   4.277
 4457SOL    MW418149   3.631   3.316   4.273
 4458SOL     OW18150   3.179   3.001   4.193
 4458SOL    HW218151   3.151   3.087   4.226
 4458SOL    HW318152   3.207   3.017   4.103
 4458SOL    MW418153   3.179   3.015   4.185
 4459SOL     OW18154   2.841   1.921   4.246
 4459SOL    HW218155   2.878   1.980   4.311
 4459SOL    HW318156   2.818   1.977   4.172
 4459SOL    MW418157   2.842   1.936   4.245
 4460SOL     OW18158   3.694   2.803   4.668
 4460SOL    HW218159   3.685   2.835   4.579
 4460SOL    HW318160   3.647   2.719   4.668
 4460SOL    MW418161   3.687   2.796   4.658
 4461SOL     OW18162   2.070   2.643   5.247
 4461SOL    HW218163   2.091   2.712   5.185
 4461SOL    HW318164   2.150   2.590   5.252
 4461SOL    MW418165   2.083   2.644   5.241
 4462SOL     OW18166   3.606   2.734   4.369
 4462SOL    HW218167   3.700   2.723   4.357
 4462SOL    HW318168   3.582   2.806   4.310
 4462SOL    MW418169   3.616   2.742   4.360
 4463SOL     OW18170   2.055   2.658   5.514
 4463SOL    HW218171   1.981   2.602   5.540
 4463SOL    HW318172   2.050   2.661   5.419
 4463SOL    MW418173   2.044   2.651   5.504
 4464SOL     OW18174   2.221   1.945   4.964
 4464SOL    HW218175   2.264   2.029   4.984
 4464SOL    HW318176   2.294   1.883   4.957
 4464SOL    MW418177   2.236   1.948   4.965
 4465SOL     OW18178   2.262   2.612   4.142
 4465SOL    HW218179   2.262   2.707   4.127
 4465SOL    HW318180   2.339   2.596   4.196
 4465SOL    MW418181   2.272   2.623   4.147
 4466SOL     OW18182   3.038   2.471   5.206
 4466SOL    HW218183   3.074   2.444   5.122
 4466SOL    HW318184   2.951   2.505   5.185
 4466SOL    MW418185   3.032   2.472   5.193
 4467SOL     OW18186   2.021   2.343   4.431
 4467SOL    HW218187   2.083   2.350   4.504
 4467SOL    HW318188   2.021   2.250   4.408
 4467SOL    MW418189   2.029   2.332   4.438
 4468SOL     OW18190   3.568   3.683   3.963
 4468SOL    HW218191   3.635   3.716   3.903
 4468SOL    HW318192   3.525   3.762   3.997
 4468SOL    MW418193   3.570   3.698   3.959
 4469SOL     OW18194   2.703   2.604   4.915
 4469SOL    HW218195   2.661   2.522   4.891
 4469SOL    HW318196   2.704   2.603   5.011
 4469SOL    MW418197   2.696   2.593   4.924
 4470SOL     OW18198   3.374   3.737   5.314
 4470SOL    HW218199   3.377   3.643   5.297
 4470SOL    HW318200   3.397   3.745   5.406
 4470SOL    MW418201   3.377   3.725   5.324
 4471SOL     OW18202   2.507   2.074   5.020
 4471SOL    HW218203   2.438   2.137   5.041
 4471SOL    HW318204   2.534   2.038   5.105
 4471SOL    MW418205   2.501   2.077   5.033
 4472SOL     OW18206   1.890   2.915   3.889
 4472SOL    HW218207   1.859   2.980   3.952
 4472SOL    HW318208   1.839   2.837   3.908
 4472SOL    MW418209   1.880   2.912   3.899
 4473SOL     OW18210   3.302   1.927   4.637
 4473SOL    HW218211   3.390   1.936   4.674
 4473SOL    HW318212   3.312   1.868   4.563
 4473SOL    MW418213   3.316   1.921   4.631
 4474SOL     OW18214   3.334   2.666   4.481
 4474SOL    HW218215   3.414   2.681   4.430
 4474SOL    HW318216   3.327   2.571   4.487
 4474SOL    MW418217   3.343   2.655   4.476
 4475SOL     OW18218   2.474   3.715   3.831
 4475SOL    HW218219   2.379   3.715   3.823
 4475SOL    HW318220   2.490   3.661   3.909
 4475SOL    MW418221   2.464   3.709   3.840
 4476SOL     OW18222   2.784   2.592   5.178
 4476SOL    HW218223   2.853   2.659   5.175
 4476SOL    HW318224   2.717   2.630   5.234
 4476SOL    MW418225   2.785   2.605   5.185
 4477SOL     OW18226   2.202   2.892   5.426
 4477SOL    HW218227   2.156   2.808   5.428
 4477SOL    HW318228   2.259   2.886   5.350
 4477SOL    MW418229   2.204   2.880   5.418
 4478SOL     OW18230   3.319   2.535   3.747
 4478SOL    HW218231   3.247   2.511   3.689
 4478SOL    HW318232   3.385   2.572   3.689
 4478SOL    MW418233   3.318   2.537   3.732
 4479SOL     OW18234   2.453   3.267   4.427
 4479SOL    HW218235   2.518   3.200   4.448
 4479SOL    HW318236   2.505   3.344   4.404
 4479SOL    MW418237   2.468   3.269   4.426
 4480SOL     OW18238   2.714   2.432   4.557
 4480SOL    HW218239   2.654   2.450   4.629
 4480SOL    HW318240   2.748   2.344   4.576
 4480SOL    MW418241   2.710   2.422   4.570
 4481SOL     OW18242   3.655   1.931   5.226
 4481SOL    HW218243   3.576   1.977   5.254
 4481SOL    HW318244   3.690   1.985   5.155
 4481SOL    MW418245   3.649   1.944   5.220
 4482SOL     OW18246   2.939   3.015   4.576
 4482SOL    HW218247   3.031   2.996   4.594
 4482SOL    HW318248   2.912   2.945   4.516
 4482SOL    MW418249   2.947   3.003   4.570
 4483SOL     OW18250   2.732   2.835   3.931
 4483SOL    HW218251   2.718   2.747   3.896
 4483SOL    HW318252   2.683   2.892   3.872
 4483SOL    MW418253   2.724   2.830   3.919
 4484SOL     OW18254   3.213   3.253   4.672
 4484SOL    HW218255   3.186   3.337   4.637
 4484SOL    HW318256   3.173   3.248   4.759
 4484SOL    MW418257   3.206   3.262   4.678
 4485SOL     OW18258   3.132   3.201   4.940
 4485SOL    HW218259   3.143   3.168   5.029
 4485SOL    HW318260   3.051   3.160   4.909
 4485SOL    MW418261   3.122   3.193   4.946
 4486SOL     OW18262   2.145   2.559   4.710
 4486SOL    HW218263   2.095   2.558   4.791
 4486SOL    HW318264   2.165   2.651   4.694
 4486SOL    MW418265   2.141   2.571   4.718
 4487SOL     OW18266   3.212   3.323   5.472
 4487SOL    HW218267   3.212   3.417   5.488
 4487SOL    HW318268   3.257   3.313   5.388
 4487SOL    MW418269   3.218   3.333   5.463
 4488SOL     OW18270   3.451   2.041   4.033
 4488SOL    HW218271   3.444   2.045   4.128
 4488SOL    HW318272   3.463   2.132   4.006
 4488SOL    MW418273   3.452   2.054   4.041
 4489SOL     OW18274   2.740   2.604   4.147
 4489SOL    HW218275   2.720   2.590   4.054
 4489SOL    HW318276   2.833   2.583   4.154
 4489SOL    MW418277   2.750   2.599   4.136
 4490SOL     OW18278   2.067   2.227   5.451
 4490SOL    HW218279   2.024   2.286   5.388
 4490SOL    HW318280   2.135   2.282   5.491
 4490SOL    MW418281   2.071   2.242   5.448
 4491SOL     OW18282   3.179   2.847   4.996
 4491SOL    HW218283   3.242   2.844   5.069
 4491SOL    HW318284   3.095   2.865   5.038
 4491SOL    MW418285   3.175   2.849   5.011
 4492SOL     OW18286   2.723   3.562   4.185
 4492SOL    HW218287   2.781   3.633   4.212
 4492SOL    HW318288   2.746   3.490   4.243
 4492SOL    MW418289   2.734   3.562   4.196
 4493SOL     OW18290   3.518   2.024   4.775
 4493SOL    HW218291   3.563   1.942   4.794
 4493SOL    HW318292   3.538   2.080   4.851
 4493SOL    MW418293   3.528   2.020   4.787
 4494SOL     OW18294   1.966   1.867   4.874
 4494SOL    HW218295   1.957   1.868   4.779
 4494SOL    HW318296   2.060   1.879   4.889
 4494SOL    MW418297   1.978   1.870   4.865
 4495SOL     OW18298   3.603   3.060   4.494
 4495SOL    HW218299   3.582   3.006   4.417
 4495SOL    HW318300   3.699   3.058   4.498
 4495SOL    MW418301   3.612   3.053   4.483
 4496SOL     OW18302   2.295   3.205   5.237
 4496SOL    HW218303   2.216   3.155   5.260
 4496SOL    HW318304   2.365   3.164   5.287
 4496SOL    MW418305   2.293   3.193   5.247
 4497SOL     OW18306   2.179   1.994   3.920
 4497SOL    HW218307   2.108   2.049   3.888
 4497SOL    HW318308   2.221   1.960   3.841
 4497SOL    MW418309   2.175   1.996   3.906
 4498SOL     OW18310   3.303   2.491   4.756
 4498SOL    HW218311   3.226   2.537   4.722
 4498SOL    HW318312   3.360   2.560   4.790
 4498SOL    MW418313   3.300   2.506   4.756
 4499SOL     OW18314   1.935   2.093   3.769
 4499SOL    HW218315   1.902   2.172   3.813
 4499SOL    HW318316   1.990   2.126   3.698
 4499SOL    MW418317   1.938   2.107   3.766
 4500SOL     OW18318   1.969   3.350   3.958
 4500SOL    HW218319   1.986   3.434   4.000
 4500SOL    HW318320   2.004   3.359   3.870
 4500SOL    MW418321   1.974   3.363   3.952
 4501SOL     OW18322   3.241   3.439   4.175
 4501SOL    HW218323   3.304   3.429   4.104
 4501SOL    HW318324   3.158   3.459   4.130
 4501SOL    MW418325   3.238   3.440   4.160
 4502SOL     OW18326   3.604   2.707   5.862
 4502SOL    HW218327   3.645   2.649   5.927
 4502SOL    HW318328   3.511   2.699   5.879
 4502SOL    MW418329   3.598   2.699   5.872
 4503SOL     OW18330   2.398   2.890   6.091
 4503SOL    HW218331   2.488   2.865   6.075
 4503SOL    HW318332   2.394   2.983   6.068
 4503SOL    MW418333   2.410   2.899   6.086
 4504SOL     OW18334   3.514   3.593   6.233
 4504SOL    HW218335   3.526   3.539   6.311
 4504SOL    HW318336   3.551   3.541   6.162
 4504SOL    MW418337   3.520   3.578   6.234
 4505SOL     OW18338   2.682   2.346   6.104
 4505SOL    HW218339   2.657   2.434   6.132
 4505SOL    HW318340   2.679   2.349   6.008
 4505SOL    MW418341   2.678   2.358   6.096
 4506SOL     OW18342   2.124   2.374   6.032
 4506SOL    HW218343   2.156   2.462   6.014
 4506SOL    HW318344   2.112   2.372   6.127
 4506SOL    MW418345   2.127   2.386   6.044
 4507SOL     OW18346   2.523   2.129   6.119
 4507SOL    HW218347   2.581   2.205   6.121
 4507SOL    HW318348   2.458   2.150   6.052
 4507SOL    MW418349   2.522   2.141   6.110
 4508SOL     OW18350   2.610   3.056   6.294
 4508SOL    HW218351   2.690   3.059   6.346
 4508SOL    HW318352   2.638   3.023   6.208
 4508SOL    MW418353   2.624   3.052   6.289
 4509SOL     OW18354   2.387   2.560   6.285
 4509SOL    HW218355   2.372   2.480   6.336
 4509SOL    HW318356   2.469   2.595   6.319
 4509SOL    MW418357   2.395   2.552   6.297
 4510SOL     OW18358   2.529   2.386   6.662
 4510SOL    HW218359   2.435   2.382   6.680
 4510SOL    HW318360   2.559   2.295   6.671
 4510SOL    MW418361   2.520   2.374   6.665
 4511SOL     OW18362   2.275   2.800   6.566
 4511SOL    HW218363   2.230   2.807   6.482
 4511SOL    HW318364   2.255   2.883   6.610
 4511SOL    MW418365   2.267   2.812   6.560
 4512SOL     OW18366   1.972   3.646   6.441
 4512SOL    HW218367   2.061   3.638   6.476
 4512SOL    HW318368   1.936   3.558   6.446
 4512SOL    MW418369   1.979   3.633   6.446
 4513SOL     OW18370   3.237   3.038   5.810
 4513SOL    HW218371   3.155   3.074   5.776
 4513SOL    HW318372   3.305   3.081   5.759
 4513SOL    MW418373   3.235   3.048   5.798
 4514SOL     OW18374   2.236   3.173   6.476
 4514SOL    HW218375   2.212   3.226   6.552
 4514SOL    HW318376   2.292   3.231   6.424
 4514SOL    MW418377   2.240   3.188   6.479
 4515SOL     OW18378   2.798   2.817   6.286
 4515SOL    HW218379   2.712   2.804   6.326
 4515SOL    HW318380   2.851   2.744   6.318
 4515SOL    MW418381   2.794   2.806   6.295
 4516SOL     OW18382   2.789   3.179   6.003
 4516SOL    HW218383   2.766   3.241   6.071
 4516SOL    HW318384   2.746   3.097   6.029
 4516SOL    MW418385   2.781   3.175   6.014
 4517SOL     OW18386   3.662   2.180   6.459
 4517SOL    HW218387   3.599   2.160   6.528
 4517SOL    HW318388   3.652   2.109   6.396
 4517SOL    MW418389   3.652   2.167   6.460
 4518SOL     OW18390   2.286   2.152   5.971
 4518SOL    HW218391   2.260   2.114   5.887
 4518SOL    HW318392   2.223   2.222   5.987
 4518SOL    MW418393   2.275   2.155   5.962
 4519SOL     OW18394   2.121   3.113   6.008
 4519SOL    HW218395   2.069   3.181   5.964
 4519SOL    HW318396   2.118   3.039   5.948
 4519SOL    MW418397   2.113   3.112   5.995
 4520SOL     OW18398   2.783   3.576   5.786
 4520SOL    HW218399   2.738   3.592   5.869
 4520SOL    HW318400   2.714   3.541   5.728
 4520SOL    MW418401   2.769   3.573   5.788
 4521SOL     OW18402   3.718   2.349   5.761
 4521SOL    HW218403   3.627   2.351   5.789
 4521SOL    HW318404   3.763   2.411   5.819
 4521SOL    MW418405   3.711   2.357   5.771
 4522SOL     OW18406   3.463   2.952   6.111
 4522SOL    HW218407   3.373   2.952   6.146
 4522SOL    HW318408   3.456   2.998   6.028
 4522SOL    MW418409   3.450   2.958   6.105
 4523SOL     OW18410   2.004   3.467   6.735
 4523SOL    HW218411   1.987   3.413   6.812
 4523SOL    HW318412   1.992   3.557   6.765
 4523SOL    MW418413   2.001   3.471   6.749
 4524SOL     OW18414   2.990   2.533   6.072
 4524SOL    HW218415   3.016   2.557   5.983
 4524SOL    HW318416   2.972   2.440   6.068
 4524SOL    MW418417   2.992   2.525   6.059
 4525SOL     OW18418   3.655   3.153   5.923
 4525SOL    HW218419   3.611   3.194   5.998
 4525SOL    HW318420   3.712   3.221   5.888
 4525SOL    MW418421   3.657   3.167   5.928
 4526SOL     OW18422   2.311   3.569   6.241
 4526SOL    HW218423   2.343   3.657   6.219
 4526SOL    HW318424   2.264   3.541   6.163
 4526SOL    MW418425   2.310   3.577   6.228
 4527SOL     OW18426   3.695   1.931   6.290
 4527SOL    HW218427   3.749   1.882   6.352
 4527SOL    HW318428   3.638   1.865   6.251
 4527SOL    MW418429   3.695   1.915   6.292
 4528SOL     OW18430   2.027   3.629   5.818
 4528SOL    HW218431   2.056   3.719   5.810
 4528SOL    HW318432   1.977   3.612   5.739
 4528SOL    MW418433   2.025   3.637   5.807
 4529SOL     OW18434   3.431   3.437   5.789
 4529SOL    HW218435   3.479   3.506   5.835
 4529SOL    HW318436   3.352   3.481   5.758
 4529SOL    MW418437   3.426   3.451   5.792
 4530SOL     OW18438   2.829   2.562   5.733
 4530SOL    HW218439   2.831   2.509   5.654
 4530SOL    HW318440   2.917   2.599   5.739
 4530SOL    MW418441   2.841   2.561   5.722
 4531SOL     OW18442   3.443   2.488   6.069
 4531SOL    HW218443   3.482   2.488   6.156
 4531SOL    HW318444   3.384   2.564   6.069
 4531SOL    MW418445   3.440   2.499   6.080
 4532SOL     OW18446   3.630   2.374   6.235
 4532SOL    HW218447   3.719   2.343   6.252
 4532SOL    HW318448   3.573   2.314   6.283
 4532SOL    MW418449   3.633   2.362   6.244
 4533SOL     OW18450   2.056   2.088   6.264
 4533SOL    HW218451   2.047   2.028   6.190
 4533SOL    HW318452   1.989   2.059   6.327
 4533SOL    MW418453   2.046   2.075   6.262
 4534SOL     OW18454   2.999   3.181   5.825
 4534SOL    HW218455   2.949   3.183   5.907
 4534SOL    HW318456   2.933   3.199   5.757
 4534SOL    MW418457   2.985   3.183   5.827
 4535SOL     OW18458   2.003   2.261   6.627
 4535SOL    HW218459   1.975   2.352   6.636
 4535SOL    HW318460   1.940   2.222   6.566
 4535SOL    MW418461   1.990   2.267   6.621
 4536SOL     OW18462   2.462   3.599   5.933
 4536SOL    HW218463   2.383   3.557   5.966
 4536SOL    HW318464   2.528   3.582   6.000
 4536SOL    MW418465   2.461   3.591   5.946
 4537SOL     OW18466   2.598   3.014   5.640
 4537SOL    HW218467   2.520   2.960   5.627
 4537SOL    HW318468   2.569   3.087   5.693
 4537SOL    MW418469   2.584   3.016   5.645
 4538SOL     OW18470   3.179   3.530   5.708
 4538SOL    HW218471   3.105   3.493   5.758
 4538SOL    HW318472   3.187   3.620   5.741
 4538SOL    MW418473   3.170   3.537   5.720
 4539SOL     OW18474   3.403   3.204   5.650
 4539SOL    HW218475   3.350   3.253   5.586
 4539SOL    HW318476   3.434   3.270   5.711
 4539SOL    MW418477   3.401   3.218   5.648
 4540SOL     OW18478   2.628   2.093   5.705
 4540SOL    HW218479   2.576   2.013   5.693
 4540SOL    HW318480   2.715   2.070   5.673
 4540SOL    MW418481   2.631   2.079   5.699
 4541SOL     OW18482   2.134   2.964   6.756
 4541SOL    HW218483   2.187   3.039   6.781
 4541SOL    HW318484   2.053   3.002   6.722
 4541SOL    MW418485   2.130   2.979   6.756
 4542SOL     OW18486   1.989   2.733   6.162
 4542SOL    HW218487   2.080   2.748   6.189
 4542SOL    HW318488   1.992   2.654   6.108
 4542SOL    MW418489   2.001   2.725   6.160
 4543SOL     OW18490   2.616   3.665   6.536
 4543SOL    HW218491   2.705   3.680   6.566
 4543SOL    HW318492   2.611   3.712   6.452
 4543SOL    MW418493   2.626   3.673   6.529
 4544SOL     OW18494   1.997   3.345   6.201
 4544SOL    HW218495   1.969   3.384   6.283
 4544SOL    HW318496   2.017   3.254   6.223
 4544SOL    MW418497   1.995   3.337   6.214
 4545SOL     OW18498   2.830   3.388   6.236
 4545SOL    HW218499   2.913   3.342   6.220
 4545SOL    HW318500   2.820   3.387   6.332
 4545SOL    MW418501   2.840   3.381   6.246
 4546SOL     OW18502   2.563   3.445   5.641
 4546SOL    HW218503   2.503   3.514   5.611
 4546SOL    HW318504   2.508   3.387   5.694
 4546SOL    MW418505   2.547   3.447   5.643
 4547SOL     OW18506   3.001   2.090   5.864
 4547SOL    HW218507   2.934   2.066   5.801
 4547SOL    HW318508   3.066   2.139   5.813
 4547SOL    MW418509   3.001   2.092   5.849
 4548SOL     OW18510   2.520   2.807   6.376
 4548SOL    HW218511   2.431   2.798   6.409
 4548SOL    HW318512   2.524   2.897   6.344
 4548SOL    MW418513   2.509   2.818   6.376
 4549SOL     OW18514   3.319   2.390   6.371
 4549SOL    HW218515   3.264   2.311   6.370
 4549SOL    HW318516   3.301   2.431   6.455
 4549SOL    MW418517   3.309   2.385   6.380
 4550SOL     OW18518   2.938   2.594   6.328
 4550SOL    HW218519   2.875   2.526   6.352
 4550SOL    HW318520   2.958   2.575   6.236
 4550SOL    MW418521   2.932   2.581   6.320
 4551SOL     OW18522   2.194   3.489   6.030
 4551SOL    HW218523   2.155   3.536   5.956
 4551SOL    HW318524   2.128   3.424   6.055
 4551SOL    MW418525   2.181   3.487   6.024
 4552SOL     OW18526   2.686   2.898   6.054
 4552SOL    HW218527   2.688   2.872   5.961
 4552SOL    HW318528   2.744   2.835   6.097
 4552SOL    MW418529   2.694   2.887   6.048
 4553SOL     OW18530   3.243   3.666   6.256
 4553SOL    HW218531   3.186   3.619   6.195
 4553SOL    HW318532   3.329   3.627   6.243
 4553SOL    MW418533   3.246   3.657   6.246
 4554SOL     OW18534   3.196   2.142   6.387
 4554SOL    HW218535   3.224   2.074   6.448
 4554SOL    HW318536   3.110   2.113   6.357
 4554SOL    MW418537   3.189   2.129   6.391
 4555SOL     OW18538   2.001   3.076   6.321
 4555SOL    HW218539   2.065   3.108   6.384
 4555SOL    HW318540   2.050   3.012   6.269
 4555SOL    MW418541   2.016   3.072   6.322
 4556SOL     OW18542   3.176   2.246   5.722
 4556SOL    HW218543   3.149   2.312   5.658
 4556SOL    HW318544   3.246   2.289   5.772
 4556SOL    MW418545   3.181   2.259   5.719
 4557SOL     OW18546   2.844   1.951   5.659
 4557SOL    HW218547   2.900   1.943   5.581
 4557SOL    HW318548   2.821   1.861   5.681
 4557SOL    MW418549   2.849   1.938   5.652
 4558SOL     OW18550   3.349   2.802   5.864
 4558SOL    HW218551   3.316   2.891   5.854
 4558SOL    HW318552   3.314   2.773   5.949
 4558SOL    MW418553   3.339   2.811   5.875
 4559SOL     OW18554   2.279   3.389   6.693
 4559SOL    HW218555   2.324   3.451   6.750
 4559SOL    HW318556   2.186   3.408   6.706
 4559SOL    MW418557   2.272   3.399   6.700
 4560SOL     OW18558   2.343   2.840   5.656
 4560SOL    HW218559   2.266   2.853   5.712
 4560SOL    HW318560   2.307   2.804   5.575
 4560SOL    MW418561   2.329   2.836   5.653
 4561SOL     OW18562   2.996   2.813   5.899
 4561SOL    HW218563   2.906   2.834   5.874
 4561SOL    HW318564   3.023   2.886   5.955
 4561SOL    MW418565   2.988   2.825   5.902
 4562SOL     OW18566   2.496   3.162   6.591
 4562SOL    HW218567   2.489   3.141   6.685
 4562SOL    HW318568   2.414   3.130   6.554
 4562SOL    MW418569   2.484   3.156   6.598
 4563SOL     OW18570   2.625   1.929   6.306
 4563SOL    HW218571   2.554   1.990   6.288
 4563SOL    HW318572   2.676   1.926   6.225
 4563SOL    MW418573   2.621   1.935   6.293
 4564SOL     OW18574   2.383   3.169   6.055
 4564SOL    HW218575   2.376   3.201   6.145
 4564SOL    HW318576   2.293   3.153   6.027
 4564SOL    MW418577   2.371   3.171   6.062
 4565SOL     OW18578   3.092   3.527   6.454
 4565SOL    HW218579   3.139   3.600   6.413
 4565SOL    HW318580   3.013   3.566   6.490
 4565SOL    MW418581   3.087   3.542   6.453
 4566SOL     OW18582   2.386   2.453   5.769
 4566SOL    HW218583   2.352   2.509   5.839
 4566SOL    HW318584   2.457   2.403   5.809
 4566SOL    MW418585   2.392   2.454   5.783
 4567SOL     OW18586   3.442   2.339   5.833
 4567SOL    HW218587   3.434   2.410   5.770
 4567SOL    HW318588   3.460   2.383   5.916
 4567SOL    MW418589   3.443   2.353   5.835
 4568SOL     OW18590   2.302   1.994   6.262
 4568SOL    HW218591   2.352   2.037   6.193
 4568SOL    HW318592   2.217   2.038   6.262
 4568SOL    MW418593   2.299   2.007   6.253
 4569SOL     OW18594   3.111   2.601   5.808
 4569SOL    HW218595   3.158   2.619   5.727
 4569SOL    HW318596   3.077   2.685   5.836
 4569SOL    MW418597   3.113   2.615   5.801
 4570SOL     OW18598   2.224   2.779   6.302
 4570SOL    HW218599   2.282   2.835   6.250
 4570SOL    HW318600   2.268   2.694   6.304
 4570SOL    MW418601   2.237   2.776   6.295
 4571SOL     OW18602   3.364   2.131   6.139
 4571SOL    HW218603   3.286   2.081   6.164
 4571SOL    HW318604   3.335   2.222   6.139
 4571SOL    MW418605   3.350   2.135   6.142
 4572SOL     OW18606   2.950   2.093   6.298
 4572SOL    HW218607   2.970   2.168   6.242
 4572SOL    HW318608   2.930   2.132   6.383
 4572SOL    MW418609   2.951   2.109   6.302
 4573SOL     OW18610   2.846   3.343   5.630
 4573SOL    HW218611   2.873   3.421   5.582
 4573SOL    HW318612   2.753   3.358   5.649
 4573SOL    MW418613   2.837   3.356   5.626
 4574SOL     OW18614   1.931   3.379   6.474
 4574SOL    HW218615   1.963   3.383   6.565
 4574SOL    HW318616   1.836   3.387   6.482
 4574SOL    MW418617   1.923   3.382   6.487
 4575SOL     OW18618   1.886   2.505   6.021
 4575SOL    HW218619   1.826   2.477   6.091
 4575SOL    HW318620   1.960   2.445   6.027
 4575SOL    MW418621   1.888   2.494   6.030
 4576SOL     OW18622   3.054   3.236   6.181
 4576SOL    HW218623   3.077   3.187   6.259
 4576SOL    HW318624   3.135   3.278   6.153
 4576SOL    MW418625   3.067   3.236   6.188
 4577SOL     OW18626   2.266   2.211   6.646
 4577SOL    HW218627   2.296   2.125   6.617
 4577SOL    HW318628   2.171   2.204   6.649
 4577SOL    MW418629   2.258   2.200   6.644
 4578SOL     OW18630   2.409   1.989   6.537
 4578SOL    HW218631   2.419   1.898   6.563
 4578SOL    HW318632   2.365   1.985   6.452
 4578SOL    MW418633   2.405   1.977   6.529
 4579SOL     OW18634   3.194   1.903   5.817
 4579SOL    HW218635   3.268   1.947   5.860
 4579SOL    HW318636   3.118   1.957   5.839
 4579SOL    MW418637   3.194   1.915   5.825
 4580SOL     OW18638   3.254   2.678   6.095
 4580SOL    HW218639   3.169   2.648   6.065
 4580SOL    HW318640   3.246   2.685   6.190
 4580SOL    MW418641   3.242   2.676   6.104
 4581SOL     OW18642   2.627   2.344   5.821
 4581SOL    HW218643   2.700   2.393   5.784
 4581SOL    HW318644   2.643   2.253   5.795
 4581SOL    MW418645   2.639   2.339   5.814
 4582SOL     OW18646   2.102   2.853   5.919
 4582SOL    HW218647   2.039   2.869   5.848
 4582SOL    HW318648   2.049   2.816   5.990
 4582SOL    MW418649   2.087   2.850   5.919
 4583SOL     OW18650   2.458   3.207   5.778
 4583SOL    HW218651   2.473   3.183   5.870
 4583SOL    HW318652   2.366   3.185   5.762
 4583SOL    MW418653   2.448   3.200   5.788
 4584SOL     OW18654   2.997   3.438   5.930
 4584SOL    HW218655   3.005   3.356   5.881
 4584SOL    HW318656   2.916   3.477   5.897
 4584SOL    MW418657   2.987   3.433   5.920
 4585SOL     OW18658   2.256   3.596   6.499
 4585SOL    HW218659   2.260   3.507   6.534
 4585SOL    HW318660   2.282   3.587   6.408
 4585SOL    MW418661   2.259   3.584   6.491
 4586SOL     OW18662   2.333   2.319   6.376
 4586SOL    HW218663   2.404   2.267   6.339
 4586SOL    HW318664   2.319   2.284   6.463
 4586SOL    MW418665   2.341   2.308   6.383
 4587SOL     OW18666   2.649   3.412   6.452
 4587SOL    HW218667   2.577   3.349   6.465
 4587SOL    HW318668   2.610   3.497   6.470
 4587SOL    MW418669   2.633   3.415   6.455
 4588SOL     OW18670   2.969   2.260   6.100
 4588SOL    HW218671   2.991   2.197   6.032
 4588SOL    HW318672   2.874   2.252   6.111
 4588SOL    MW418673   2.959   2.251   6.092
 4589SOL     OW18674   2.054   1.950   6.032
 4589SOL    HW218675   2.125   1.971   5.971
 4589SOL    HW318676   2.008   1.878   5.990
 4589SOL    MW418677   2.058   1.944   6.018
 4590SOL     OW18678   3.623   3.324   6.132
 4590SOL    HW218679   3.593   3.257   6.193
 4590SOL    HW318680   3.717   3.330   6.146
 4590SOL    MW418681   3.631   3.316   6.142
 4591SOL     OW18682   3.179   3.001   6.062
 4591SOL    HW218683   3.151   3.087   6.095
 4591SOL    HW318684   3.207   3.017   5.972
 4591SOL    MW418685   3.179   3.015   6.054
 4592SOL     OW18686   2.841   1.921   6.115
 4592SOL    HW218687   2.878   1.980   6.180
 4592SOL    HW318688   2.818   1.977   6.041
 4592SOL    MW418689   2.842   1.936   6.114
 4593SOL     OW18690   3.694   2.803   6.537
 4593SOL    HW218691   3.685   2.835   6.448
 4593SOL    HW318692   3.647   2.719   6.537
 4593SOL    MW418693   3.687   2.796   6.527
 4594SOL     OW18694   3.606   2.734   6.238
 4594SOL    HW218695   3.700   2.723   6.226
 4594SOL    HW318696   3.582   2.806   6.179
 4594SOL    MW418697   3.616   2.742   6.229
 4595SOL     OW18698   2.262   2.612   6.011
 4595SOL    HW218699   2.262   2.707   5.996
 4595SOL    HW318700   2.339   2.596   6.065
 4595SOL    MW418701   2.272   2.623   6.016
 4596SOL     OW18702   2.021   2.343   6.300
 4596SOL    HW218703   2.083   2.350   6.373
 4596SOL    HW318704   2.021   2.250   6.277
 4596SOL    MW418705   2.029   2.332   6.307
 4597SOL     OW18706   3.568   3.683   5.832
 4597SOL    HW218707   3.635   3.716   5.772
 4597SOL    HW318708   3.525   3.762   5.866
 4597SOL    MW418709   3.570   3.698   5.828
 4598SOL     OW18710   1.890   2.915   5.758
 4598SOL    HW218711   1.859   2.980   5.821
 4598SOL    HW318712   1.839   2.837   5.777
 4598SOL    MW418713   1.880   2.912   5.768
 4599SOL     OW18714   3.334   2.666   6.350
 4599SOL    HW218715   3.414   2.681   6.299
 4599SOL    HW318716   3.327   2.571   6.356
 4599SOL    MW418717   3.343   2.655   6.345
 4600SOL     OW18718   2.474   3.715   5.700
 4600SOL    HW218719   2.379   3.715   5.692
 4600SOL    HW318720   2.490   3.661   5.778
 4600SOL    MW418721   2.464   3.709   5.709
 4601SOL     OW18722   3.319   2.535   5.615
 4601SOL    HW218723   3.247   2.511   5.557
 4601SOL    HW318724   3.385   2.572   5.557
 4601SOL    MW418725   3.318   2.537   5.600
 4602SOL     OW18726   2.453   3.267   6.296
 4602SOL    HW218727   2.518   3.200   6.317
 4602SOL    HW318728   2.505   3.344   6.273
 4602SOL    MW418729   2.468   3.269   6.295
 4603SOL     OW18730   2.714   2.432   6.426
 4603SOL    HW218731   2.654   2.450   6.498
 4603SOL    HW318732   2.748   2.344   6.445
 4603SOL    MW418733   2.710   2.422   6.439
 4604SOL     OW18734   2.939   3.015   6.445
 4604SOL    HW218735   3.031   2.996   6.463
 4604SOL    HW318736   2.912   2.945   6.385
 4604SOL    MW418737   2.947   3.003   6.439
 4605SOL     OW18738   2.732   2.835   5.800
 4605SOL    HW218739   2.718   2.747   5.765
 4605SOL    HW318740   2.683   2.892   5.741
 4605SOL    MW418741   2.724   2.830   5.788
 4606SOL     OW18742   2.145   2.559   6.579
 4606SOL    HW218743   2.095   2.558   6.660
 4606SOL    HW318744   2.165   2.651   6.563
 4606SOL    MW418745   2.141   2.571   6.587
 4607SOL     OW18746   3.451   2.041   5.902
 4607SOL    HW218747   3.444   2.045   5.997
 4607SOL    HW318748   3.463   2.132   5.875
 4607SOL    MW418749   3.452   2.054   5.910
 4608SOL     OW18750   2.740   2.604   6.016
 4608SOL    HW218751   2.720   2.590   5.923
 4608SOL    HW318752   2.833   2.583   6.023
 4608SOL    MW418753   2.750   2.599   6.005
 4609SOL     OW18754   2.723   3.562   6.054
 4609SOL    HW218755   2.781   3.633   6.081
 4609SOL    HW318756   2.746   3.490   6.112
 4609SOL    MW418757   2.734   3.562   6.065
 4610SOL     OW18758   1.966   1.867   6.743
 4610SOL    HW218759   1.957   1.868   6.648
 4610SOL    HW318760   2.060   1.879   6.758
 4610SOL    MW418761   1.978   1.870   6.734
 4611SOL     OW18762   3.603   3.060   6.363
 4611SOL    HW218763   3.582   3.006   6.286
 4611SOL    HW318764   3.699   3.058   6.367
 4611SOL    MW418765   3.612   3.053   6.352
 4612SOL     OW18766   2.179   1.994   5.789
 4612SOL    HW218767   2.108   2.049   5.757
 4612SOL    HW318768   2.221   1.960   5.710
 4612SOL    MW418769   2.175   1.996   5.775
 4613SOL     OW18770   1.935   2.093   5.638
 4613SOL    HW218771   1.902   2.172   5.682
 4613SOL    HW318772   1.990   2.126   5.567
 4613SOL    MW418773   1.938   2.107   5.635
 4614SOL     OW18774   1.969   3.350   5.827
 4614SOL    HW218775   1.986   3.434   5.869
 4614SOL    HW318776   2.004   3.359   5.739
 4614SOL    MW418777   1.974   3.363   5.821
 4615SOL     OW18778   3.241   3.439   6.044
 4615SOL    HW218779   3.304   3.429   5.973
 4615SOL    HW318780   3.158   3.459   5.999
 4615SOL    MW418781   3.238   3.440   6.029
 4616SOL     OW18782   3.604   4.575   0.257
 4616SOL    HW218783   3.645   4.517   0.322
 4616SOL    HW318784   3.511   4.567   0.274
 4616SOL    MW418785   3.598   4.567   0.267
 4617SOL     OW18786   3.470   4.507   1.252
 4617SOL    HW218787   3.425   4.574   1.303
 4617SOL    HW318788   3.558   4.543   1.238
 4617SOL    MW418789   3.476   4.520   1.256
 4618SOL     OW18790   2.398   4.758   0.486
 4618SOL    HW218791   2.488   4.733   0.470
 4618SOL    HW318792   2.394   4.851   0.463
 4618SOL    MW418793   2.410   4.767   0.481
 4619SOL     OW18794   3.514   5.461   0.628
 4619SOL    HW218795   3.526   5.407   0.706
 4619SOL    HW318796   3.551   5.409   0.557
 4619SOL    MW418797   3.520   5.446   0.629
 4620SOL     OW18798   2.893   5.346   1.629
 4620SOL    HW218799   2.934   5.382   1.550
 4620SOL    HW318800   2.928   5.257   1.636
 4620SOL    MW418801   2.904   5.339   1.620
 4621SOL     OW18802   3.450   4.901   1.233
 4621SOL    HW218803   3.371   4.866   1.191
 4621SOL    HW318804   3.477   4.973   1.177
 4621SOL    MW418805   3.443   4.906   1.220
 4622SOL     OW18806   2.682   4.214   0.499
 4622SOL    HW218807   2.657   4.302   0.527
 4622SOL    HW318808   2.679   4.217   0.403
 4622SOL    MW418809   2.678   4.226   0.491
 4623SOL     OW18810   2.124   4.242   0.427
 4623SOL    HW218811   2.156   4.330   0.409
 4623SOL    HW318812   2.112   4.240   0.522
 4623SOL    MW418813   2.127   4.254   0.439
 4624SOL     OW18814   2.202   4.655   1.328
 4624SOL    HW218815   2.265   4.602   1.279
 4624SOL    HW318816   2.183   4.729   1.271
 4624SOL    MW418817   2.208   4.657   1.315
 4625SOL     OW18818   2.523   3.997   0.514
 4625SOL    HW218819   2.581   4.073   0.516
 4625SOL    HW318820   2.458   4.018   0.447
 4625SOL    MW418821   2.522   4.009   0.505
 4626SOL     OW18822   2.610   4.924   0.689
 4626SOL    HW218823   2.690   4.927   0.741
 4626SOL    HW318824   2.638   4.891   0.603
 4626SOL    MW418825   2.624   4.920   0.684
 4627SOL     OW18826   2.635   5.265   1.592
 4627SOL    HW218827   2.719   5.291   1.631
 4627SOL    HW318828   2.659   5.209   1.518
 4627SOL    MW418829   2.649   5.261   1.587
 4628SOL     OW18830   2.387   4.428   0.680
 4628SOL    HW218831   2.372   4.348   0.731
 4628SOL    HW318832   2.469   4.463   0.714
 4628SOL    MW418833   2.395   4.420   0.692
 4629SOL     OW18834   2.724   5.114   1.365
 4629SOL    HW218835   2.688   5.180   1.305
 4629SOL    HW318836   2.652   5.052   1.378
 4629SOL    MW418837   2.710   5.114   1.359
 4630SOL     OW18838   2.529   4.254   1.057
 4630SOL    HW218839   2.435   4.250   1.075
 4630SOL    HW318840   2.559   4.163   1.066
 4630SOL    MW418841   2.520   4.242   1.060
 4631SOL     OW18842   2.275   4.668   0.961
 4631SOL    HW218843   2.230   4.675   0.877
 4631SOL    HW318844   2.255   4.751   1.005
 4631SOL    MW418845   2.267   4.680   0.955
 4632SOL     OW18846   1.972   5.514   0.836
 4632SOL    HW218847   2.061   5.506   0.871
 4632SOL    HW318848   1.936   5.426   0.841
 4632SOL    MW418849   1.979   5.501   0.841
 4633SOL     OW18850   3.237   4.906   0.205
 4633SOL    HW218851   3.155   4.942   0.171
 4633SOL    HW318852   3.305   4.949   0.154
 4633SOL    MW418853   3.235   4.916   0.193
 4634SOL     OW18854   2.236   5.041   0.871
 4634SOL    HW218855   2.212   5.094   0.947
 4634SOL    HW318856   2.292   5.099   0.819
 4634SOL    MW418857   2.240   5.056   0.874
 4635SOL     OW18858   2.798   4.685   0.681
 4635SOL    HW218859   2.712   4.672   0.721
 4635SOL    HW318860   2.851   4.612   0.713
 4635SOL    MW418861   2.794   4.674   0.690
 4636SOL     OW18862   2.206   5.337   1.466
 4636SOL    HW218863   2.114   5.313   1.451
 4636SOL    HW318864   2.250   5.254   1.483
 4636SOL    MW418865   2.200   5.322   1.465
 4637SOL     OW18866   2.789   5.047   0.398
 4637SOL    HW218867   2.766   5.109   0.466
 4637SOL    HW318868   2.746   4.965   0.424
 4637SOL    MW418869   2.781   5.043   0.409
 4638SOL     OW18870   3.662   4.048   0.854
 4638SOL    HW218871   3.599   4.028   0.923
 4638SOL    HW318872   3.652   3.977   0.791
 4638SOL    MW418873   3.652   4.035   0.855
 4639SOL     OW18874   2.286   4.020   0.366
 4639SOL    HW218875   2.260   3.982   0.282
 4639SOL    HW318876   2.223   4.090   0.382
 4639SOL    MW418877   2.275   4.023   0.357
 4640SOL     OW18878   2.121   4.981   0.403
 4640SOL    HW218879   2.069   5.049   0.359
 4640SOL    HW318880   2.118   4.907   0.343
 4640SOL    MW418881   2.113   4.980   0.390
 4641SOL     OW18882   2.783   5.444   0.181
 4641SOL    HW218883   2.738   5.460   0.264
 4641SOL    HW318884   2.714   5.409   0.123
 4641SOL    MW418885   2.769   5.441   0.183
 4642SOL     OW18886   3.718   4.217   0.156
 4642SOL    HW218887   3.627   4.219   0.184
 4642SOL    HW318888   3.763   4.279   0.214
 4642SOL    MW418889   3.711   4.225   0.166
 4643SOL     OW18890   3.463   4.820   0.506
 4643SOL    HW218891   3.373   4.820   0.541
 4643SOL    HW318892   3.456   4.866   0.423
 4643SOL    MW418893   3.450   4.826   0.500
 4644SOL     OW18894   3.263   4.455   1.578
 4644SOL    HW218895   3.332   4.393   1.555
 4644SOL    HW318896   3.188   4.429   1.525
 4644SOL    MW418897   3.263   4.442   1.569
 4645SOL     OW18898   2.004   5.335   1.130
 4645SOL    HW218899   1.987   5.281   1.207
 4645SOL    HW318900   1.992   5.425   1.160
 4645SOL    MW418901   2.001   5.339   1.144
 4646SOL     OW18902   2.999   4.842   1.570
 4646SOL    HW218903   2.984   4.935   1.555
 4646SOL    HW318904   3.094   4.832   1.570
 4646SOL    MW418905   3.008   4.852   1.567
 4647SOL     OW18906   2.795   4.266   1.771
 4647SOL    HW218907   2.885   4.267   1.738
 4647SOL    HW318908   2.754   4.191   1.729
 4647SOL    MW418909   2.801   4.256   1.762
 4648SOL     OW18910   3.370   4.798   0.898
 4648SOL    HW218911   3.373   4.732   0.829
 4648SOL    HW318912   3.455   4.841   0.894
 4648SOL    MW418913   3.382   4.794   0.889
 4649SOL     OW18914   2.990   4.401   0.467
 4649SOL    HW218915   3.016   4.425   0.378
 4649SOL    HW318916   2.972   4.308   0.463
 4649SOL    MW418917   2.992   4.393   0.454
 4650SOL     OW18918   3.655   5.021   0.318
 4650SOL    HW218919   3.611   5.062   0.393
 4650SOL    HW318920   3.712   5.089   0.283
 4650SOL    MW418921   3.657   5.035   0.323
 4651SOL     OW18922   2.575   4.070   1.721
 4651SOL    HW218923   2.585   3.996   1.661
 4651SOL    HW318924   2.611   4.039   1.804
 4651SOL    MW418925   2.581   4.056   1.723
 4652SOL     OW18926   2.311   5.437   0.636
 4652SOL    HW218927   2.343   5.525   0.614
 4652SOL    HW318928   2.264   5.409   0.558
 4652SOL    MW418929   2.310   5.445   0.623
 4653SOL     OW18930   3.695   3.799   0.685
 4653SOL    HW218931   3.749   3.750   0.747
 4653SOL    HW318932   3.638   3.733   0.646
 4653SOL    MW418933   3.695   3.783   0.687
 4654SOL     OW18934   2.027   5.497   0.213
 4654SOL    HW218935   2.056   5.587   0.205
 4654SOL    HW318936   1.977   5.480   0.134
 4654SOL    MW418937   2.025   5.505   0.202
 4655SOL     OW18938   2.814   3.752   1.098
 4655SOL    HW218939   2.773   3.830   1.060
 4655SOL    HW318940   2.908   3.770   1.093
 4655SOL    MW418941   2.820   3.764   1.093
 4656SOL     OW18942   3.431   5.305   0.184
 4656SOL    HW218943   3.479   5.374   0.230
 4656SOL    HW318944   3.352   5.349   0.153
 4656SOL    MW418945   3.426   5.319   0.187
 4657SOL     OW18946   2.829   4.430   0.128
 4657SOL    HW218947   2.831   4.377   0.049
 4657SOL    HW318948   2.917   4.467   0.134
 4657SOL    MW418949   2.841   4.429   0.117
 4658SOL     OW18950   3.443   4.356   0.464
 4658SOL    HW218951   3.482   4.356   0.551
 4658SOL    HW318952   3.384   4.432   0.464
 4658SOL    MW418953   3.440   4.367   0.475
 4659SOL     OW18954   2.760   4.723   1.593
 4659SOL    HW218955   2.737   4.703   1.683
 4659SOL    HW318956   2.845   4.767   1.598
 4659SOL    MW418957   2.767   4.726   1.605
 4660SOL     OW18958   2.840   3.860   1.353
 4660SOL    HW218959   2.846   3.822   1.266
 4660SOL    HW318960   2.829   3.954   1.338
 4660SOL    MW418961   2.841   3.868   1.341
 4661SOL     OW18962   2.929   4.349   1.187
 4661SOL    HW218963   3.004   4.378   1.134
 4661SOL    HW318964   2.861   4.414   1.171
 4661SOL    MW418965   2.930   4.361   1.177
 4662SOL     OW18966   3.479   4.317   1.464
 4662SOL    HW218967   3.460   4.226   1.443
 4662SOL    HW318968   3.457   4.366   1.385
 4662SOL    MW418969   3.474   4.310   1.451
 4663SOL     OW18970   3.621   5.411   1.368
 4663SOL    HW218971   3.549   5.373   1.419
 4663SOL    HW318972   3.638   5.496   1.409
 4663SOL    MW418973   3.615   5.416   1.380
 4664SOL     OW18974   2.926   4.055   1.570
 4664SOL    HW218975   2.892   4.094   1.489
 4664SOL    HW318976   2.904   3.963   1.563
 4664SOL    MW418977   2.919   4.048   1.560
 4665SOL     OW18978   3.335   4.869   1.646
 4665SOL    HW218979   3.417   4.910   1.676
 4665SOL    HW318980   3.298   4.831   1.726
 4665SOL    MW418981   3.341   4.870   1.661
 4666SOL     OW18982   3.630   4.242   0.630
 4666SOL    HW218983   3.719   4.211   0.647
 4666SOL    HW318984   3.573   4.182   0.678
 4666SOL    MW418985   3.633   4.230   0.639
 4667SOL     OW18986   2.056   3.956   0.659
 4667SOL    HW218987   2.047   3.896   0.585
 4667SOL    HW318988   1.989   3.927   0.722
 4667SOL    MW418989   2.046   3.943   0.657
 4668SOL     OW18990   2.999   5.049   0.220
 4668SOL    HW218991   2.949   5.051   0.302
 4668SOL    HW318992   2.933   5.067   0.152
 4668SOL    MW418993   2.985   5.051   0.222
 4669SOL     OW18994   2.003   4.129   1.022
 4669SOL    HW218995   1.975   4.220   1.031
 4669SOL    HW318996   1.940   4.090   0.961
 4669SOL    MW418997   1.990   4.135   1.016
 4670SOL     OW18998   2.462   5.467   0.328
 4670SOL    HW218999   2.383   5.425   0.361
 4670SOL    HW319000   2.528   5.450   0.395
 4670SOL    MW419001   2.461   5.459   0.341
 4671SOL     OW19002   3.590   4.987   1.725
 4671SOL    HW219003   3.640   4.913   1.757
 4671SOL    HW319004   3.536   5.014   1.800
 4671SOL    MW419005   3.590   4.981   1.738
 4672SOL     OW19006   2.598   4.882   0.035
 4672SOL    HW219007   2.520   4.828   0.022
 4672SOL    HW319008   2.569   4.955   0.088
 4672SOL    MW419009   2.584   4.884   0.040
 4673SOL     OW19010   3.724   4.622   1.227
 4673SOL    HW219011   3.740   4.660   1.140
 4673SOL    HW319012   3.758   4.688   1.288
 4673SOL    MW419013   3.731   4.635   1.223
 4674SOL     OW19014   3.516   5.331   0.896
 4674SOL    HW219015   3.545   5.398   0.957
 4674SOL    HW319016   3.497   5.255   0.951
 4674SOL    MW419017   3.518   5.331   0.911
 4675SOL     OW19018   3.179   5.398   0.103
 4675SOL    HW219019   3.105   5.361   0.153
 4675SOL    HW319020   3.187   5.488   0.136
 4675SOL    MW419021   3.170   5.405   0.115
 4676SOL     OW19022   1.987   4.404   1.192
 4676SOL    HW219023   2.049   4.434   1.258
 4676SOL    HW319024   1.921   4.473   1.186
 4676SOL    MW419025   1.986   4.417   1.199
 4677SOL     OW19026   3.403   5.072   0.045
 4677SOL    HW219027   3.350   5.121  -0.019
 4677SOL    HW319028   3.434   5.138   0.106
 4677SOL    MW419029   3.401   5.086   0.043
 4678SOL     OW19030   2.628   3.961   0.100
 4678SOL    HW219031   2.576   3.881   0.088
 4678SOL    HW319032   2.715   3.938   0.068
 4678SOL    MW419033   2.631   3.947   0.094
 4679SOL     OW19034   2.082   5.513   1.644
 4679SOL    HW219035   2.056   5.581   1.582
 4679SOL    HW319036   2.130   5.450   1.592
 4679SOL    MW419037   2.084   5.513   1.630
 4680SOL     OW19038   2.134   4.832   1.151
 4680SOL    HW219039   2.187   4.907   1.176
 4680SOL    HW319040   2.053   4.870   1.117
 4680SOL    MW419041   2.130   4.847   1.151
 4681SOL     OW19042   2.674   4.736   1.139
 4681SOL    HW219043   2.702   4.645   1.151
 4681SOL    HW319044   2.603   4.730   1.075
 4681SOL    MW419045   2.667   4.724   1.134
 4682SOL     OW19046   1.989   4.601   0.557
 4682SOL    HW219047   2.080   4.616   0.584
 4682SOL    HW319048   1.992   4.522   0.503
 4682SOL    MW419049   2.001   4.593   0.555
 4683SOL     OW19050   2.225   4.309   1.811
 4683SOL    HW219051   2.172   4.389   1.818
 4683SOL    HW319052   2.295   4.321   1.876
 4683SOL    MW419053   2.227   4.322   1.819
 4684SOL     OW19054   2.611   3.859   1.518
 4684SOL    HW219055   2.588   3.767   1.520
 4684SOL    HW319056   2.697   3.861   1.475
 4684SOL    MW419057   2.618   3.849   1.514
 4685SOL     OW19058   2.295   4.383   1.557
 4685SOL    HW219059   2.375   4.433   1.543
 4685SOL    HW319060   2.286   4.377   1.652
 4685SOL    MW419061   2.304   4.389   1.567
 4686SOL     OW19062   2.616   5.533   0.931
 4686SOL    HW219063   2.705   5.548   0.961
 4686SOL    HW319064   2.611   5.580   0.847
 4686SOL    MW419065   2.626   5.541   0.924
 4687SOL     OW19066   3.272   3.908   1.828
 4687SOL    HW219067   3.328   3.835   1.854
 4687SOL    HW319068   3.242   3.946   1.910
 4687SOL    MW419069   3.276   3.903   1.841
 4688SOL     OW19070   1.997   5.213   0.596
 4688SOL    HW219071   1.969   5.252   0.678
 4688SOL    HW319072   2.017   5.122   0.618
 4688SOL    MW419073   1.995   5.205   0.609
 4689SOL     OW19074   2.830   5.256   0.631
 4689SOL    HW219075   2.913   5.210   0.615
 4689SOL    HW319076   2.820   5.255   0.727
 4689SOL    MW419077   2.840   5.249   0.641
 4690SOL     OW19078   3.662   4.401   0.945
 4690SOL    HW219079   3.751   4.431   0.927
 4690SOL    HW319080   3.642   4.341   0.874
 4690SOL    MW419081   3.671   4.398   0.934
 4691SOL     OW19082   3.513   4.580   1.825
 4691SOL    HW219083   3.568   4.504   1.806
 4691SOL    HW319084   3.515   4.588   1.920
 4691SOL    MW419085   3.521   4.571   1.833
 4692SOL     OW19086   2.563   5.313   0.036
 4692SOL    HW219087   2.503   5.382   0.006
 4692SOL    HW319088   2.508   5.255   0.089
 4692SOL    MW419089   2.547   5.315   0.038
 4693SOL     OW19090   3.001   3.958   0.259
 4693SOL    HW219091   2.934   3.934   0.196
 4693SOL    HW319092   3.066   4.007   0.208
 4693SOL    MW419093   3.001   3.960   0.244
 4694SOL     OW19094   2.808   4.142   1.344
 4694SOL    HW219095   2.727   4.183   1.372
 4694SOL    HW319096   2.855   4.210   1.296
 4694SOL    MW419097   2.803   4.157   1.342
 4695SOL     OW19098   3.068   4.480   0.967
 4695SOL    HW219099   3.081   4.574   0.977
 4695SOL    HW319100   3.029   4.470   0.881
 4695SOL    MW419101   3.064   4.491   0.957
 4696SOL     OW19102   2.520   4.675   0.771
 4696SOL    HW219103   2.431   4.666   0.804
 4696SOL    HW319104   2.524   4.765   0.739
 4696SOL    MW419105   2.509   4.686   0.771
 4697SOL     OW19106   3.319   4.258   0.766
 4697SOL    HW219107   3.264   4.179   0.765
 4697SOL    HW319108   3.301   4.299   0.850
 4697SOL    MW419109   3.309   4.253   0.775
 4698SOL     OW19110   2.290   3.945   1.583
 4698SOL    HW219111   2.211   3.963   1.635
 4698SOL    HW319112   2.285   4.007   1.510
 4698SOL    MW419113   2.280   3.955   1.580
 4699SOL     OW19114   2.938   4.462   0.723
 4699SOL    HW219115   2.875   4.394   0.747
 4699SOL    HW319116   2.958   4.443   0.631
 4699SOL    MW419117   2.932   4.449   0.715
 4700SOL     OW19118   2.194   5.357   0.425
 4700SOL    HW219119   2.155   5.404   0.351
 4700SOL    HW319120   2.128   5.292   0.450
 4700SOL    MW419121   2.181   5.355   0.419
 4701SOL     OW19122   2.686   4.766   0.449
 4701SOL    HW219123   2.688   4.740   0.356
 4701SOL    HW319124   2.744   4.703   0.492
 4701SOL    MW419125   2.694   4.755   0.443
 4702SOL     OW19126   3.239   5.326   1.221
 4702SOL    HW219127   3.164   5.372   1.259
 4702SOL    HW319128   3.221   5.233   1.238
 4702SOL    MW419129   3.228   5.320   1.229
 4703SOL     OW19130   3.243   5.534   0.651
 4703SOL    HW219131   3.186   5.487   0.590
 4703SOL    HW319132   3.329   5.495   0.638
 4703SOL    MW419133   3.246   5.525   0.641
 4704SOL     OW19134   3.196   4.010   0.782
 4704SOL    HW219135   3.224   3.942   0.843
 4704SOL    HW319136   3.110   3.981   0.752
 4704SOL    MW419137   3.189   3.997   0.786
 4705SOL     OW19138   2.001   4.944   0.716
 4705SOL    HW219139   2.065   4.976   0.779
 4705SOL    HW319140   2.050   4.880   0.664
 4705SOL    MW419141   2.016   4.940   0.717
 4706SOL     OW19142   2.501   5.020   1.698
 4706SOL    HW219143   2.549   5.103   1.685
 4706SOL    HW319144   2.558   4.968   1.754
 4706SOL    MW419145   2.515   5.024   1.704
 4707SOL     OW19146   2.077   5.262   1.838
 4707SOL    HW219147   2.133   5.186   1.853
 4707SOL    HW319148   2.026   5.240   1.760
 4707SOL    MW419149   2.077   5.249   1.829
 4708SOL     OW19150   3.176   4.114   0.117
 4708SOL    HW219151   3.149   4.180   0.053
 4708SOL    HW319152   3.246   4.157   0.167
 4708SOL    MW419153   3.181   4.127   0.114
 4709SOL     OW19154   2.844   3.819   0.054
 4709SOL    HW219155   2.900   3.811  -0.024
 4709SOL    HW319156   2.821   3.729   0.076
 4709SOL    MW419157   2.849   3.806   0.047
 4710SOL     OW19158   3.349   4.670   0.259
 4710SOL    HW219159   3.316   4.759   0.249
 4710SOL    HW319160   3.314   4.641   0.344
 4710SOL    MW419161   3.339   4.679   0.270
 4711SOL     OW19162   2.962   5.099   1.447
 4711SOL    HW219163   2.873   5.105   1.415
 4711SOL    HW319164   3.006   5.178   1.415
 4711SOL    MW419165   2.957   5.109   1.439
 4712SOL     OW19166   2.255   3.767   1.789
 4712SOL    HW219167   2.183   3.732   1.737
 4712SOL    HW319168   2.313   3.808   1.724
 4712SOL    MW419169   2.253   3.768   1.774
 4713SOL     OW19170   2.279   5.257   1.088
 4713SOL    HW219171   2.324   5.319   1.145
 4713SOL    HW319172   2.186   5.276   1.101
 4713SOL    MW419173   2.272   5.267   1.095
 4714SOL     OW19174   3.719   4.786   1.442
 4714SOL    HW219175   3.634   4.799   1.401
 4714SOL    HW319176   3.699   4.750   1.529
 4714SOL    MW419177   3.706   4.782   1.447
 4715SOL     OW19178   2.701   5.325   1.196
 4715SOL    HW219179   2.725   5.314   1.105
 4715SOL    HW319180   2.624   5.382   1.194
 4715SOL    MW419181   2.693   5.330   1.185
 4716SOL     OW19182   2.343   4.708   0.051
 4716SOL    HW219183   2.266   4.721   0.107
 4716SOL    HW319184   2.307   4.672  -0.030
 4716SOL    MW419185   2.329   4.704   0.048
 4717SOL     OW19186   2.996   4.681   0.294
 4717SOL    HW219187   2.906   4.702   0.269
 4717SOL    HW319188   3.023   4.754   0.350
 4717SOL    MW419189   2.988   4.693   0.297
 4718SOL     OW19190   2.496   5.030   0.986
 4718SOL    HW219191   2.489   5.009   1.080
 4718SOL    HW319192   2.414   4.998   0.949
 4718SOL    MW419193   2.484   5.024   0.993
 4719SOL     OW19194   3.360   4.040   1.388
 4719SOL    HW219195   3.307   4.042   1.468
 4719SOL    HW319196   3.345   3.953   1.351
 4719SOL    MW419197   3.352   4.030   1.393
 4720SOL     OW19198   3.696   3.964   1.261
 4720SOL    HW219199   3.677   4.031   1.196
 4720SOL    HW319200   3.753   3.902   1.216
 4720SOL    MW419201   3.700   3.965   1.247
 4721SOL     OW19202   1.942   5.122   1.649
 4721SOL    HW219203   1.986   5.055   1.595
 4721SOL    HW319204   1.857   5.084   1.669
 4721SOL    MW419205   1.937   5.108   1.645
 4722SOL     OW19206   2.625   3.797   0.701
 4722SOL    HW219207   2.554   3.858   0.683
 4722SOL    HW319208   2.676   3.794   0.620
 4722SOL    MW419209   2.621   3.803   0.688
 4723SOL     OW19210   2.383   5.037   0.450
 4723SOL    HW219211   2.376   5.069   0.540
 4723SOL    HW319212   2.293   5.021   0.422
 4723SOL    MW419213   2.371   5.039   0.457
 4724SOL     OW19214   2.978   5.430   1.359
 4724SOL    HW219215   2.898   5.415   1.309
 4724SOL    HW319216   2.985   5.525   1.366
 4724SOL    MW419217   2.969   5.441   1.353
 4725SOL     OW19218   3.092   5.395   0.849
 4725SOL    HW219219   3.139   5.468   0.808
 4725SOL    HW319220   3.013   5.434   0.885
 4725SOL    MW419221   3.087   5.410   0.848
 4726SOL     OW19222   3.500   5.490   1.124
 4726SOL    HW219223   3.543   5.460   1.204
 4726SOL    HW319224   3.419   5.438   1.121
 4726SOL    MW419225   3.495   5.479   1.134
 4727SOL     OW19226   2.585   4.454   1.831
 4727SOL    HW219227   2.655   4.396   1.803
 4727SOL    HW319228   2.528   4.399   1.886
 4727SOL    MW419229   2.587   4.441   1.835
 4728SOL     OW19230   3.372   4.666   1.464
 4728SOL    HW219231   3.377   4.719   1.544
 4728SOL    HW319232   3.334   4.583   1.492
 4728SOL    MW419233   3.368   4.661   1.479
 4729SOL     OW19234   3.012   3.801   1.710
 4729SOL    HW219235   3.007   3.708   1.691
 4729SOL    HW319236   3.095   3.812   1.756
 4729SOL    MW419237   3.020   3.790   1.714
 4730SOL     OW19238   2.386   4.321   0.164
 4730SOL    HW219239   2.352   4.377   0.234
 4730SOL    HW319240   2.457   4.271   0.204
 4730SOL    MW419241   2.392   4.322   0.178
 4731SOL     OW19242   3.482   5.072   0.986
 4731SOL    HW219243   3.517   5.054   0.899
 4731SOL    HW319244   3.387   5.073   0.973
 4731SOL    MW419245   3.474   5.069   0.973
 4732SOL     OW19246   2.911   4.720   1.355
 4732SOL    HW219247   2.954   4.755   1.433
 4732SOL    HW319248   2.894   4.797   1.301
 4732SOL    MW419249   2.914   4.735   1.358
 4733SOL     OW19250   3.442   4.207   0.228
 4733SOL    HW219251   3.434   4.278   0.165
 4733SOL    HW319252   3.460   4.251   0.311
 4733SOL    MW419253   3.443   4.221   0.230
 4734SOL     OW19254   2.302   3.862   0.657
 4734SOL    HW219255   2.352   3.905   0.588
 4734SOL    HW319256   2.217   3.906   0.657
 4734SOL    MW419257   2.299   3.875   0.648
 4735SOL     OW19258   2.061   4.924   1.517
 4735SOL    HW219259   2.089   4.877   1.595
 4735SOL    HW319260   1.982   4.879   1.488
 4735SOL    MW419261   2.054   4.913   1.523
 4736SOL     OW19262   2.569   4.251   1.484
 4736SOL    HW219263   2.541   4.339   1.508
 4736SOL    HW319264   2.538   4.195   1.555
 4736SOL    MW419265   2.561   4.254   1.496
 4737SOL     OW19266   3.111   4.469   0.203
 4737SOL    HW219267   3.158   4.487   0.122
 4737SOL    HW319268   3.077   4.553   0.231
 4737SOL    MW419269   3.113   4.483   0.196
 4738SOL     OW19270   2.224   4.647   0.697
 4738SOL    HW219271   2.282   4.703   0.645
 4738SOL    HW319272   2.268   4.562   0.699
 4738SOL    MW419273   2.237   4.644   0.690
 4739SOL     OW19274   3.364   3.999   0.534
 4739SOL    HW219275   3.286   3.949   0.559
 4739SOL    HW319276   3.335   4.090   0.534
 4739SOL    MW419277   3.350   4.003   0.537
 4740SOL     OW19278   2.950   3.961   0.693
 4740SOL    HW219279   2.970   4.036   0.637
 4740SOL    HW319280   2.930   4.000   0.778
 4740SOL    MW419281   2.951   3.977   0.697
 4741SOL     OW19282   2.846   5.211   0.025
 4741SOL    HW219283   2.873   5.289  -0.023
 4741SOL    HW319284   2.753   5.226   0.044
 4741SOL    MW419285   2.837   5.224   0.021
 4742SOL     OW19286   3.710   4.734   1.712
 4742SOL    HW219287   3.623   4.714   1.748
 4742SOL    HW319288   3.764   4.660   1.737
 4742SOL    MW419289   3.705   4.723   1.720
 4743SOL     OW19290   1.931   5.247   0.869
 4743SOL    HW219291   1.963   5.251   0.960
 4743SOL    HW319292   1.836   5.255   0.877
 4743SOL    MW419293   1.923   5.250   0.882
 4744SOL     OW19294   1.886   4.373   0.416
 4744SOL    HW219295   1.826   4.345   0.486
 4744SOL    HW319296   1.960   4.313   0.422
 4744SOL    MW419297   1.888   4.362   0.425
 4745SOL     OW19298   3.454   5.585   1.850
 4745SOL    HW219299   3.499   5.509   1.815
 4745SOL    HW319300   3.492   5.598   1.937
 4745SOL    MW419301   3.464   5.578   1.856
 4746SOL     OW19302   3.054   5.104   0.576
 4746SOL    HW219303   3.077   5.055   0.654
 4746SOL    HW319304   3.135   5.146   0.548
 4746SOL    MW419305   3.067   5.104   0.583
 4747SOL     OW19306   2.312   4.112   1.305
 4747SOL    HW219307   2.345   4.193   1.345
 4747SOL    HW319308   2.285   4.138   1.217
 4747SOL    MW419309   2.311   4.126   1.299
 4748SOL     OW19310   2.266   4.079   1.041
 4748SOL    HW219311   2.296   3.993   1.012
 4748SOL    HW319312   2.171   4.072   1.044
 4748SOL    MW419313   2.258   4.068   1.039
 4749SOL     OW19314   3.095   4.288   1.732
 4749SOL    HW219315   3.147   4.223   1.685
 4749SOL    HW319316   3.053   4.339   1.662
 4749SOL    MW419317   3.096   4.285   1.715
 4750SOL     OW19318   3.194   4.083   1.593
 4750SOL    HW219319   3.101   4.067   1.580
 4750SOL    HW319320   3.220   4.021   1.661
 4750SOL    MW419321   3.184   4.073   1.600
 4751SOL     OW19322   2.409   3.857   0.932
 4751SOL    HW219323   2.419   3.766   0.958
 4751SOL    HW319324   2.365   3.853   0.847
 4751SOL    MW419325   2.405   3.845   0.924
 4752SOL     OW19326   2.503   5.472   1.478
 4752SOL    HW219327   2.420   5.457   1.523
 4752SOL    HW319328   2.562   5.405   1.513
 4752SOL    MW419329   2.501   5.462   1.488
 4753SOL     OW19330   3.560   4.179   1.103
 4753SOL    HW219331   3.493   4.212   1.163
 4753SOL    HW319332   3.603   4.257   1.069
 4753SOL    MW419333   3.558   4.194   1.107
 4754SOL     OW19334   3.738   4.899   1.073
 4754SOL    HW219335   3.731   4.839   0.998
 4754SOL    HW319336   3.664   4.959   1.062
 4754SOL    MW419337   3.728   4.899   1.062
 4755SOL     OW19338   3.120   4.761   0.991
 4755SOL    HW219339   3.134   4.733   1.082
 4755SOL    HW319340   3.206   4.792   0.963
 4755SOL    MW419341   3.133   4.762   1.000
 4756SOL     OW19342   3.203   4.256   1.270
 4756SOL    HW219343   3.224   4.257   1.177
 4756SOL    HW319344   3.248   4.178   1.303
 4756SOL    MW419345   3.210   4.246   1.262
 4757SOL     OW19346   3.696   4.387   1.812
 4757SOL    HW219347   3.733   4.332   1.881
 4757SOL    HW319348   3.721   4.344   1.730
 4757SOL    MW419349   3.703   4.375   1.811
 4758SOL     OW19350   3.243   4.685   1.863
 4758SOL    HW219351   3.309   4.633   1.817
 4758SOL    HW319352   3.263   4.672   1.956
 4758SOL    MW419353   3.254   4.676   1.870
 4759SOL     OW19354   3.194   3.771   0.212
 4759SOL    HW219355   3.268   3.815   0.255
 4759SOL    HW319356   3.118   3.825   0.234
 4759SOL    MW419357   3.194   3.783   0.220
 4760SOL     OW19358   3.254   4.546   0.490
 4760SOL    HW219359   3.169   4.516   0.460
 4760SOL    HW319360   3.246   4.553   0.585
 4760SOL    MW419361   3.242   4.544   0.499
 4761SOL     OW19362   2.330   5.009   1.221
 4761SOL    HW219363   2.342   5.036   1.312
 4761SOL    HW319364   2.311   5.090   1.174
 4761SOL    MW419365   2.329   5.024   1.226
 4762SOL     OW19366   2.614   3.989   1.044
 4762SOL    HW219367   2.587   3.991   1.135
 4762SOL    HW319368   2.544   3.941   0.999
 4762SOL    MW419369   2.602   3.985   1.051
 4763SOL     OW19370   2.468   5.481   1.206
 4763SOL    HW219371   2.520   5.558   1.183
 4763SOL    HW319372   2.477   5.473   1.301
 4763SOL    MW419373   2.477   5.488   1.217
 4764SOL     OW19374   3.370   5.066   1.438
 4764SOL    HW219375   3.355   4.995   1.501
 4764SOL    HW319376   3.416   5.024   1.366
 4764SOL    MW419377   3.376   5.050   1.438
 4765SOL     OW19378   2.444   4.797   1.555
 4765SOL    HW219379   2.481   4.802   1.467
 4765SOL    HW319380   2.483   4.870   1.602
 4765SOL    MW419381   2.454   4.807   1.550
 4766SOL     OW19382   2.624   4.840   1.367
 4766SOL    HW219383   2.683   4.786   1.420
 4766SOL    HW319384   2.639   4.812   1.277
 4766SOL    MW419385   2.634   4.829   1.363
 4767SOL     OW19386   2.627   4.212   0.216
 4767SOL    HW219387   2.700   4.261   0.179
 4767SOL    HW319388   2.643   4.121   0.190
 4767SOL    MW419389   2.639   4.207   0.209
 4768SOL     OW19390   3.435   5.329   1.539
 4768SOL    HW219391   3.477   5.314   1.624
 4768SOL    HW319392   3.426   5.242   1.501
 4768SOL    MW419393   3.439   5.317   1.546
 4769SOL     OW19394   3.095   3.808   1.130
 4769SOL    HW219395   3.150   3.817   1.052
 4769SOL    HW319396   3.150   3.842   1.201
 4769SOL    MW419397   3.109   3.813   1.129
 4770SOL     OW19398   2.102   4.721   0.314
 4770SOL    HW219399   2.039   4.737   0.243
 4770SOL    HW319400   2.049   4.684   0.385
 4770SOL    MW419401   2.087   4.718   0.314
 4771SOL     OW19402   2.458   5.075   0.173
 4771SOL    HW219403   2.473   5.051   0.265
 4771SOL    HW319404   2.366   5.053   0.157
 4771SOL    MW419405   2.448   5.068   0.183
 4772SOL     OW19406   2.997   5.306   0.325
 4772SOL    HW219407   3.005   5.224   0.276
 4772SOL    HW319408   2.916   5.345   0.292
 4772SOL    MW419409   2.987   5.301   0.315
 4773SOL     OW19410   2.256   5.464   0.894
 4773SOL    HW219411   2.260   5.375   0.929
 4773SOL    HW319412   2.282   5.455   0.803
 4773SOL    MW419413   2.259   5.452   0.886
 4774SOL     OW19414   2.873   4.942   1.137
 4774SOL    HW219415   2.805   4.876   1.153
 4774SOL    HW319416   2.891   4.936   1.044
 4774SOL    MW419417   2.866   4.933   1.128
 4775SOL     OW19418   1.962   5.217   1.388
 4775SOL    HW219419   1.952   5.175   1.474
 4775SOL    HW319420   1.883   5.270   1.378
 4775SOL    MW419421   1.951   5.218   1.399
 4776SOL     OW19422   2.866   4.081   0.958
 4776SOL    HW219423   2.796   4.033   1.003
 4776SOL    HW319424   2.898   4.144   1.022
 4776SOL    MW419425   2.861   4.083   0.972
 4777SOL     OW19426   2.517   4.517   1.578
 4777SOL    HW219427   2.510   4.612   1.566
 4777SOL    HW319428   2.526   4.506   1.673
 4777SOL    MW419429   2.518   4.529   1.588
 4778SOL     OW19430   2.238   5.032   1.836
 4778SOL    HW219431   2.310   5.034   1.773
 4778SOL    HW319432   2.208   4.941   1.835
 4778SOL    MW419433   2.243   5.021   1.828
 4779SOL     OW19434   3.322   3.795   1.303
 4779SOL    HW219435   3.393   3.741   1.267
 4779SOL    HW319436   3.321   3.774   1.396
 4779SOL    MW419437   3.331   3.786   1.311
 4780SOL     OW19438   3.522   5.325   1.787
 4780SOL    HW219439   3.495   5.322   1.878
 4780SOL    HW319440   3.618   5.329   1.790
 4780SOL    MW419441   3.532   5.325   1.799
 4781SOL     OW19442   2.333   4.187   0.771
 4781SOL    HW219443   2.404   4.135   0.734
 4781SOL    HW319444   2.319   4.152   0.858
 4781SOL    MW419445   2.341   4.176   0.778
 4782SOL     OW19446   1.888   5.522   1.843
 4782SOL    HW219447   1.938   5.500   1.765
 4782SOL    HW319448   1.896   5.617   1.851
 4782SOL    MW419449   1.896   5.531   1.834
 4783SOL     OW19450   2.649   5.280   0.847
 4783SOL    HW219451   2.577   5.217   0.860
 4783SOL    HW319452   2.610   5.365   0.865
 4783SOL    MW419453   2.633   5.283   0.850
 4784SOL     OW19454   2.969   4.128   0.495
 4784SOL    HW219455   2.991   4.065   0.427
 4784SOL    HW319456   2.874   4.120   0.506
 4784SOL    MW419457   2.959   4.119   0.487
 4785SOL     OW19458   2.054   3.818   0.427
 4785SOL    HW219459   2.125   3.839   0.366
 4785SOL    HW319460   2.008   3.746   0.385
 4785SOL    MW419461   2.058   3.812   0.413
 4786SOL     OW19462   1.885   4.285   1.570
 4786SOL    HW219463   1.949   4.351   1.545
 4786SOL    HW319464   1.804   4.312   1.527
 4786SOL    MW419465   1.883   4.297   1.562
 4787SOL     OW19466   3.623   5.192   0.527
 4787SOL    HW219467   3.593   5.125   0.588
 4787SOL    HW319468   3.717   5.198   0.541
 4787SOL    MW419469   3.631   5.184   0.537
 4788SOL     OW19470   3.179   4.869   0.457
 4788SOL    HW219471   3.151   4.955   0.490
 4788SOL    HW319472   3.207   4.885   0.367
 4788SOL    MW419473   3.179   4.883   0.449
 4789SOL     OW19474   2.841   3.789   0.510
 4789SOL    HW219475   2.878   3.848   0.575
 4789SOL    HW319476   2.818   3.845   0.436
 4789SOL    MW419477   2.842   3.804   0.509
 4790SOL     OW19478   3.694   4.671   0.932
 4790SOL    HW219479   3.685   4.703   0.843
 4790SOL    HW319480   3.647   4.587   0.932
 4790SOL    MW419481   3.687   4.664   0.922
 4791SOL     OW19482   2.070   4.511   1.511
 4791SOL    HW219483   2.091   4.580   1.449
 4791SOL    HW319484   2.150   4.458   1.516
 4791SOL    MW419485   2.083   4.512   1.505
 4792SOL     OW19486   3.606   4.602   0.633
 4792SOL    HW219487   3.700   4.591   0.621
 4792SOL    HW319488   3.582   4.674   0.574
 4792SOL    MW419489   3.616   4.610   0.624
 4793SOL     OW19490   2.055   4.526   1.778
 4793SOL    HW219491   1.981   4.470   1.804
 4793SOL    HW319492   2.050   4.529   1.683
 4793SOL    MW419493   2.044   4.519   1.768
 4794SOL     OW19494   2.221   3.813   1.228
 4794SOL    HW219495   2.264   3.897   1.248
 4794SOL    HW319496   2.294   3.751   1.221
 4794SOL    MW419497   2.236   3.816   1.229
 4795SOL     OW19498   2.262   4.480   0.406
 4795SOL    HW219499   2.262   4.575   0.391
 4795SOL    HW319500   2.339   4.464   0.460
 4795SOL    MW419501   2.272   4.491   0.411
 4796SOL     OW19502   3.038   4.339   1.470
 4796SOL    HW219503   3.074   4.312   1.386
 4796SOL    HW319504   2.951   4.373   1.449
 4796SOL    MW419505   3.032   4.340   1.457
 4797SOL     OW19506   2.021   4.211   0.695
 4797SOL    HW219507   2.083   4.218   0.768
 4797SOL    HW319508   2.021   4.118   0.672
 4797SOL    MW419509   2.029   4.200   0.702
 4798SOL     OW19510   3.568   5.551   0.227
 4798SOL    HW219511   3.635   5.584   0.167
 4798SOL    HW319512   3.525   5.630   0.261
 4798SOL    MW419513   3.570   5.566   0.223
 4799SOL     OW19514   2.703   4.472   1.179
 4799SOL    HW219515   2.661   4.390   1.155
 4799SOL    HW319516   2.704   4.471   1.275
 4799SOL    MW419517   2.696   4.461   1.188
 4800SOL     OW19518   3.374   5.605   1.578
 4800SOL    HW219519   3.377   5.511   1.561
 4800SOL    HW319520   3.397   5.613   1.670
 4800SOL    MW419521   3.377   5.593   1.588
 4801SOL     OW19522   2.507   3.942   1.284
 4801SOL    HW219523   2.438   4.005   1.305
 4801SOL    HW319524   2.534   3.906   1.369
 4801SOL    MW419525   2.501   3.945   1.297
 4802SOL     OW19526   1.890   4.783   0.153
 4802SOL    HW219527   1.859   4.848   0.216
 4802SOL    HW319528   1.839   4.705   0.172
 4802SOL    MW419529   1.880   4.780   0.163
 4803SOL     OW19530   3.302   3.795   0.901
 4803SOL    HW219531   3.390   3.804   0.938
 4803SOL    HW319532   3.312   3.736   0.827
 4803SOL    MW419533   3.316   3.789   0.895
 4804SOL     OW19534   3.334   4.534   0.745
 4804SOL    HW219535   3.414   4.549   0.694
 4804SOL    HW319536   3.327   4.439   0.751
 4804SOL    MW419537   3.343   4.523   0.740
 4805SOL     OW19538   2.474   5.583   0.095
 4805SOL    HW219539   2.379   5.583   0.087
 4805SOL    HW319540   2.490   5.529   0.173
 4805SOL    MW419541   2.464   5.577   0.104
 4806SOL     OW19542   2.784   4.460   1.442
 4806SOL    HW219543   2.853   4.527   1.439
 4806SOL    HW319544   2.717   4.498   1.498
 4806SOL    MW419545   2.785   4.473   1.449
 4807SOL     OW19546   2.202   4.760   1.690
 4807SOL    HW219547   2.156   4.676   1.692
 4807SOL    HW319548   2.259   4.754   1.614
 4807SOL    MW419549   2.204   4.748   1.682
 4808SOL     OW19550   3.319   4.403   0.011
 4808SOL    HW219551   3.247   4.379  -0.047
 4808SOL    HW319552   3.385   4.440  -0.047
 4808SOL    MW419553   3.318   4.405  -0.004
 4809SOL     OW19554   2.453   5.135   0.691
 4809SOL    HW219555   2.518   5.068   0.712
 4809SOL    HW319556   2.505   5.212   0.668
 4809SOL    MW419557   2.468   5.137   0.690
 4810SOL     OW19558   2.714   4.300   0.821
 4810SOL    HW219559   2.654   4.318   0.893
 4810SOL    HW319560   2.748   4.212   0.840
 4810SOL    MW419561   2.710   4.290   0.834
 4811SOL     OW19562   3.655   3.799   1.490
 4811SOL    HW219563   3.576   3.845   1.518
 4811SOL    HW319564   3.690   3.853   1.419
 4811SOL    MW419565   3.649   3.812   1.484
 4812SOL     OW19566   2.939   4.883   0.840
 4812SOL    HW219567   3.031   4.864   0.858
 4812SOL    HW319568   2.912   4.813   0.780
 4812SOL    MW419569   2.947   4.871   0.834
 4813SOL     OW19570   2.732   4.703   0.195
 4813SOL    HW219571   2.718   4.615   0.160
 4813SOL    HW319572   2.683   4.760   0.136
 4813SOL    MW419573   2.724   4.698   0.183
 4814SOL     OW19574   3.213   5.121   0.936
 4814SOL    HW219575   3.186   5.205   0.901
 4814SOL    HW319576   3.173   5.116   1.023
 4814SOL    MW419577   3.206   5.130   0.942
 4815SOL     OW19578   3.132   5.069   1.204
 4815SOL    HW219579   3.143   5.036   1.293
 4815SOL    HW319580   3.051   5.028   1.173
 4815SOL    MW419581   3.122   5.061   1.210
 4816SOL     OW19582   2.145   4.427   0.974
 4816SOL    HW219583   2.095   4.426   1.055
 4816SOL    HW319584   2.165   4.519   0.958
 4816SOL    MW419585   2.141   4.439   0.982
 4817SOL     OW19586   3.212   5.191   1.736
 4817SOL    HW219587   3.212   5.285   1.752
 4817SOL    HW319588   3.257   5.181   1.652
 4817SOL    MW419589   3.218   5.201   1.727
 4818SOL     OW19590   3.451   3.909   0.297
 4818SOL    HW219591   3.444   3.913   0.392
 4818SOL    HW319592   3.463   4.000   0.270
 4818SOL    MW419593   3.452   3.922   0.305
 4819SOL     OW19594   2.740   4.472   0.411
 4819SOL    HW219595   2.720   4.458   0.318
 4819SOL    HW319596   2.833   4.451   0.418
 4819SOL    MW419597   2.750   4.467   0.400
 4820SOL     OW19598   2.067   4.095   1.715
 4820SOL    HW219599   2.024   4.154   1.652
 4820SOL    HW319600   2.135   4.150   1.755
 4820SOL    MW419601   2.071   4.110   1.712
 4821SOL     OW19602   3.179   4.715   1.260
 4821SOL    HW219603   3.242   4.712   1.333
 4821SOL    HW319604   3.095   4.733   1.302
 4821SOL    MW419605   3.175   4.717   1.275
 4822SOL     OW19606   2.723   5.430   0.449
 4822SOL    HW219607   2.781   5.501   0.476
 4822SOL    HW319608   2.746   5.358   0.507
 4822SOL    MW419609   2.734   5.430   0.460
 4823SOL     OW19610   3.518   3.892   1.039
 4823SOL    HW219611   3.563   3.810   1.058
 4823SOL    HW319612   3.538   3.948   1.115
 4823SOL    MW419613   3.528   3.888   1.051
 4824SOL     OW19614   1.966   3.735   1.138
 4824SOL    HW219615   1.957   3.736   1.043
 4824SOL    HW319616   2.060   3.747   1.153
 4824SOL    MW419617   1.978   3.738   1.129
 4825SOL     OW19618   3.603   4.928   0.758
 4825SOL    HW219619   3.582   4.874   0.681
 4825SOL    HW319620   3.699   4.926   0.762
 4825SOL    MW419621   3.612   4.921   0.747
 4826SOL     OW19622   2.295   5.073   1.501
 4826SOL    HW219623   2.216   5.023   1.524
 4826SOL    HW319624   2.365   5.032   1.551
 4826SOL    MW419625   2.293   5.061   1.511
 4827SOL     OW19626   2.179   3.862   0.184
 4827SOL    HW219627   2.108   3.917   0.152
 4827SOL    HW319628   2.221   3.828   0.105
 4827SOL    MW419629   2.175   3.864   0.170
 4828SOL     OW19630   3.303   4.359   1.020
 4828SOL    HW219631   3.226   4.405   0.986
 4828SOL    HW319632   3.360   4.428   1.054
 4828SOL    MW419633   3.300   4.374   1.020
 4829SOL     OW19634   1.935   3.961   0.033
 4829SOL    HW219635   1.902   4.040   0.077
 4829SOL    HW319636   1.990   3.994  -0.038
 4829SOL    MW419637   1.938   3.975   0.030
 4830SOL     OW19638   1.969   5.218   0.222
 4830SOL    HW219639   1.986   5.302   0.264
 4830SOL    HW319640   2.004   5.227   0.134
 4830SOL    MW419641   1.974   5.231   0.216
 4831SOL     OW19642   3.241   5.307   0.439
 4831SOL    HW219643   3.304   5.297   0.368
 4831SOL    HW319644   3.158   5.327   0.394
 4831SOL    MW419645   3.238   5.308   0.424
 4832SOL     OW19646   3.604   4.575   2.125
 4832SOL    HW219647   3.645   4.517   2.190
 4832SOL    HW319648   3.511   4.567   2.142
 4832SOL    MW419649   3.598   4.567   2.135
 4833SOL     OW19650   3.470   4.507   3.120
 4833SOL    HW219651   3.425   4.574   3.171
 4833SOL    HW319652   3.558   4.543   3.106
 4833SOL    MW419653   3.476   4.520   3.124
 4834SOL     OW19654   2.893   5.346   3.497
 4834SOL    HW219655   2.934   5.382   3.418
 4834SOL    HW319656   2.928   5.257   3.504
 4834SOL    MW419657   2.904   5.339   3.488
 4835SOL     OW19658   3.450   4.901   3.101
 4835SOL    HW219659   3.371   4.866   3.059
 4835SOL    HW319660   3.477   4.973   3.045
 4835SOL    MW419661   3.443   4.906   3.088
 4836SOL     OW19662   2.682   4.214   2.367
 4836SOL    HW219663   2.657   4.302   2.395
 4836SOL    HW319664   2.679   4.217   2.271
 4836SOL    MW419665   2.678   4.226   2.359
 4837SOL     OW19666   2.124   4.242   2.295
 4837SOL    HW219667   2.156   4.330   2.277
 4837SOL    HW319668   2.112   4.240   2.390
 4837SOL    MW419669   2.127   4.254   2.307
 4838SOL     OW19670   2.202   4.655   3.196
 4838SOL    HW219671   2.265   4.602   3.147
 4838SOL    HW319672   2.183   4.729   3.139
 4838SOL    MW419673   2.208   4.657   3.183
 4839SOL     OW19674   2.523   3.997   2.382
 4839SOL    HW219675   2.581   4.073   2.384
 4839SOL    HW319676   2.458   4.018   2.315
 4839SOL    MW419677   2.522   4.009   2.373
 4840SOL     OW19678   2.610   4.924   2.557
 4840SOL    HW219679   2.690   4.927   2.609
 4840SOL    HW319680   2.638   4.891   2.471
 4840SOL    MW419681   2.624   4.920   2.552
 4841SOL     OW19682   2.635   5.265   3.460
 4841SOL    HW219683   2.719   5.291   3.499
 4841SOL    HW319684   2.659   5.209   3.386
 4841SOL    MW419685   2.649   5.261   3.455
 4842SOL     OW19686   2.387   4.428   2.548
 4842SOL    HW219687   2.372   4.348   2.599
 4842SOL    HW319688   2.469   4.463   2.582
 4842SOL    MW419689   2.395   4.420   2.560
 4843SOL     OW19690   2.724   5.114   3.233
 4843SOL    HW219691   2.688   5.180   3.173
 4843SOL    HW319692   2.652   5.052   3.246
 4843SOL    MW419693   2.710   5.114   3.227
 4844SOL     OW19694   2.529   4.254   2.925
 4844SOL    HW219695   2.435   4.250   2.943
 4844SOL    HW319696   2.559   4.163   2.934
 4844SOL    MW419697   2.520   4.242   2.928
 4845SOL     OW19698   2.275   4.668   2.829
 4845SOL    HW219699   2.230   4.675   2.745
 4845SOL    HW319700   2.255   4.751   2.873
 4845SOL    MW419701   2.267   4.680   2.823
 4846SOL     OW19702   1.972   5.514   2.704
 4846SOL    HW219703   2.061   5.506   2.739
 4846SOL    HW319704   1.936   5.426   2.709
 4846SOL    MW419705   1.979   5.501   2.709
 4847SOL     OW19706   3.237   4.906   2.073
 4847SOL    HW219707   3.155   4.942   2.039
 4847SOL    HW319708   3.305   4.949   2.022
 4847SOL    MW419709   3.235   4.916   2.061
 4848SOL     OW19710   2.236   5.041   2.739
 4848SOL    HW219711   2.212   5.094   2.815
 4848SOL    HW319712   2.292   5.099   2.687
 4848SOL    MW419713   2.240   5.056   2.742
 4849SOL     OW19714   2.798   4.685   2.549
 4849SOL    HW219715   2.712   4.672   2.589
 4849SOL    HW319716   2.851   4.612   2.581
 4849SOL    MW419717   2.794   4.674   2.558
 4850SOL     OW19718   2.206   5.337   3.334
 4850SOL    HW219719   2.114   5.313   3.319
 4850SOL    HW319720   2.250   5.254   3.351
 4850SOL    MW419721   2.200   5.322   3.333
 4851SOL     OW19722   2.789   5.047   2.266
 4851SOL    HW219723   2.766   5.109   2.334
 4851SOL    HW319724   2.746   4.965   2.292
 4851SOL    MW419725   2.781   5.043   2.277
 4852SOL     OW19726   3.662   4.048   2.722
 4852SOL    HW219727   3.599   4.028   2.791
 4852SOL    HW319728   3.652   3.977   2.659
 4852SOL    MW419729   3.652   4.035   2.723
 4853SOL     OW19730   2.286   4.020   2.234
 4853SOL    HW219731   2.260   3.982   2.150
 4853SOL    HW319732   2.223   4.090   2.250
 4853SOL    MW419733   2.275   4.023   2.225
 4854SOL     OW19734   2.121   4.981   2.271
 4854SOL    HW219735   2.069   5.049   2.227
 4854SOL    HW319736   2.118   4.907   2.211
 4854SOL    MW419737   2.113   4.980   2.258
 4855SOL     OW19738   2.783   5.444   2.049
 4855SOL    HW219739   2.738   5.460   2.132
 4855SOL    HW319740   2.714   5.409   1.991
 4855SOL    MW419741   2.769   5.441   2.051
 4856SOL     OW19742   3.718   4.217   2.024
 4856SOL    HW219743   3.627   4.219   2.052
 4856SOL    HW319744   3.763   4.279   2.082
 4856SOL    MW419745   3.711   4.225   2.034
 4857SOL     OW19746   3.463   4.820   2.374
 4857SOL    HW219747   3.373   4.820   2.409
 4857SOL    HW319748   3.456   4.866   2.291
 4857SOL    MW419749   3.450   4.826   2.368
 4858SOL     OW19750   3.263   4.455   3.446
 4858SOL    HW219751   3.332   4.393   3.423
 4858SOL    HW319752   3.188   4.429   3.393
 4858SOL    MW419753   3.263   4.442   3.437
 4859SOL     OW19754   2.004   5.335   2.998
 4859SOL    HW219755   1.987   5.281   3.075
 4859SOL    HW319756   1.992   5.425   3.028
 4859SOL    MW419757   2.001   5.339   3.012
 4860SOL     OW19758   2.999   4.842   3.438
 4860SOL    HW219759   2.984   4.935   3.423
 4860SOL    HW319760   3.094   4.832   3.438
 4860SOL    MW419761   3.008   4.852   3.435
 4861SOL     OW19762   2.795   4.266   3.639
 4861SOL    HW219763   2.885   4.267   3.606
 4861SOL    HW319764   2.754   4.191   3.597
 4861SOL    MW419765   2.801   4.256   3.630
 4862SOL     OW19766   3.370   4.798   2.766
 4862SOL    HW219767   3.373   4.732   2.697
 4862SOL    HW319768   3.455   4.841   2.762
 4862SOL    MW419769   3.382   4.794   2.757
 4863SOL     OW19770   2.990   4.401   2.335
 4863SOL    HW219771   3.016   4.425   2.246
 4863SOL    HW319772   2.972   4.308   2.331
 4863SOL    MW419773   2.992   4.393   2.322
 4864SOL     OW19774   3.655   5.021   2.186
 4864SOL    HW219775   3.611   5.062   2.261
 4864SOL    HW319776   3.712   5.089   2.151
 4864SOL    MW419777   3.657   5.035   2.191
 4865SOL     OW19778   2.575   4.070   3.589
 4865SOL    HW219779   2.585   3.996   3.529
 4865SOL    HW319780   2.611   4.039   3.672
 4865SOL    MW419781   2.581   4.056   3.591
 4866SOL     OW19782   2.311   5.437   2.504
 4866SOL    HW219783   2.343   5.525   2.482
 4866SOL    HW319784   2.264   5.409   2.426
 4866SOL    MW419785   2.310   5.445   2.491
 4867SOL     OW19786   3.695   3.799   2.553
 4867SOL    HW219787   3.749   3.750   2.615
 4867SOL    HW319788   3.638   3.733   2.514
 4867SOL    MW419789   3.695   3.783   2.555
 4868SOL     OW19790   2.027   5.497   2.081
 4868SOL    HW219791   2.056   5.587   2.073
 4868SOL    HW319792   1.977   5.480   2.002
 4868SOL    MW419793   2.025   5.505   2.070
 4869SOL     OW19794   2.814   3.752   2.966
 4869SOL    HW219795   2.773   3.830   2.928
 4869SOL    HW319796   2.908   3.770   2.961
 4869SOL    MW419797   2.820   3.764   2.961
 4870SOL     OW19798   3.431   5.305   2.052
 4870SOL    HW219799   3.479   5.374   2.098
 4870SOL    HW319800   3.352   5.349   2.021
 4870SOL    MW419801   3.426   5.319   2.055
 4871SOL     OW19802   2.829   4.430   1.996
 4871SOL    HW219803   2.831   4.377   1.917
 4871SOL    HW319804   2.917   4.467   2.002
 4871SOL    MW419805   2.841   4.429   1.985
 4872SOL     OW19806   3.443   4.356   2.332
 4872SOL    HW219807   3.482   4.356   2.419
 4872SOL    HW319808   3.384   4.432   2.332
 4872SOL    MW419809   3.440   4.367   2.343
 4873SOL     OW19810   2.760   4.723   3.461
 4873SOL    HW219811   2.737   4.703   3.551
 4873SOL    HW319812   2.845   4.767   3.466
 4873SOL    MW419813   2.767   4.726   3.473
 4874SOL     OW19814   2.840   3.860   3.221
 4874SOL    HW219815   2.846   3.822   3.134
 4874SOL    HW319816   2.829   3.954   3.206
 4874SOL    MW419817   2.841   3.868   3.209
 4875SOL     OW19818   2.929   4.349   3.055
 4875SOL    HW219819   3.004   4.378   3.002
 4875SOL    HW319820   2.861   4.414   3.039
 4875SOL    MW419821   2.930   4.361   3.045
 4876SOL     OW19822   3.479   4.317   3.332
 4876SOL    HW219823   3.460   4.226   3.311
 4876SOL    HW319824   3.457   4.366   3.253
 4876SOL    MW419825   3.474   4.310   3.319
 4877SOL     OW19826   3.621   5.411   3.236
 4877SOL    HW219827   3.549   5.373   3.287
 4877SOL    HW319828   3.638   5.496   3.277
 4877SOL    MW419829   3.615   5.416   3.248
 4878SOL     OW19830   2.926   4.055   3.438
 4878SOL    HW219831   2.892   4.094   3.357
 4878SOL    HW319832   2.904   3.963   3.431
 4878SOL    MW419833   2.919   4.048   3.428
 4879SOL     OW19834   3.335   4.869   3.514
 4879SOL    HW219835   3.417   4.910   3.544
 4879SOL    HW319836   3.298   4.831   3.594
 4879SOL    MW419837   3.341   4.870   3.529
 4880SOL     OW19838   3.630   4.242   2.498
 4880SOL    HW219839   3.719   4.211   2.515
 4880SOL    HW319840   3.573   4.182   2.546
 4880SOL    MW419841   3.633   4.230   2.507
 4881SOL     OW19842   2.056   3.956   2.527
 4881SOL    HW219843   2.047   3.896   2.453
 4881SOL    HW319844   1.989   3.927   2.590
 4881SOL    MW419845   2.046   3.943   2.525
 4882SOL     OW19846   2.999   5.049   2.088
 4882SOL    HW219847   2.949   5.051   2.170
 4882SOL    HW319848   2.933   5.067   2.020
 4882SOL    MW419849   2.985   5.051   2.090
 4883SOL     OW19850   2.003   4.129   2.890
 4883SOL    HW219851   1.975   4.220   2.899
 4883SOL    HW319852   1.940   4.090   2.829
 4883SOL    MW419853   1.990   4.135   2.884
 4884SOL     OW19854   2.462   5.467   2.196
 4884SOL    HW219855   2.383   5.425   2.229
 4884SOL    HW319856   2.528   5.450   2.263
 4884SOL    MW419857   2.461   5.459   2.209
 4885SOL     OW19858   3.590   4.987   3.593
 4885SOL    HW219859   3.640   4.913   3.625
 4885SOL    HW319860   3.536   5.014   3.668
 4885SOL    MW419861   3.590   4.981   3.606
 4886SOL     OW19862   2.598   4.882   1.903
 4886SOL    HW219863   2.520   4.828   1.890
 4886SOL    HW319864   2.569   4.955   1.956
 4886SOL    MW419865   2.584   4.884   1.908
 4887SOL     OW19866   3.724   4.622   3.095
 4887SOL    HW219867   3.740   4.660   3.008
 4887SOL    HW319868   3.758   4.688   3.156
 4887SOL    MW419869   3.731   4.635   3.091
 4888SOL     OW19870   3.179   5.398   1.971
 4888SOL    HW219871   3.105   5.361   2.021
 4888SOL    HW319872   3.187   5.488   2.004
 4888SOL    MW419873   3.170   5.405   1.983
 4889SOL     OW19874   1.987   4.404   3.060
 4889SOL    HW219875   2.049   4.434   3.126
 4889SOL    HW319876   1.921   4.473   3.054
 4889SOL    MW419877   1.986   4.417   3.067
 4890SOL     OW19878   3.403   5.072   1.913
 4890SOL    HW219879   3.350   5.121   1.849
 4890SOL    HW319880   3.434   5.138   1.974
 4890SOL    MW419881   3.401   5.086   1.911
 4891SOL     OW19882   2.628   3.961   1.968
 4891SOL    HW219883   2.576   3.881   1.956
 4891SOL    HW319884   2.715   3.938   1.936
 4891SOL    MW419885   2.631   3.947   1.962
 4892SOL     OW19886   2.082   5.513   3.512
 4892SOL    HW219887   2.056   5.581   3.450
 4892SOL    HW319888   2.130   5.450   3.460
 4892SOL    MW419889   2.084   5.513   3.498
 4893SOL     OW19890   2.134   4.832   3.019
 4893SOL    HW219891   2.187   4.907   3.044
 4893SOL    HW319892   2.053   4.870   2.985
 4893SOL    MW419893   2.130   4.847   3.019
 4894SOL     OW19894   2.674   4.736   3.007
 4894SOL    HW219895   2.702   4.645   3.019
 4894SOL    HW319896   2.603   4.730   2.943
 4894SOL    MW419897   2.667   4.724   3.002
 4895SOL     OW19898   1.989   4.601   2.425
 4895SOL    HW219899   2.080   4.616   2.452
 4895SOL    HW319900   1.992   4.522   2.371
 4895SOL    MW419901   2.001   4.593   2.423
 4896SOL     OW19902   2.225   4.309   3.679
 4896SOL    HW219903   2.172   4.389   3.686
 4896SOL    HW319904   2.295   4.321   3.744
 4896SOL    MW419905   2.227   4.322   3.687
 4897SOL     OW19906   2.611   3.859   3.386
 4897SOL    HW219907   2.588   3.767   3.388
 4897SOL    HW319908   2.697   3.861   3.343
 4897SOL    MW419909   2.618   3.849   3.382
 4898SOL     OW19910   2.295   4.383   3.425
 4898SOL    HW219911   2.375   4.433   3.411
 4898SOL    HW319912   2.286   4.377   3.520
 4898SOL    MW419913   2.304   4.389   3.435
 4899SOL     OW19914   2.616   5.533   2.799
 4899SOL    HW219915   2.705   5.548   2.829
 4899SOL    HW319916   2.611   5.580   2.715
 4899SOL    MW419917   2.626   5.541   2.792
 4900SOL     OW19918   3.272   3.908   3.696
 4900SOL    HW219919   3.328   3.835   3.722
 4900SOL    HW319920   3.242   3.946   3.778
 4900SOL    MW419921   3.276   3.903   3.709
 4901SOL     OW19922   1.997   5.213   2.464
 4901SOL    HW219923   1.969   5.252   2.546
 4901SOL    HW319924   2.017   5.122   2.486
 4901SOL    MW419925   1.995   5.205   2.477
 4902SOL     OW19926   2.830   5.256   2.499
 4902SOL    HW219927   2.913   5.210   2.483
 4902SOL    HW319928   2.820   5.255   2.595
 4902SOL    MW419929   2.840   5.249   2.509
 4903SOL     OW19930   3.662   4.401   2.813
 4903SOL    HW219931   3.751   4.431   2.795
 4903SOL    HW319932   3.642   4.341   2.742
 4903SOL    MW419933   3.671   4.398   2.802
 4904SOL     OW19934   3.513   4.580   3.693
 4904SOL    HW219935   3.568   4.504   3.674
 4904SOL    HW319936   3.515   4.588   3.788
 4904SOL    MW419937   3.521   4.571   3.701
 4905SOL     OW19938   2.563   5.313   1.904
 4905SOL    HW219939   2.503   5.382   1.874
 4905SOL    HW319940   2.508   5.255   1.957
 4905SOL    MW419941   2.547   5.315   1.906
 4906SOL     OW19942   3.001   3.958   2.127
 4906SOL    HW219943   2.934   3.934   2.064
 4906SOL    HW319944   3.066   4.007   2.076
 4906SOL    MW419945   3.001   3.960   2.112
 4907SOL     OW19946   2.808   4.142   3.212
 4907SOL    HW219947   2.727   4.183   3.240
 4907SOL    HW319948   2.855   4.210   3.164
 4907SOL    MW419949   2.803   4.157   3.210
 4908SOL     OW19950   3.068   4.480   2.835
 4908SOL    HW219951   3.081   4.574   2.845
 4908SOL    HW319952   3.029   4.470   2.749
 4908SOL    MW419953   3.064   4.491   2.825
 4909SOL     OW19954   2.520   4.675   2.639
 4909SOL    HW219955   2.431   4.666   2.672
 4909SOL    HW319956   2.524   4.765   2.607
 4909SOL    MW419957   2.509   4.686   2.639
 4910SOL     OW19958   3.319   4.258   2.634
 4910SOL    HW219959   3.264   4.179   2.633
 4910SOL    HW319960   3.301   4.299   2.718
 4910SOL    MW419961   3.309   4.253   2.643
 4911SOL     OW19962   2.290   3.945   3.451
 4911SOL    HW219963   2.211   3.963   3.503
 4911SOL    HW319964   2.285   4.007   3.378
 4911SOL    MW419965   2.280   3.955   3.448
 4912SOL     OW19966   2.938   4.462   2.591
 4912SOL    HW219967   2.875   4.394   2.615
 4912SOL    HW319968   2.958   4.443   2.499
 4912SOL    MW419969   2.932   4.449   2.583
 4913SOL     OW19970   2.194   5.357   2.293
 4913SOL    HW219971   2.155   5.404   2.219
 4913SOL    HW319972   2.128   5.292   2.318
 4913SOL    MW419973   2.181   5.355   2.287
 4914SOL     OW19974   2.686   4.766   2.317
 4914SOL    HW219975   2.688   4.740   2.224
 4914SOL    HW319976   2.744   4.703   2.360
 4914SOL    MW419977   2.694   4.755   2.311
 4915SOL     OW19978   3.239   5.326   3.089
 4915SOL    HW219979   3.164   5.372   3.127
 4915SOL    HW319980   3.221   5.233   3.106
 4915SOL    MW419981   3.228   5.320   3.097
 4916SOL     OW19982   3.196   4.010   2.650
 4916SOL    HW219983   3.224   3.942   2.711
 4916SOL    HW319984   3.110   3.981   2.620
 4916SOL    MW419985   3.189   3.997   2.654
 4917SOL     OW19986   2.001   4.944   2.584
 4917SOL    HW219987   2.065   4.976   2.647
 4917SOL    HW319988   2.050   4.880   2.532
 4917SOL    MW419989   2.016   4.940   2.585
 4918SOL     OW19990   2.501   5.020   3.566
 4918SOL    HW219991   2.549   5.103   3.553
 4918SOL    HW319992   2.558   4.968   3.622
 4918SOL    MW419993   2.515   5.024   3.572
 4919SOL     OW19994   2.077   5.262   3.706
 4919SOL    HW219995   2.133   5.186   3.721
 4919SOL    HW319996   2.026   5.240   3.628
 4919SOL    MW419997   2.077   5.249   3.697
 4920SOL     OW19998   3.176   4.114   1.985
 4920SOL    HW219999   3.149   4.180   1.921
 4920SOL    HW320000   3.246   4.157   2.035
 4920SOL    MW420001   3.181   4.127   1.982
 4921SOL     OW20002   2.844   3.819   1.922
 4921SOL    HW220003   2.900   3.811   1.844
 4921SOL    HW320004   2.821   3.729   1.944
 4921SOL    MW420005   2.849   3.806   1.915
 4922SOL     OW20006   3.349   4.670   2.127
 4922SOL    HW220007   3.316   4.759   2.117
 4922SOL    HW320008   3.314   4.641   2.212
 4922SOL    MW420009   3.339   4.679   2.138
 4923SOL     OW20010   2.962   5.099   3.315
 4923SOL    HW220011   2.873   5.105   3.283
 4923SOL    HW320012   3.006   5.178   3.283
 4923SOL    MW420013   2.957   5.109   3.307
 4924SOL     OW20014   2.255   3.767   3.657
 4924SOL    HW220015   2.183   3.732   3.605
 4924SOL    HW320016   2.313   3.808   3.592
 4924SOL    MW420017   2.253   3.768   3.642
 4925SOL     OW20018   2.279   5.257   2.956
 4925SOL    HW220019   2.324   5.319   3.013
 4925SOL    HW320020   2.186   5.276   2.969
 4925SOL    MW420021   2.272   5.267   2.963
 4926SOL     OW20022   2.701   5.325   3.064
 4926SOL    HW220023   2.725   5.314   2.973
 4926SOL    HW320024   2.624   5.382   3.062
 4926SOL    MW420025   2.693   5.330   3.053
 4927SOL     OW20026   2.343   4.708   1.919
 4927SOL    HW220027   2.266   4.721   1.975
 4927SOL    HW320028   2.307   4.672   1.838
 4927SOL    MW420029   2.329   4.704   1.916
 4928SOL     OW20030   2.996   4.681   2.162
 4928SOL    HW220031   2.906   4.702   2.137
 4928SOL    HW320032   3.023   4.754   2.218
 4928SOL    MW420033   2.988   4.693   2.165
 4929SOL     OW20034   2.496   5.030   2.854
 4929SOL    HW220035   2.489   5.009   2.948
 4929SOL    HW320036   2.414   4.998   2.817
 4929SOL    MW420037   2.484   5.024   2.861
 4930SOL     OW20038   3.360   4.040   3.256
 4930SOL    HW220039   3.307   4.042   3.336
 4930SOL    HW320040   3.345   3.953   3.219
 4930SOL    MW420041   3.352   4.030   3.261
 4931SOL     OW20042   3.696   3.964   3.129
 4931SOL    HW220043   3.677   4.031   3.064
 4931SOL    HW320044   3.753   3.902   3.084
 4931SOL    MW420045   3.700   3.965   3.115
 4932SOL     OW20046   1.942   5.122   3.517
 4932SOL    HW220047   1.986   5.055   3.463
 4932SOL    HW320048   1.857   5.084   3.537
 4932SOL    MW420049   1.937   5.108   3.513
 4933SOL     OW20050   2.625   3.797   2.569
 4933SOL    HW220051   2.554   3.858   2.551
 4933SOL    HW320052   2.676   3.794   2.488
 4933SOL    MW420053   2.621   3.803   2.556
 4934SOL     OW20054   2.383   5.037   2.318
 4934SOL    HW220055   2.376   5.069   2.408
 4934SOL    HW320056   2.293   5.021   2.290
 4934SOL    MW420057   2.371   5.039   2.325
 4935SOL     OW20058   2.978   5.430   3.227
 4935SOL    HW220059   2.898   5.415   3.177
 4935SOL    HW320060   2.985   5.525   3.234
 4935SOL    MW420061   2.969   5.441   3.221
 4936SOL     OW20062   3.092   5.395   2.717
 4936SOL    HW220063   3.139   5.468   2.676
 4936SOL    HW320064   3.013   5.434   2.753
 4936SOL    MW420065   3.087   5.410   2.716
 4937SOL     OW20066   3.500   5.490   2.992
 4937SOL    HW220067   3.543   5.460   3.072
 4937SOL    HW320068   3.419   5.438   2.989
 4937SOL    MW420069   3.495   5.479   3.002
 4938SOL     OW20070   2.585   4.454   3.699
 4938SOL    HW220071   2.655   4.396   3.671
 4938SOL    HW320072   2.528   4.399   3.754
 4938SOL    MW420073   2.587   4.441   3.703
 4939SOL     OW20074   3.372   4.666   3.332
 4939SOL    HW220075   3.377   4.719   3.412
 4939SOL    HW320076   3.334   4.583   3.360
 4939SOL    MW420077   3.368   4.661   3.347
 4940SOL     OW20078   3.012   3.801   3.578
 4940SOL    HW220079   3.007   3.708   3.559
 4940SOL    HW320080   3.095   3.812   3.624
 4940SOL    MW420081   3.020   3.790   3.582
 4941SOL     OW20082   2.386   4.321   2.032
 4941SOL    HW220083   2.352   4.377   2.102
 4941SOL    HW320084   2.457   4.271   2.072
 4941SOL    MW420085   2.392   4.322   2.046
 4942SOL     OW20086   3.482   5.072   2.854
 4942SOL    HW220087   3.517   5.054   2.767
 4942SOL    HW320088   3.387   5.073   2.841
 4942SOL    MW420089   3.474   5.069   2.841
 4943SOL     OW20090   2.911   4.720   3.223
 4943SOL    HW220091   2.954   4.755   3.301
 4943SOL    HW320092   2.894   4.797   3.169
 4943SOL    MW420093   2.914   4.735   3.226
 4944SOL     OW20094   3.442   4.207   2.096
 4944SOL    HW220095   3.434   4.278   2.033
 4944SOL    HW320096   3.460   4.251   2.179
 4944SOL    MW420097   3.443   4.221   2.098
 4945SOL     OW20098   2.302   3.862   2.525
 4945SOL    HW220099   2.352   3.905   2.456
 4945SOL    HW320100   2.217   3.906   2.525
 4945SOL    MW420101   2.299   3.875   2.516
 4946SOL     OW20102   2.061   4.924   3.385
 4946SOL    HW220103   2.089   4.877   3.463
 4946SOL    HW320104   1.982   4.879   3.356
 4946SOL    MW420105   2.054   4.913   3.391
 4947SOL     OW20106   2.569   4.251   3.352
 4947SOL    HW220107   2.541   4.339   3.376
 4947SOL    HW320108   2.538   4.195   3.423
 4947SOL    MW420109   2.561   4.254   3.364
 4948SOL     OW20110   3.111   4.469   2.071
 4948SOL    HW220111   3.158   4.487   1.990
 4948SOL    HW320112   3.077   4.553   2.099
 4948SOL    MW420113   3.113   4.483   2.064
 4949SOL     OW20114   2.224   4.647   2.565
 4949SOL    HW220115   2.282   4.703   2.513
 4949SOL    HW320116   2.268   4.562   2.567
 4949SOL    MW420117   2.237   4.644   2.558
 4950SOL     OW20118   3.364   3.999   2.402
 4950SOL    HW220119   3.286   3.949   2.427
 4950SOL    HW320120   3.335   4.090   2.402
 4950SOL    MW420121   3.350   4.003   2.405
 4951SOL     OW20122   2.950   3.961   2.561
 4951SOL    HW220123   2.970   4.036   2.505
 4951SOL    HW320124   2.930   4.000   2.646
 4951SOL    MW420125   2.951   3.977   2.565
 4952SOL     OW20126   2.846   5.211   1.893
 4952SOL    HW220127   2.873   5.289   1.845
 4952SOL    HW320128   2.753   5.226   1.912
 4952SOL    MW420129   2.837   5.224   1.889
 4953SOL     OW20130   3.710   4.734   3.580
 4953SOL    HW220131   3.623   4.714   3.616
 4953SOL    HW320132   3.764   4.660   3.605
 4953SOL    MW420133   3.705   4.723   3.588
 4954SOL     OW20134   1.931   5.247   2.737
 4954SOL    HW220135   1.963   5.251   2.828
 4954SOL    HW320136   1.836   5.255   2.745
 4954SOL    MW420137   1.923   5.250   2.750
 4955SOL     OW20138   1.886   4.373   2.284
 4955SOL    HW220139   1.826   4.345   2.354
 4955SOL    HW320140   1.960   4.313   2.290
 4955SOL    MW420141   1.888   4.362   2.293
 4956SOL     OW20142   3.054   5.104   2.444
 4956SOL    HW220143   3.077   5.055   2.522
 4956SOL    HW320144   3.135   5.146   2.416
 4956SOL    MW420145   3.067   5.104   2.451
 4957SOL     OW20146   2.312   4.112   3.173
 4957SOL    HW220147   2.345   4.193   3.213
 4957SOL    HW320148   2.285   4.138   3.085
 4957SOL    MW420149   2.311   4.126   3.167
 4958SOL     OW20150   2.266   4.079   2.909
 4958SOL    HW220151   2.296   3.993   2.880
 4958SOL    HW320152   2.171   4.072   2.912
 4958SOL    MW420153   2.258   4.068   2.907
 4959SOL     OW20154   3.095   4.288   3.600
 4959SOL    HW220155   3.147   4.223   3.553
 4959SOL    HW320156   3.053   4.339   3.530
 4959SOL    MW420157   3.096   4.285   3.583
 4960SOL     OW20158   3.194   4.083   3.461
 4960SOL    HW220159   3.101   4.067   3.448
 4960SOL    HW320160   3.220   4.021   3.529
 4960SOL    MW420161   3.184   4.073   3.468
 4961SOL     OW20162   2.409   3.857   2.800
 4961SOL    HW220163   2.419   3.766   2.826
 4961SOL    HW320164   2.365   3.853   2.715
 4961SOL    MW420165   2.405   3.845   2.792
 4962SOL     OW20166   2.503   5.472   3.346
 4962SOL    HW220167   2.420   5.457   3.391
 4962SOL    HW320168   2.562   5.405   3.381
 4962SOL    MW420169   2.501   5.462   3.356
 4963SOL     OW20170   3.560   4.179   2.971
 4963SOL    HW220171   3.493   4.212   3.031
 4963SOL    HW320172   3.603   4.257   2.937
 4963SOL    MW420173   3.558   4.194   2.975
 4964SOL     OW20174   3.738   4.899   2.941
 4964SOL    HW220175   3.731   4.839   2.866
 4964SOL    HW320176   3.664   4.959   2.930
 4964SOL    MW420177   3.728   4.899   2.930
 4965SOL     OW20178   3.120   4.761   2.859
 4965SOL    HW220179   3.134   4.733   2.950
 4965SOL    HW320180   3.206   4.792   2.831
 4965SOL    MW420181   3.133   4.762   2.868
 4966SOL     OW20182   3.203   4.256   3.138
 4966SOL    HW220183   3.224   4.257   3.045
 4966SOL    HW320184   3.248   4.178   3.171
 4966SOL    MW420185   3.210   4.246   3.130
 4967SOL     OW20186   3.696   4.387   3.680
 4967SOL    HW220187   3.733   4.332   3.749
 4967SOL    HW320188   3.721   4.344   3.598
 4967SOL    MW420189   3.703   4.375   3.679
 4968SOL     OW20190   3.243   4.685   3.731
 4968SOL    HW220191   3.309   4.633   3.685
 4968SOL    HW320192   3.263   4.672   3.824
 4968SOL    MW420193   3.254   4.676   3.738
 4969SOL     OW20194   3.194   3.771   2.080
 4969SOL    HW220195   3.268   3.815   2.123
 4969SOL    HW320196   3.118   3.825   2.102
 4969SOL    MW420197   3.194   3.783   2.088
 4970SOL     OW20198   3.254   4.546   2.358
 4970SOL    HW220199   3.169   4.516   2.328
 4970SOL    HW320200   3.246   4.553   2.453
 4970SOL    MW420201   3.242   4.544   2.367
 4971SOL     OW20202   2.330   5.009   3.089
 4971SOL    HW220203   2.342   5.036   3.180
 4971SOL    HW320204   2.311   5.090   3.042
 4971SOL    MW420205   2.329   5.024   3.094
 4972SOL     OW20206   2.614   3.989   2.912
 4972SOL    HW220207   2.587   3.991   3.003
 4972SOL    HW320208   2.544   3.941   2.867
 4972SOL    MW420209   2.602   3.985   2.919
 4973SOL     OW20210   2.468   5.481   3.074
 4973SOL    HW220211   2.520   5.558   3.051
 4973SOL    HW320212   2.477   5.473   3.169
 4973SOL    MW420213   2.477   5.488   3.085
 4974SOL     OW20214   3.370   5.066   3.306
 4974SOL    HW220215   3.355   4.995   3.369
 4974SOL    HW320216   3.416   5.024   3.234
 4974SOL    MW420217   3.376   5.050   3.306
 4975SOL     OW20218   2.444   4.797   3.423
 4975SOL    HW220219   2.481   4.802   3.335
 4975SOL    HW320220   2.483   4.870   3.470
 4975SOL    MW420221   2.454   4.807   3.418
 4976SOL     OW20222   2.624   4.840   3.235
 4976SOL    HW220223   2.683   4.786   3.288
 4976SOL    HW320224   2.639   4.812   3.145
 4976SOL    MW420225   2.634   4.829   3.231
 4977SOL     OW20226   2.627   4.212   2.084
 4977SOL    HW220227   2.700   4.261   2.047
 4977SOL    HW320228   2.643   4.121   2.058
 4977SOL    MW420229   2.639   4.207   2.077
 4978SOL     OW20230   3.095   3.808   2.998
 4978SOL    HW220231   3.150   3.817   2.920
 4978SOL    HW320232   3.150   3.842   3.069
 4978SOL    MW420233   3.109   3.813   2.997
 4979SOL     OW20234   2.102   4.721   2.182
 4979SOL    HW220235   2.039   4.737   2.111
 4979SOL    HW320236   2.049   4.684   2.253
 4979SOL    MW420237   2.087   4.718   2.182
 4980SOL     OW20238   2.458   5.075   2.041
 4980SOL    HW220239   2.473   5.051   2.133
 4980SOL    HW320240   2.366   5.053   2.025
 4980SOL    MW420241   2.448   5.068   2.051
 4981SOL     OW20242   2.997   5.306   2.193
 4981SOL    HW220243   3.005   5.224   2.144
 4981SOL    HW320244   2.916   5.345   2.160
 4981SOL    MW420245   2.987   5.301   2.183
 4982SOL     OW20246   2.256   5.464   2.762
 4982SOL    HW220247   2.260   5.375   2.797
 4982SOL    HW320248   2.282   5.455   2.671
 4982SOL    MW420249   2.259   5.452   2.754
 4983SOL     OW20250   2.873   4.942   3.005
 4983SOL    HW220251   2.805   4.876   3.021
 4983SOL    HW320252   2.891   4.936   2.912
 4983SOL    MW420253   2.866   4.933   2.996
 4984SOL     OW20254   1.962   5.217   3.256
 4984SOL    HW220255   1.952   5.175   3.342
 4984SOL    HW320256   1.883   5.270   3.246
 4984SOL    MW420257   1.951   5.218   3.267
 4985SOL     OW20258   2.866   4.081   2.826
 4985SOL    HW220259   2.796   4.033   2.871
 4985SOL    HW320260   2.898   4.144   2.890
 4985SOL    MW420261   2.861   4.083   2.840
 4986SOL     OW20262   2.517   4.517   3.446
 4986SOL    HW220263   2.510   4.612   3.434
 4986SOL    HW320264   2.526   4.506   3.541
 4986SOL    MW420265   2.518   4.529   3.456
 4987SOL     OW20266   2.238   5.032   3.704
 4987SOL    HW220267   2.310   5.034   3.641
 4987SOL    HW320268   2.208   4.941   3.703
 4987SOL    MW420269   2.243   5.021   3.696
 4988SOL     OW20270   3.322   3.795   3.171
 4988SOL    HW220271   3.393   3.741   3.135
 4988SOL    HW320272   3.321   3.774   3.264
 4988SOL    MW420273   3.331   3.786   3.179
 4989SOL     OW20274   2.333   4.187   2.639
 4989SOL    HW220275   2.404   4.135   2.602
 4989SOL    HW320276   2.319   4.152   2.726
 4989SOL    MW420277   2.341   4.176   2.646
 4990SOL     OW20278   1.888   5.522   3.711
 4990SOL    HW220279   1.938   5.500   3.633
 4990SOL    HW320280   1.896   5.617   3.719
 4990SOL    MW420281   1.896   5.531   3.702
 4991SOL     OW20282   2.649   5.280   2.715
 4991SOL    HW220283   2.577   5.217   2.728
 4991SOL    HW320284   2.610   5.365   2.733
 4991SOL    MW420285   2.633   5.283   2.718
 4992SOL     OW20286   2.969   4.128   2.363
 4992SOL    HW220287   2.991   4.065   2.295
 4992SOL    HW320288   2.874   4.120   2.374
 4992SOL    MW420289   2.959   4.119   2.355
 4993SOL     OW20290   2.054   3.818   2.295
 4993SOL    HW220291   2.125   3.839   2.234
 4993SOL    HW320292   2.008   3.746   2.253
 4993SOL    MW420293   2.058   3.812   2.281
 4994SOL     OW20294   1.885   4.285   3.438
 4994SOL    HW220295   1.949   4.351   3.413
 4994SOL    HW320296   1.804   4.312   3.395
 4994SOL    MW420297   1.883   4.297   3.430
 4995SOL     OW20298   3.623   5.192   2.395
 4995SOL    HW220299   3.593   5.125   2.456
 4995SOL    HW320300   3.717   5.198   2.409
 4995SOL    MW420301   3.631   5.184   2.405
 4996SOL     OW20302   3.179   4.869   2.325
 4996SOL    HW220303   3.151   4.955   2.358
 4996SOL    HW320304   3.207   4.885   2.235
 4996SOL    MW420305   3.179   4.883   2.317
 4997SOL     OW20306   2.841   3.789   2.378
 4997SOL    HW220307   2.878   3.848   2.443
 4997SOL    HW320308   2.818   3.845   2.304
 4997SOL    MW420309   2.842   3.804   2.377
 4998SOL     OW20310   3.694   4.671   2.800
 4998SOL    HW220311   3.685   4.703   2.711
 4998SOL    HW320312   3.647   4.587   2.800
 4998SOL    MW420313   3.687   4.664   2.790
 4999SOL     OW20314   2.070   4.511   3.379
 4999SOL    HW220315   2.091   4.580   3.317
 4999SOL    HW320316   2.150   4.458   3.384
 4999SOL    MW420317   2.083   4.512   3.373
 5000SOL     OW20318   3.606   4.602   2.501
 5000SOL    HW220319   3.700   4.591   2.489
 5000SOL    HW320320   3.582   4.674   2.442
 5000SOL    MW420321   3.616   4.610   2.492
 5001SOL     OW20322   2.055   4.526   3.646
 5001SOL    HW220323   1.981   4.470   3.672
 5001SOL    HW320324   2.050   4.529   3.551
 5001SOL    MW420325   2.044   4.519   3.636
 5002SOL     OW20326   2.221   3.813   3.096
 5002SOL    HW220327   2.264   3.897   3.116
 5002SOL    HW320328   2.294   3.751   3.089
 5002SOL    MW420329   2.236   3.816   3.097
 5003SOL     OW20330   2.262   4.480   2.274
 5003SOL    HW220331   2.262   4.575   2.259
 5003SOL    HW320332   2.339   4.464   2.328
 5003SOL    MW420333   2.272   4.491   2.279
 5004SOL     OW20334   3.038   4.339   3.338
 5004SOL    HW220335   3.074   4.312   3.254
 5004SOL    HW320336   2.951   4.373   3.317
 5004SOL    MW420337   3.032   4.340   3.325
 5005SOL     OW20338   2.021   4.211   2.563
 5005SOL    HW220339   2.083   4.218   2.636
 5005SOL    HW320340   2.021   4.118   2.540
 5005SOL    MW420341   2.029   4.200   2.570
 5006SOL     OW20342   3.568   5.551   2.095
 5006SOL    HW220343   3.635   5.584   2.035
 5006SOL    HW320344   3.525   5.630   2.129
 5006SOL    MW420345   3.570   5.566   2.091
 5007SOL     OW20346   2.703   4.472   3.047
 5007SOL    HW220347   2.661   4.390   3.023
 5007SOL    HW320348   2.704   4.471   3.143
 5007SOL    MW420349   2.696   4.461   3.056
 5008SOL     OW20350   2.507   3.942   3.152
 5008SOL    HW220351   2.438   4.005   3.173
 5008SOL    HW320352   2.534   3.906   3.237
 5008SOL    MW420353   2.501   3.945   3.165
 5009SOL     OW20354   1.890   4.783   2.021
 5009SOL    HW220355   1.859   4.848   2.084
 5009SOL    HW320356   1.839   4.705   2.040
 5009SOL    MW420357   1.880   4.780   2.031
 5010SOL     OW20358   3.302   3.795   2.769
 5010SOL    HW220359   3.390   3.804   2.806
 5010SOL    HW320360   3.312   3.736   2.695
 5010SOL    MW420361   3.316   3.789   2.763
 5011SOL     OW20362   3.334   4.534   2.613
 5011SOL    HW220363   3.414   4.549   2.562
 5011SOL    HW320364   3.327   4.439   2.619
 5011SOL    MW420365   3.343   4.523   2.608
 5012SOL     OW20366   2.474   5.583   1.963
 5012SOL    HW220367   2.379   5.583   1.955
 5012SOL    HW320368   2.490   5.529   2.041
 5012SOL    MW420369   2.464   5.577   1.972
 5013SOL     OW20370   2.784   4.460   3.310
 5013SOL    HW220371   2.853   4.527   3.307
 5013SOL    HW320372   2.717   4.498   3.366
 5013SOL    MW420373   2.785   4.473   3.317
 5014SOL     OW20374   2.202   4.760   3.558
 5014SOL    HW220375   2.156   4.676   3.560
 5014SOL    HW320376   2.259   4.754   3.482
 5014SOL    MW420377   2.204   4.748   3.550
 5015SOL     OW20378   3.319   4.403   1.879
 5015SOL    HW220379   3.247   4.379   1.821
 5015SOL    HW320380   3.385   4.440   1.821
 5015SOL    MW420381   3.318   4.405   1.864
 5016SOL     OW20382   2.453   5.135   2.559
 5016SOL    HW220383   2.518   5.068   2.580
 5016SOL    HW320384   2.505   5.212   2.536
 5016SOL    MW420385   2.468   5.137   2.558
 5017SOL     OW20386   2.714   4.300   2.689
 5017SOL    HW220387   2.654   4.318   2.761
 5017SOL    HW320388   2.748   4.212   2.708
 5017SOL    MW420389   2.710   4.290   2.702
 5018SOL     OW20390   3.655   3.799   3.358
 5018SOL    HW220391   3.576   3.845   3.386
 5018SOL    HW320392   3.690   3.853   3.287
 5018SOL    MW420393   3.649   3.812   3.352
 5019SOL     OW20394   2.939   4.883   2.708
 5019SOL    HW220395   3.031   4.864   2.726
 5019SOL    HW320396   2.912   4.813   2.648
 5019SOL    MW420397   2.947   4.871   2.702
 5020SOL     OW20398   2.732   4.703   2.063
 5020SOL    HW220399   2.718   4.615   2.028
 5020SOL    HW320400   2.683   4.760   2.004
 5020SOL    MW420401   2.724   4.698   2.051
 5021SOL     OW20402   3.213   5.121   2.804
 5021SOL    HW220403   3.186   5.205   2.769
 5021SOL    HW320404   3.173   5.116   2.891
 5021SOL    MW420405   3.206   5.130   2.810
 5022SOL     OW20406   3.132   5.069   3.072
 5022SOL    HW220407   3.143   5.036   3.161
 5022SOL    HW320408   3.051   5.028   3.041
 5022SOL    MW420409   3.122   5.061   3.078
 5023SOL     OW20410   2.145   4.427   2.842
 5023SOL    HW220411   2.095   4.426   2.923
 5023SOL    HW320412   2.165   4.519   2.826
 5023SOL    MW420413   2.141   4.439   2.850
 5024SOL     OW20414   3.212   5.191   3.604
 5024SOL    HW220415   3.212   5.285   3.620
 5024SOL    HW320416   3.257   5.181   3.520
 5024SOL    MW420417   3.218   5.201   3.595
 5025SOL     OW20418   3.451   3.909   2.165
 5025SOL    HW220419   3.444   3.913   2.260
 5025SOL    HW320420   3.463   4.000   2.138
 5025SOL    MW420421   3.452   3.922   2.173
 5026SOL     OW20422   2.740   4.472   2.279
 5026SOL    HW220423   2.720   4.458   2.186
 5026SOL    HW320424   2.833   4.451   2.286
 5026SOL    MW420425   2.750   4.467   2.268
 5027SOL     OW20426   2.067   4.095   3.583
 5027SOL    HW220427   2.024   4.154   3.520
 5027SOL    HW320428   2.135   4.150   3.623
 5027SOL    MW420429   2.071   4.110   3.580
 5028SOL     OW20430   3.179   4.715   3.128
 5028SOL    HW220431   3.242   4.712   3.201
 5028SOL    HW320432   3.095   4.733   3.170
 5028SOL    MW420433   3.175   4.717   3.143
 5029SOL     OW20434   2.723   5.430   2.317
 5029SOL    HW220435   2.781   5.501   2.344
 5029SOL    HW320436   2.746   5.358   2.375
 5029SOL    MW420437   2.734   5.430   2.328
 5030SOL     OW20438   3.518   3.892   2.907
 5030SOL    HW220439   3.563   3.810   2.926
 5030SOL    HW320440   3.538   3.948   2.983
 5030SOL    MW420441   3.528   3.888   2.919
 5031SOL     OW20442   1.966   3.735   3.006
 5031SOL    HW220443   1.957   3.736   2.911
 5031SOL    HW320444   2.060   3.747   3.021
 5031SOL    MW420445   1.978   3.738   2.997
 5032SOL     OW20446   3.603   4.928   2.626
 5032SOL    HW220447   3.582   4.874   2.549
 5032SOL    HW320448   3.699   4.926   2.630
 5032SOL    MW420449   3.612   4.921   2.615
 5033SOL     OW20450   2.295   5.073   3.369
 5033SOL    HW220451   2.216   5.023   3.392
 5033SOL    HW320452   2.365   5.032   3.419
 5033SOL    MW420453   2.293   5.061   3.379
 5034SOL     OW20454   2.179   3.862   2.052
 5034SOL    HW220455   2.108   3.917   2.020
 5034SOL    HW320456   2.221   3.828   1.973
 5034SOL    MW420457   2.175   3.864   2.038
 5035SOL     OW20458   3.303   4.359   2.888
 5035SOL    HW220459   3.226   4.405   2.854
 5035SOL    HW320460   3.360   4.428   2.922
 5035SOL    MW420461   3.300   4.374   2.888
 5036SOL     OW20462   1.935   3.961   1.901
 5036SOL    HW220463   1.902   4.040   1.945
 5036SOL    HW320464   1.990   3.994   1.830
 5036SOL    MW420465   1.938   3.975   1.898
 5037SOL     OW20466   1.969   5.218   2.090
 5037SOL    HW220467   1.986   5.302   2.132
 5037SOL    HW320468   2.004   5.227   2.002
 5037SOL    MW420469   1.974   5.231   2.084
 5038SOL     OW20470   3.241   5.307   2.307
 5038SOL    HW220471   3.304   5.297   2.236
 5038SOL    HW320472   3.158   5.327   2.262
 5038SOL    MW420473   3.238   5.308   2.292
 5039SOL     OW20474   3.604   4.575   3.993
 5039SOL    HW220475   3.645   4.517   4.058
 5039SOL    HW320476   3.511   4.567   4.010
 5039SOL    MW420477   3.598   4.567   4.003
 5040SOL     OW20478   3.470   4.507   4.988
 5040SOL    HW220479   3.425   4.574   5.039
 5040SOL    HW320480   3.558   4.543   4.974
 5040SOL    MW420481   3.476   4.520   4.992
 5041SOL     OW20482   2.398   4.758   4.222
 5041SOL    HW220483   2.488   4.733   4.206
 5041SOL    HW320484   2.394   4.851   4.199
 5041SOL    MW420485   2.410   4.767   4.217
 5042SOL     OW20486   3.514   5.461   4.364
 5042SOL    HW220487   3.526   5.407   4.442
 5042SOL    HW320488   3.551   5.409   4.293
 5042SOL    MW420489   3.520   5.446   4.365
 5043SOL     OW20490   2.893   5.346   5.365
 5043SOL    HW220491   2.934   5.382   5.286
 5043SOL    HW320492   2.928   5.257   5.372
 5043SOL    MW420493   2.904   5.339   5.356
 5044SOL     OW20494   3.450   4.901   4.969
 5044SOL    HW220495   3.371   4.866   4.927
 5044SOL    HW320496   3.477   4.973   4.913
 5044SOL    MW420497   3.443   4.906   4.956
 5045SOL     OW20498   2.682   4.214   4.235
 5045SOL    HW220499   2.657   4.302   4.263
 5045SOL    HW320500   2.679   4.217   4.139
 5045SOL    MW420501   2.678   4.226   4.227
 5046SOL     OW20502   2.124   4.242   4.163
 5046SOL    HW220503   2.156   4.330   4.145
 5046SOL    HW320504   2.112   4.240   4.258
 5046SOL    MW420505   2.127   4.254   4.175
 5047SOL     OW20506   2.202   4.655   5.064
 5047SOL    HW220507   2.265   4.602   5.015
 5047SOL    HW320508   2.183   4.729   5.007
 5047SOL    MW420509   2.208   4.657   5.051
 5048SOL     OW20510   2.523   3.997   4.250
 5048SOL    HW220511   2.581   4.073   4.252
 5048SOL    HW320512   2.458   4.018   4.183
 5048SOL    MW420513   2.522   4.009   4.241
 5049SOL     OW20514   2.610   4.924   4.425
 5049SOL    HW220515   2.690   4.927   4.477
 5049SOL    HW320516   2.638   4.891   4.339
 5049SOL    MW420517   2.624   4.920   4.420
 5050SOL     OW20518   2.635   5.265   5.328
 5050SOL    HW220519   2.719   5.291   5.367
 5050SOL    HW320520   2.659   5.209   5.254
 5050SOL    MW420521   2.649   5.261   5.323
 5051SOL     OW20522   2.387   4.428   4.416
 5051SOL    HW220523   2.372   4.348   4.467
 5051SOL    HW320524   2.469   4.463   4.450
 5051SOL    MW420525   2.395   4.420   4.428
 5052SOL     OW20526   2.724   5.114   5.101
 5052SOL    HW220527   2.688   5.180   5.041
 5052SOL    HW320528   2.652   5.052   5.114
 5052SOL    MW420529   2.710   5.114   5.095
 5053SOL     OW20530   2.529   4.254   4.793
 5053SOL    HW220531   2.435   4.250   4.811
 5053SOL    HW320532   2.559   4.163   4.802
 5053SOL    MW420533   2.520   4.242   4.796
 5054SOL     OW20534   2.275   4.668   4.697
 5054SOL    HW220535   2.230   4.675   4.613
 5054SOL    HW320536   2.255   4.751   4.741
 5054SOL    MW420537   2.267   4.680   4.691
 5055SOL     OW20538   1.972   5.514   4.572
 5055SOL    HW220539   2.061   5.506   4.607
 5055SOL    HW320540   1.936   5.426   4.577
 5055SOL    MW420541   1.979   5.501   4.577
 5056SOL     OW20542   3.237   4.906   3.941
 5056SOL    HW220543   3.155   4.942   3.907
 5056SOL    HW320544   3.305   4.949   3.890
 5056SOL    MW420545   3.235   4.916   3.929
 5057SOL     OW20546   2.236   5.041   4.607
 5057SOL    HW220547   2.212   5.094   4.683
 5057SOL    HW320548   2.292   5.099   4.555
 5057SOL    MW420549   2.240   5.056   4.610
 5058SOL     OW20550   2.798   4.685   4.417
 5058SOL    HW220551   2.712   4.672   4.457
 5058SOL    HW320552   2.851   4.612   4.449
 5058SOL    MW420553   2.794   4.674   4.426
 5059SOL     OW20554   2.206   5.337   5.202
 5059SOL    HW220555   2.114   5.313   5.187
 5059SOL    HW320556   2.250   5.254   5.219
 5059SOL    MW420557   2.200   5.322   5.201
 5060SOL     OW20558   2.789   5.047   4.134
 5060SOL    HW220559   2.766   5.109   4.202
 5060SOL    HW320560   2.746   4.965   4.160
 5060SOL    MW420561   2.781   5.043   4.145
 5061SOL     OW20562   3.662   4.048   4.590
 5061SOL    HW220563   3.599   4.028   4.659
 5061SOL    HW320564   3.652   3.977   4.527
 5061SOL    MW420565   3.652   4.035   4.591
 5062SOL     OW20566   2.286   4.020   4.102
 5062SOL    HW220567   2.260   3.982   4.018
 5062SOL    HW320568   2.223   4.090   4.118
 5062SOL    MW420569   2.275   4.023   4.093
 5063SOL     OW20570   2.121   4.981   4.139
 5063SOL    HW220571   2.069   5.049   4.095
 5063SOL    HW320572   2.118   4.907   4.079
 5063SOL    MW420573   2.113   4.980   4.126
 5064SOL     OW20574   2.783   5.444   3.917
 5064SOL    HW220575   2.738   5.460   4.000
 5064SOL    HW320576   2.714   5.409   3.859
 5064SOL    MW420577   2.769   5.441   3.919
 5065SOL     OW20578   3.718   4.217   3.892
 5065SOL    HW220579   3.627   4.219   3.920
 5065SOL    HW320580   3.763   4.279   3.950
 5065SOL    MW420581   3.711   4.225   3.902
 5066SOL     OW20582   3.463   4.820   4.242
 5066SOL    HW220583   3.373   4.820   4.277
 5066SOL    HW320584   3.456   4.866   4.159
 5066SOL    MW420585   3.450   4.826   4.236
 5067SOL     OW20586   3.263   4.455   5.314
 5067SOL    HW220587   3.332   4.393   5.291
 5067SOL    HW320588   3.188   4.429   5.261
 5067SOL    MW420589   3.263   4.442   5.305
 5068SOL     OW20590   2.004   5.335   4.866
 5068SOL    HW220591   1.987   5.281   4.943
 5068SOL    HW320592   1.992   5.425   4.896
 5068SOL    MW420593   2.001   5.339   4.880
 5069SOL     OW20594   2.999   4.842   5.306
 5069SOL    HW220595   2.984   4.935   5.291
 5069SOL    HW320596   3.094   4.832   5.306
 5069SOL    MW420597   3.008   4.852   5.303
 5070SOL     OW20598   2.795   4.266   5.507
 5070SOL    HW220599   2.885   4.267   5.474
 5070SOL    HW320600   2.754   4.191   5.465
 5070SOL    MW420601   2.801   4.256   5.498
 5071SOL     OW20602   3.370   4.798   4.634
 5071SOL    HW220603   3.373   4.732   4.565
 5071SOL    HW320604   3.455   4.841   4.630
 5071SOL    MW420605   3.382   4.794   4.625
 5072SOL     OW20606   2.990   4.401   4.203
 5072SOL    HW220607   3.016   4.425   4.114
 5072SOL    HW320608   2.972   4.308   4.199
 5072SOL    MW420609   2.992   4.393   4.190
 5073SOL     OW20610   2.575   4.070   5.457
 5073SOL    HW220611   2.585   3.996   5.397
 5073SOL    HW320612   2.611   4.039   5.540
 5073SOL    MW420613   2.581   4.056   5.459
 5074SOL     OW20614   2.311   5.437   4.372
 5074SOL    HW220615   2.343   5.525   4.350
 5074SOL    HW320616   2.264   5.409   4.294
 5074SOL    MW420617   2.310   5.445   4.359
 5075SOL     OW20618   3.695   3.799   4.421
 5075SOL    HW220619   3.749   3.750   4.483
 5075SOL    HW320620   3.638   3.733   4.382
 5075SOL    MW420621   3.695   3.783   4.423
 5076SOL     OW20622   2.027   5.497   3.949
 5076SOL    HW220623   2.056   5.587   3.941
 5076SOL    HW320624   1.977   5.480   3.870
 5076SOL    MW420625   2.025   5.505   3.938
 5077SOL     OW20626   2.814   3.752   4.834
 5077SOL    HW220627   2.773   3.830   4.796
 5077SOL    HW320628   2.908   3.770   4.829
 5077SOL    MW420629   2.820   3.764   4.829
 5078SOL     OW20630   2.829   4.430   3.864
 5078SOL    HW220631   2.831   4.377   3.785
 5078SOL    HW320632   2.917   4.467   3.870
 5078SOL    MW420633   2.841   4.429   3.853
 5079SOL     OW20634   3.443   4.356   4.200
 5079SOL    HW220635   3.482   4.356   4.287
 5079SOL    HW320636   3.384   4.432   4.200
 5079SOL    MW420637   3.440   4.367   4.211
 5080SOL     OW20638   2.760   4.723   5.329
 5080SOL    HW220639   2.737   4.703   5.419
 5080SOL    HW320640   2.845   4.767   5.334
 5080SOL    MW420641   2.767   4.726   5.341
 5081SOL     OW20642   2.840   3.860   5.089
 5081SOL    HW220643   2.846   3.822   5.002
 5081SOL    HW320644   2.829   3.954   5.074
 5081SOL    MW420645   2.841   3.868   5.077
 5082SOL     OW20646   2.929   4.349   4.923
 5082SOL    HW220647   3.004   4.378   4.870
 5082SOL    HW320648   2.861   4.414   4.907
 5082SOL    MW420649   2.930   4.361   4.913
 5083SOL     OW20650   3.479   4.317   5.200
 5083SOL    HW220651   3.460   4.226   5.179
 5083SOL    HW320652   3.457   4.366   5.121
 5083SOL    MW420653   3.474   4.310   5.187
 5084SOL     OW20654   3.621   5.411   5.104
 5084SOL    HW220655   3.549   5.373   5.155
 5084SOL    HW320656   3.638   5.496   5.145
 5084SOL    MW420657   3.615   5.416   5.116
 5085SOL     OW20658   2.926   4.055   5.306
 5085SOL    HW220659   2.892   4.094   5.225
 5085SOL    HW320660   2.904   3.963   5.299
 5085SOL    MW420661   2.919   4.048   5.296
 5086SOL     OW20662   3.335   4.869   5.382
 5086SOL    HW220663   3.417   4.910   5.412
 5086SOL    HW320664   3.298   4.831   5.462
 5086SOL    MW420665   3.341   4.870   5.397
 5087SOL     OW20666   3.630   4.242   4.366
 5087SOL    HW220667   3.719   4.211   4.383
 5087SOL    HW320668   3.573   4.182   4.414
 5087SOL    MW420669   3.633   4.230   4.375
 5088SOL     OW20670   2.056   3.956   4.395
 5088SOL    HW220671   2.047   3.896   4.321
 5088SOL    HW320672   1.989   3.927   4.458
 5088SOL    MW420673   2.046   3.943   4.393
 5089SOL     OW20674   2.999   5.049   3.956
 5089SOL    HW220675   2.949   5.051   4.038
 5089SOL    HW320676   2.933   5.067   3.888
 5089SOL    MW420677   2.985   5.051   3.958
 5090SOL     OW20678   2.003   4.129   4.758
 5090SOL    HW220679   1.975   4.220   4.767
 5090SOL    HW320680   1.940   4.090   4.697
 5090SOL    MW420681   1.990   4.135   4.752
 5091SOL     OW20682   2.462   5.467   4.064
 5091SOL    HW220683   2.383   5.425   4.097
 5091SOL    HW320684   2.528   5.450   4.131
 5091SOL    MW420685   2.461   5.459   4.077
 5092SOL     OW20686   3.590   4.987   5.461
 5092SOL    HW220687   3.640   4.913   5.493
 5092SOL    HW320688   3.536   5.014   5.536
 5092SOL    MW420689   3.590   4.981   5.474
 5093SOL     OW20690   2.598   4.882   3.771
 5093SOL    HW220691   2.520   4.828   3.758
 5093SOL    HW320692   2.569   4.955   3.824
 5093SOL    MW420693   2.584   4.884   3.776
 5094SOL     OW20694   3.724   4.622   4.963
 5094SOL    HW220695   3.740   4.660   4.876
 5094SOL    HW320696   3.758   4.688   5.024
 5094SOL    MW420697   3.731   4.635   4.959
 5095SOL     OW20698   3.516   5.331   4.632
 5095SOL    HW220699   3.545   5.398   4.693
 5095SOL    HW320700   3.497   5.255   4.687
 5095SOL    MW420701   3.518   5.331   4.647
 5096SOL     OW20702   3.179   5.398   3.839
 5096SOL    HW220703   3.105   5.361   3.889
 5096SOL    HW320704   3.187   5.488   3.872
 5096SOL    MW420705   3.170   5.405   3.851
 5097SOL     OW20706   1.987   4.404   4.928
 5097SOL    HW220707   2.049   4.434   4.994
 5097SOL    HW320708   1.921   4.473   4.922
 5097SOL    MW420709   1.986   4.417   4.935
 5098SOL     OW20710   3.403   5.072   3.781
 5098SOL    HW220711   3.350   5.121   3.717
 5098SOL    HW320712   3.434   5.138   3.842
 5098SOL    MW420713   3.401   5.086   3.779
 5099SOL     OW20714   2.628   3.961   3.836
 5099SOL    HW220715   2.576   3.881   3.824
 5099SOL    HW320716   2.715   3.938   3.804
 5099SOL    MW420717   2.631   3.947   3.830
 5100SOL     OW20718   2.082   5.513   5.380
 5100SOL    HW220719   2.056   5.581   5.318
 5100SOL    HW320720   2.130   5.450   5.328
 5100SOL    MW420721   2.084   5.513   5.366
 5101SOL     OW20722   2.134   4.832   4.887
 5101SOL    HW220723   2.187   4.907   4.912
 5101SOL    HW320724   2.053   4.870   4.853
 5101SOL    MW420725   2.130   4.847   4.887
 5102SOL     OW20726   2.674   4.736   4.875
 5102SOL    HW220727   2.702   4.645   4.887
 5102SOL    HW320728   2.603   4.730   4.811
 5102SOL    MW420729   2.667   4.724   4.870
 5103SOL     OW20730   1.989   4.601   4.293
 5103SOL    HW220731   2.080   4.616   4.320
 5103SOL    HW320732   1.992   4.522   4.239
 5103SOL    MW420733   2.001   4.593   4.291
 5104SOL     OW20734   2.225   4.309   5.547
 5104SOL    HW220735   2.172   4.389   5.554
 5104SOL    HW320736   2.295   4.321   5.612
 5104SOL    MW420737   2.227   4.322   5.555
 5105SOL     OW20738   2.611   3.859   5.254
 5105SOL    HW220739   2.588   3.767   5.256
 5105SOL    HW320740   2.697   3.861   5.211
 5105SOL    MW420741   2.618   3.849   5.250
 5106SOL     OW20742   2.295   4.383   5.293
 5106SOL    HW220743   2.375   4.433   5.279
 5106SOL    HW320744   2.286   4.377   5.388
 5106SOL    MW420745   2.304   4.389   5.303
 5107SOL     OW20746   2.616   5.533   4.667
 5107SOL    HW220747   2.705   5.548   4.697
 5107SOL    HW320748   2.611   5.580   4.583
 5107SOL    MW420749   2.626   5.541   4.660
 5108SOL     OW20750   3.272   3.908   5.564
 5108SOL    HW220751   3.328   3.835   5.590
 5108SOL    HW320752   3.242   3.946   5.646
 5108SOL    MW420753   3.276   3.903   5.577
 5109SOL     OW20754   1.997   5.213   4.332
 5109SOL    HW220755   1.969   5.252   4.414
 5109SOL    HW320756   2.017   5.122   4.354
 5109SOL    MW420757   1.995   5.205   4.345
 5110SOL     OW20758   2.830   5.256   4.367
 5110SOL    HW220759   2.913   5.210   4.351
 5110SOL    HW320760   2.820   5.255   4.463
 5110SOL    MW420761   2.840   5.249   4.377
 5111SOL     OW20762   3.662   4.401   4.681
 5111SOL    HW220763   3.751   4.431   4.663
 5111SOL    HW320764   3.642   4.341   4.610
 5111SOL    MW420765   3.671   4.398   4.670
 5112SOL     OW20766   3.513   4.580   5.561
 5112SOL    HW220767   3.568   4.504   5.542
 5112SOL    HW320768   3.515   4.588   5.656
 5112SOL    MW420769   3.521   4.571   5.569
 5113SOL     OW20770   2.563   5.313   3.772
 5113SOL    HW220771   2.503   5.382   3.742
 5113SOL    HW320772   2.508   5.255   3.825
 5113SOL    MW420773   2.547   5.315   3.774
 5114SOL     OW20774   3.001   3.958   3.995
 5114SOL    HW220775   2.934   3.934   3.932
 5114SOL    HW320776   3.066   4.007   3.944
 5114SOL    MW420777   3.001   3.960   3.980
 5115SOL     OW20778   2.808   4.142   5.080
 5115SOL    HW220779   2.727   4.183   5.108
 5115SOL    HW320780   2.855   4.210   5.032
 5115SOL    MW420781   2.803   4.157   5.078
 5116SOL     OW20782   3.068   4.480   4.703
 5116SOL    HW220783   3.081   4.574   4.713
 5116SOL    HW320784   3.029   4.470   4.617
 5116SOL    MW420785   3.064   4.491   4.693
 5117SOL     OW20786   2.520   4.675   4.507
 5117SOL    HW220787   2.431   4.666   4.540
 5117SOL    HW320788   2.524   4.765   4.475
 5117SOL    MW420789   2.509   4.686   4.507
 5118SOL     OW20790   3.319   4.258   4.502
 5118SOL    HW220791   3.264   4.179   4.501
 5118SOL    HW320792   3.301   4.299   4.586
 5118SOL    MW420793   3.309   4.253   4.511
 5119SOL     OW20794   2.290   3.945   5.319
 5119SOL    HW220795   2.211   3.963   5.371
 5119SOL    HW320796   2.285   4.007   5.246
 5119SOL    MW420797   2.280   3.955   5.316
 5120SOL     OW20798   2.938   4.462   4.459
 5120SOL    HW220799   2.875   4.394   4.483
 5120SOL    HW320800   2.958   4.443   4.367
 5120SOL    MW420801   2.932   4.449   4.451
 5121SOL     OW20802   2.194   5.357   4.161
 5121SOL    HW220803   2.155   5.404   4.087
 5121SOL    HW320804   2.128   5.292   4.186
 5121SOL    MW420805   2.181   5.355   4.155
 5122SOL     OW20806   2.686   4.766   4.185
 5122SOL    HW220807   2.688   4.740   4.092
 5122SOL    HW320808   2.744   4.703   4.228
 5122SOL    MW420809   2.694   4.755   4.179
 5123SOL     OW20810   3.243   5.534   4.387
 5123SOL    HW220811   3.186   5.487   4.326
 5123SOL    HW320812   3.329   5.495   4.374
 5123SOL    MW420813   3.246   5.525   4.377
 5124SOL     OW20814   3.196   4.010   4.518
 5124SOL    HW220815   3.224   3.942   4.579
 5124SOL    HW320816   3.110   3.981   4.488
 5124SOL    MW420817   3.189   3.997   4.522
 5125SOL     OW20818   2.001   4.944   4.452
 5125SOL    HW220819   2.065   4.976   4.515
 5125SOL    HW320820   2.050   4.880   4.400
 5125SOL    MW420821   2.016   4.940   4.453
 5126SOL     OW20822   2.501   5.020   5.434
 5126SOL    HW220823   2.549   5.103   5.421
 5126SOL    HW320824   2.558   4.968   5.490
 5126SOL    MW420825   2.515   5.024   5.440
 5127SOL     OW20826   2.077   5.262   5.574
 5127SOL    HW220827   2.133   5.186   5.589
 5127SOL    HW320828   2.026   5.240   5.496
 5127SOL    MW420829   2.077   5.249   5.565
 5128SOL     OW20830   3.176   4.114   3.853
 5128SOL    HW220831   3.149   4.180   3.789
 5128SOL    HW320832   3.246   4.157   3.903
 5128SOL    MW420833   3.181   4.127   3.850
 5129SOL     OW20834   2.844   3.819   3.790
 5129SOL    HW220835   2.900   3.811   3.712
 5129SOL    HW320836   2.821   3.729   3.812
 5129SOL    MW420837   2.849   3.806   3.783
 5130SOL     OW20838   3.349   4.670   3.995
 5130SOL    HW220839   3.316   4.759   3.985
 5130SOL    HW320840   3.314   4.641   4.080
 5130SOL    MW420841   3.339   4.679   4.006
 5131SOL     OW20842   2.962   5.099   5.183
 5131SOL    HW220843   2.873   5.105   5.151
 5131SOL    HW320844   3.006   5.178   5.151
 5131SOL    MW420845   2.957   5.109   5.175
 5132SOL     OW20846   2.255   3.767   5.525
 5132SOL    HW220847   2.183   3.732   5.473
 5132SOL    HW320848   2.313   3.808   5.460
 5132SOL    MW420849   2.253   3.768   5.510
 5133SOL     OW20850   2.279   5.257   4.824
 5133SOL    HW220851   2.324   5.319   4.881
 5133SOL    HW320852   2.186   5.276   4.837
 5133SOL    MW420853   2.272   5.267   4.831
 5134SOL     OW20854   3.719   4.786   5.178
 5134SOL    HW220855   3.634   4.799   5.137
 5134SOL    HW320856   3.699   4.750   5.265
 5134SOL    MW420857   3.706   4.782   5.183
 5135SOL     OW20858   2.701   5.325   4.932
 5135SOL    HW220859   2.725   5.314   4.841
 5135SOL    HW320860   2.624   5.382   4.930
 5135SOL    MW420861   2.693   5.330   4.921
 5136SOL     OW20862   2.343   4.708   3.787
 5136SOL    HW220863   2.266   4.721   3.843
 5136SOL    HW320864   2.307   4.672   3.706
 5136SOL    MW420865   2.329   4.704   3.784
 5137SOL     OW20866   2.996   4.681   4.030
 5137SOL    HW220867   2.906   4.702   4.005
 5137SOL    HW320868   3.023   4.754   4.086
 5137SOL    MW420869   2.988   4.693   4.033
 5138SOL     OW20870   2.496   5.030   4.722
 5138SOL    HW220871   2.489   5.009   4.816
 5138SOL    HW320872   2.414   4.998   4.685
 5138SOL    MW420873   2.484   5.024   4.729
 5139SOL     OW20874   3.360   4.040   5.124
 5139SOL    HW220875   3.307   4.042   5.204
 5139SOL    HW320876   3.345   3.953   5.087
 5139SOL    MW420877   3.352   4.030   5.129
 5140SOL     OW20878   3.696   3.964   4.997
 5140SOL    HW220879   3.677   4.031   4.932
 5140SOL    HW320880   3.753   3.902   4.952
 5140SOL    MW420881   3.700   3.965   4.983
 5141SOL     OW20882   1.942   5.122   5.385
 5141SOL    HW220883   1.986   5.055   5.331
 5141SOL    HW320884   1.857   5.084   5.405
 5141SOL    MW420885   1.937   5.108   5.381
 5142SOL     OW20886   2.625   3.797   4.437
 5142SOL    HW220887   2.554   3.858   4.419
 5142SOL    HW320888   2.676   3.794   4.356
 5142SOL    MW420889   2.621   3.803   4.424
 5143SOL     OW20890   2.383   5.037   4.186
 5143SOL    HW220891   2.376   5.069   4.276
 5143SOL    HW320892   2.293   5.021   4.158
 5143SOL    MW420893   2.371   5.039   4.193
 5144SOL     OW20894   2.978   5.430   5.095
 5144SOL    HW220895   2.898   5.415   5.045
 5144SOL    HW320896   2.985   5.525   5.102
 5144SOL    MW420897   2.969   5.441   5.089
 5145SOL     OW20898   3.500   5.490   4.860
 5145SOL    HW220899   3.543   5.460   4.940
 5145SOL    HW320900   3.419   5.438   4.857
 5145SOL    MW420901   3.495   5.479   4.870
 5146SOL     OW20902   2.585   4.454   5.567
 5146SOL    HW220903   2.655   4.396   5.539
 5146SOL    HW320904   2.528   4.399   5.622
 5146SOL    MW420905   2.587   4.441   5.571
 5147SOL     OW20906   3.372   4.666   5.200
 5147SOL    HW220907   3.377   4.719   5.280
 5147SOL    HW320908   3.334   4.583   5.228
 5147SOL    MW420909   3.368   4.661   5.215
 5148SOL     OW20910   3.012   3.801   5.446
 5148SOL    HW220911   3.007   3.708   5.427
 5148SOL    HW320912   3.095   3.812   5.492
 5148SOL    MW420913   3.020   3.790   5.450
 5149SOL     OW20914   2.386   4.321   3.900
 5149SOL    HW220915   2.352   4.377   3.970
 5149SOL    HW320916   2.457   4.271   3.940
 5149SOL    MW420917   2.392   4.322   3.914
 5150SOL     OW20918   3.482   5.072   4.722
 5150SOL    HW220919   3.517   5.054   4.635
 5150SOL    HW320920   3.387   5.073   4.709
 5150SOL    MW420921   3.474   5.069   4.709
 5151SOL     OW20922   2.911   4.720   5.091
 5151SOL    HW220923   2.954   4.755   5.169
 5151SOL    HW320924   2.894   4.797   5.037
 5151SOL    MW420925   2.914   4.735   5.094
 5152SOL     OW20926   3.442   4.207   3.964
 5152SOL    HW220927   3.434   4.278   3.901
 5152SOL    HW320928   3.460   4.251   4.047
 5152SOL    MW420929   3.443   4.221   3.966
 5153SOL     OW20930   2.302   3.862   4.393
 5153SOL    HW220931   2.352   3.905   4.324
 5153SOL    HW320932   2.217   3.906   4.393
 5153SOL    MW420933   2.299   3.875   4.384
 5154SOL     OW20934   2.061   4.924   5.253
 5154SOL    HW220935   2.089   4.877   5.331
 5154SOL    HW320936   1.982   4.879   5.224
 5154SOL    MW420937   2.054   4.913   5.259
 5155SOL     OW20938   2.569   4.251   5.220
 5155SOL    HW220939   2.541   4.339   5.244
 5155SOL    HW320940   2.538   4.195   5.291
 5155SOL    MW420941   2.561   4.254   5.232
 5156SOL     OW20942   3.111   4.469   3.939
 5156SOL    HW220943   3.158   4.487   3.858
 5156SOL    HW320944   3.077   4.553   3.967
 5156SOL    MW420945   3.113   4.483   3.932
 5157SOL     OW20946   2.224   4.647   4.433
 5157SOL    HW220947   2.282   4.703   4.381
 5157SOL    HW320948   2.268   4.562   4.435
 5157SOL    MW420949   2.237   4.644   4.426
 5158SOL     OW20950   3.364   3.999   4.270
 5158SOL    HW220951   3.286   3.949   4.295
 5158SOL    HW320952   3.335   4.090   4.270
 5158SOL    MW420953   3.350   4.003   4.273
 5159SOL     OW20954   2.950   3.961   4.429
 5159SOL    HW220955   2.970   4.036   4.373
 5159SOL    HW320956   2.930   4.000   4.514
 5159SOL    MW420957   2.951   3.977   4.433
 5160SOL     OW20958   2.846   5.211   3.761
 5160SOL    HW220959   2.873   5.289   3.713
 5160SOL    HW320960   2.753   5.226   3.780
 5160SOL    MW420961   2.837   5.224   3.757
 5161SOL     OW20962   3.710   4.734   5.448
 5161SOL    HW220963   3.623   4.714   5.484
 5161SOL    HW320964   3.764   4.660   5.473
 5161SOL    MW420965   3.705   4.723   5.456
 5162SOL     OW20966   1.931   5.247   4.605
 5162SOL    HW220967   1.963   5.251   4.696
 5162SOL    HW320968   1.836   5.255   4.613
 5162SOL    MW420969   1.923   5.250   4.618
 5163SOL     OW20970   1.886   4.373   4.152
 5163SOL    HW220971   1.826   4.345   4.222
 5163SOL    HW320972   1.960   4.313   4.158
 5163SOL    MW420973   1.888   4.362   4.161
 5164SOL     OW20974   3.454   5.585   5.586
 5164SOL    HW220975   3.499   5.509   5.551
 5164SOL    HW320976   3.492   5.598   5.673
 5164SOL    MW420977   3.464   5.578   5.592
 5165SOL     OW20978   3.054   5.104   4.312
 5165SOL    HW220979   3.077   5.055   4.390
 5165SOL    HW320980   3.135   5.146   4.284
 5165SOL    MW420981   3.067   5.104   4.319
 5166SOL     OW20982   2.312   4.112   5.041
 5166SOL    HW220983   2.345   4.193   5.081
 5166SOL    HW320984   2.285   4.138   4.953
 5166SOL    MW420985   2.311   4.126   5.035
 5167SOL     OW20986   2.266   4.079   4.777
 5167SOL    HW220987   2.296   3.993   4.748
 5167SOL    HW320988   2.171   4.072   4.780
 5167SOL    MW420989   2.258   4.068   4.775
 5168SOL     OW20990   3.095   4.288   5.468
 5168SOL    HW220991   3.147   4.223   5.421
 5168SOL    HW320992   3.053   4.339   5.398
 5168SOL    MW420993   3.096   4.285   5.451
 5169SOL     OW20994   3.194   4.083   5.329
 5169SOL    HW220995   3.101   4.067   5.316
 5169SOL    HW320996   3.220   4.021   5.397
 5169SOL    MW420997   3.184   4.073   5.336
 5170SOL     OW20998   2.409   3.857   4.668
 5170SOL    HW220999   2.419   3.766   4.694
 5170SOL    HW321000   2.365   3.853   4.583
 5170SOL    MW421001   2.405   3.845   4.660
 5171SOL     OW21002   2.503   5.472   5.214
 5171SOL    HW221003   2.420   5.457   5.259
 5171SOL    HW321004   2.562   5.405   5.249
 5171SOL    MW421005   2.501   5.462   5.224
 5172SOL     OW21006   3.560   4.179   4.839
 5172SOL    HW221007   3.493   4.212   4.899
 5172SOL    HW321008   3.603   4.257   4.805
 5172SOL    MW421009   3.558   4.194   4.843
 5173SOL     OW21010   3.738   4.899   4.809
 5173SOL    HW221011   3.731   4.839   4.734
 5173SOL    HW321012   3.664   4.959   4.798
 5173SOL    MW421013   3.728   4.899   4.798
 5174SOL     OW21014   3.120   4.761   4.727
 5174SOL    HW221015   3.134   4.733   4.818
 5174SOL    HW321016   3.206   4.792   4.699
 5174SOL    MW421017   3.133   4.762   4.736
 5175SOL     OW21018   3.203   4.256   5.006
 5175SOL    HW221019   3.224   4.257   4.913
 5175SOL    HW321020   3.248   4.178   5.039
 5175SOL    MW421021   3.210   4.246   4.998
 5176SOL     OW21022   3.696   4.387   5.548
 5176SOL    HW221023   3.733   4.332   5.617
 5176SOL    HW321024   3.721   4.344   5.466
 5176SOL    MW421025   3.703   4.375   5.547
 5177SOL     OW21026   3.243   4.685   5.600
 5177SOL    HW221027   3.309   4.633   5.554
 5177SOL    HW321028   3.263   4.672   5.693
 5177SOL    MW421029   3.254   4.676   5.607
 5178SOL     OW21030   3.194   3.771   3.948
 5178SOL    HW221031   3.268   3.815   3.991
 5178SOL    HW321032   3.118   3.825   3.970
 5178SOL    MW421033   3.194   3.783   3.956
 5179SOL     OW21034   3.254   4.546   4.226
 5179SOL    HW221035   3.169   4.516   4.196
 5179SOL    HW321036   3.246   4.553   4.321
 5179SOL    MW421037   3.242   4.544   4.235
 5180SOL     OW21038   2.330   5.009   4.957
 5180SOL    HW221039   2.342   5.036   5.048
 5180SOL    HW321040   2.311   5.090   4.910
 5180SOL    MW421041   2.329   5.024   4.962
 5181SOL     OW21042   2.614   3.989   4.780
 5181SOL    HW221043   2.587   3.991   4.871
 5181SOL    HW321044   2.544   3.941   4.735
 5181SOL    MW421045   2.602   3.985   4.787
 5182SOL     OW21046   2.468   5.481   4.942
 5182SOL    HW221047   2.520   5.558   4.919
 5182SOL    HW321048   2.477   5.473   5.037
 5182SOL    MW421049   2.477   5.488   4.953
 5183SOL     OW21050   3.370   5.066   5.174
 5183SOL    HW221051   3.355   4.995   5.237
 5183SOL    HW321052   3.416   5.024   5.102
 5183SOL    MW421053   3.376   5.050   5.174
 5184SOL     OW21054   2.444   4.797   5.291
 5184SOL    HW221055   2.481   4.802   5.203
 5184SOL    HW321056   2.483   4.870   5.338
 5184SOL    MW421057   2.454   4.807   5.286
 5185SOL     OW21058   2.624   4.840   5.103
 5185SOL    HW221059   2.683   4.786   5.156
 5185SOL    HW321060   2.639   4.812   5.013
 5185SOL    MW421061   2.634   4.829   5.099
 5186SOL     OW21062   2.627   4.212   3.952
 5186SOL    HW221063   2.700   4.261   3.915
 5186SOL    HW321064   2.643   4.121   3.926
 5186SOL    MW421065   2.639   4.207   3.945
 5187SOL     OW21066   3.435   5.329   5.275
 5187SOL    HW221067   3.477   5.314   5.360
 5187SOL    HW321068   3.426   5.242   5.237
 5187SOL    MW421069   3.439   5.317   5.282
 5188SOL     OW21070   3.095   3.808   4.866
 5188SOL    HW221071   3.150   3.817   4.788
 5188SOL    HW321072   3.150   3.842   4.937
 5188SOL    MW421073   3.109   3.813   4.865
 5189SOL     OW21074   2.102   4.721   4.050
 5189SOL    HW221075   2.039   4.737   3.979
 5189SOL    HW321076   2.049   4.684   4.121
 5189SOL    MW421077   2.087   4.718   4.050
 5190SOL     OW21078   2.458   5.075   3.909
 5190SOL    HW221079   2.473   5.051   4.001
 5190SOL    HW321080   2.366   5.053   3.893
 5190SOL    MW421081   2.448   5.068   3.919
 5191SOL     OW21082   2.256   5.464   4.630
 5191SOL    HW221083   2.260   5.375   4.665
 5191SOL    HW321084   2.282   5.455   4.539
 5191SOL    MW421085   2.259   5.452   4.622
 5192SOL     OW21086   2.873   4.942   4.873
 5192SOL    HW221087   2.805   4.876   4.889
 5192SOL    HW321088   2.891   4.936   4.780
 5192SOL    MW421089   2.866   4.933   4.864
 5193SOL     OW21090   1.962   5.217   5.124
 5193SOL    HW221091   1.952   5.175   5.210
 5193SOL    HW321092   1.883   5.270   5.114
 5193SOL    MW421093   1.951   5.218   5.135
 5194SOL     OW21094   2.866   4.081   4.694
 5194SOL    HW221095   2.796   4.033   4.739
 5194SOL    HW321096   2.898   4.144   4.758
 5194SOL    MW421097   2.861   4.083   4.708
 5195SOL     OW21098   2.517   4.517   5.314
 5195SOL    HW221099   2.510   4.612   5.302
 5195SOL    HW321100   2.526   4.506   5.409
 5195SOL    MW421101   2.518   4.529   5.324
 5196SOL     OW21102   2.238   5.032   5.572
 5196SOL    HW221103   2.310   5.034   5.509
 5196SOL    HW321104   2.208   4.941   5.571
 5196SOL    MW421105   2.243   5.021   5.564
 5197SOL     OW21106   3.322   3.795   5.039
 5197SOL    HW221107   3.393   3.741   5.003
 5197SOL    HW321108   3.321   3.774   5.132
 5197SOL    MW421109   3.331   3.786   5.047
 5198SOL     OW21110   3.522   5.325   5.523
 5198SOL    HW221111   3.495   5.322   5.614
 5198SOL    HW321112   3.618   5.329   5.526
 5198SOL    MW421113   3.532   5.325   5.535
 5199SOL     OW21114   2.333   4.187   4.507
 5199SOL    HW221115   2.404   4.135   4.470
 5199SOL    HW321116   2.319   4.152   4.594
 5199SOL    MW421117   2.341   4.176   4.514
 5200SOL     OW21118   1.888   5.522   5.579
 5200SOL    HW221119   1.938   5.500   5.501
 5200SOL    HW321120   1.896   5.617   5.587
 5200SOL    MW421121   1.896   5.531   5.570
 5201SOL     OW21122   2.649   5.280   4.583
 5201SOL    HW221123   2.577   5.217   4.596
 5201SOL    HW321124   2.610   5.365   4.601
 5201SOL    MW421125   2.633   5.283   4.586
 5202SOL     OW21126   2.969   4.128   4.231
 5202SOL    HW221127   2.991   4.065   4.163
 5202SOL    HW321128   2.874   4.120   4.242
 5202SOL    MW421129   2.959   4.119   4.223
 5203SOL     OW21130   2.054   3.818   4.163
 5203SOL    HW221131   2.125   3.839   4.102
 5203SOL    HW321132   2.008   3.746   4.121
 5203SOL    MW421133   2.058   3.812   4.149
 5204SOL     OW21134   1.885   4.285   5.306
 5204SOL    HW221135   1.949   4.351   5.281
 5204SOL    HW321136   1.804   4.312   5.263
 5204SOL    MW421137   1.883   4.297   5.298
 5205SOL     OW21138   3.623   5.192   4.263
 5205SOL    HW221139   3.593   5.125   4.324
 5205SOL    HW321140   3.717   5.198   4.277
 5205SOL    MW421141   3.631   5.184   4.273
 5206SOL     OW21142   3.179   4.869   4.193
 5206SOL    HW221143   3.151   4.955   4.226
 5206SOL    HW321144   3.207   4.885   4.103
 5206SOL    MW421145   3.179   4.883   4.185
 5207SOL     OW21146   2.841   3.789   4.246
 5207SOL    HW221147   2.878   3.848   4.311
 5207SOL    HW321148   2.818   3.845   4.172
 5207SOL    MW421149   2.842   3.804   4.245
 5208SOL     OW21150   3.694   4.671   4.668
 5208SOL    HW221151   3.685   4.703   4.579
 5208SOL    HW321152   3.647   4.587   4.668
 5208SOL    MW421153   3.687   4.664   4.658
 5209SOL     OW21154   2.070   4.511   5.247
 5209SOL    HW221155   2.091   4.580   5.185
 5209SOL    HW321156   2.150   4.458   5.252
 5209SOL    MW421157   2.083   4.512   5.241
 5210SOL     OW21158   3.606   4.602   4.369
 5210SOL    HW221159   3.700   4.591   4.357
 5210SOL    HW321160   3.582   4.674   4.310
 5210SOL    MW421161   3.616   4.610   4.360
 5211SOL     OW21162   2.055   4.526   5.514
 5211SOL    HW221163   1.981   4.470   5.540
 5211SOL    HW321164   2.050   4.529   5.419
 5211SOL    MW421165   2.044   4.519   5.504
 5212SOL     OW21166   2.221   3.813   4.964
 5212SOL    HW221167   2.264   3.897   4.984
 5212SOL    HW321168   2.294   3.751   4.957
 5212SOL    MW421169   2.236   3.816   4.965
 5213SOL     OW21170   2.262   4.480   4.142
 5213SOL    HW221171   2.262   4.575   4.127
 5213SOL    HW321172   2.339   4.464   4.196
 5213SOL    MW421173   2.272   4.491   4.147
 5214SOL     OW21174   3.038   4.339   5.206
 5214SOL    HW221175   3.074   4.312   5.122
 5214SOL    HW321176   2.951   4.373   5.185
 5214SOL    MW421177   3.032   4.340   5.193
 5215SOL     OW21178   2.021   4.211   4.431
 5215SOL    HW221179   2.083   4.218   4.504
 5215SOL    HW321180   2.021   4.118   4.408
 5215SOL    MW421181   2.029   4.200   4.438
 5216SOL     OW21182   2.703   4.472   4.915
 5216SOL    HW221183   2.661   4.390   4.891
 5216SOL    HW321184   2.704   4.471   5.011
 5216SOL    MW421185   2.696   4.461   4.924
 5217SOL     OW21186   3.374   5.605   5.314
 5217SOL    HW221187   3.377   5.511   5.297
 5217SOL    HW321188   3.397   5.613   5.406
 5217SOL    MW421189   3.377   5.593   5.324
 5218SOL     OW21190   2.507   3.942   5.020
 5218SOL    HW221191   2.438   4.005   5.041
 5218SOL    HW321192   2.534   3.906   5.105
 5218SOL    MW421193   2.501   3.945   5.033
 5219SOL     OW21194   1.890   4.783   3.889
 5219SOL    HW221195   1.859   4.848   3.952
 5219SOL    HW321196   1.839   4.705   3.908
 5219SOL    MW421197   1.880   4.780   3.899
 5220SOL     OW21198   3.302   3.795   4.637
 5220SOL    HW221199   3.390   3.804   4.674
 5220SOL    HW321200   3.312   3.736   4.563
 5220SOL    MW421201   3.316   3.789   4.631
 5221SOL     OW21202   3.334   4.534   4.481
 5221SOL    HW221203   3.414   4.549   4.430
 5221SOL    HW321204   3.327   4.439   4.487
 5221SOL    MW421205   3.343   4.523   4.476
 5222SOL     OW21206   2.474   5.583   3.831
 5222SOL    HW221207   2.379   5.583   3.823
 5222SOL    HW321208   2.490   5.529   3.909
 5222SOL    MW421209   2.464   5.577   3.840
 5223SOL     OW21210   2.784   4.460   5.178
 5223SOL    HW221211   2.853   4.527   5.175
 5223SOL    HW321212   2.717   4.498   5.234
 5223SOL    MW421213   2.785   4.473   5.185
 5224SOL     OW21214   2.202   4.760   5.426
 5224SOL    HW221215   2.156   4.676   5.428
 5224SOL    HW321216   2.259   4.754   5.350
 5224SOL    MW421217   2.204   4.748   5.418
 5225SOL     OW21218   3.319   4.403   3.747
 5225SOL    HW221219   3.247   4.379   3.689
 5225SOL    HW321220   3.385   4.440   3.689
 5225SOL    MW421221   3.318   4.405   3.732
 5226SOL     OW21222   2.453   5.135   4.427
 5226SOL    HW221223   2.518   5.068   4.448
 5226SOL    HW321224   2.505   5.212   4.404
 5226SOL    MW421225   2.468   5.137   4.426
 5227SOL     OW21226   2.714   4.300   4.557
 5227SOL    HW221227   2.654   4.318   4.629
 5227SOL    HW321228   2.748   4.212   4.576
 5227SOL    MW421229   2.710   4.290   4.570
 5228SOL     OW21230   3.655   3.799   5.226
 5228SOL    HW221231   3.576   3.845   5.254
 5228SOL    HW321232   3.690   3.853   5.155
 5228SOL    MW421233   3.649   3.812   5.220
 5229SOL     OW21234   2.939   4.883   4.576
 5229SOL    HW221235   3.031   4.864   4.594
 5229SOL    HW321236   2.912   4.813   4.516
 5229SOL    MW421237   2.947   4.871   4.570
 5230SOL     OW21238   2.732   4.703   3.931
 5230SOL    HW221239   2.718   4.615   3.896
 5230SOL    HW321240   2.683   4.760   3.872
 5230SOL    MW421241   2.724   4.698   3.919
 5231SOL     OW21242   3.213   5.121   4.672
 5231SOL    HW221243   3.186   5.205   4.637
 5231SOL    HW321244   3.173   5.116   4.759
 5231SOL    MW421245   3.206   5.130   4.678
 5232SOL     OW21246   3.132   5.069   4.940
 5232SOL    HW221247   3.143   5.036   5.029
 5232SOL    HW321248   3.051   5.028   4.909
 5232SOL    MW421249   3.122   5.061   4.946
 5233SOL     OW21250   3.212   5.191   5.472
 5233SOL    HW221251   3.212   5.285   5.488
 5233SOL    HW321252   3.257   5.181   5.388
 5233SOL    MW421253   3.218   5.201   5.463
 5234SOL     OW21254   3.451   3.909   4.033
 5234SOL    HW221255   3.444   3.913   4.128
 5234SOL    HW321256   3.463   4.000   4.006
 5234SOL    MW421257   3.452   3.922   4.041
 5235SOL     OW21258   2.740   4.472   4.147
 5235SOL    HW221259   2.720   4.458   4.054
 5235SOL    HW321260   2.833   4.451   4.154
 5235SOL    MW421261   2.750   4.467   4.136
 5236SOL     OW21262   2.067   4.095   5.451
 5236SOL    HW221263   2.024   4.154   5.388
 5236SOL    HW321264   2.135   4.150   5.491
 5236SOL    MW421265   2.071   4.110   5.448
 5237SOL     OW21266   3.179   4.715   4.996
 5237SOL    HW221267   3.242   4.712   5.069
 5237SOL    HW321268   3.095   4.733   5.038
 5237SOL    MW421269   3.175   4.717   5.011
 5238SOL     OW21270   2.723   5.430   4.185
 5238SOL    HW221271   2.781   5.501   4.212
 5238SOL    HW321272   2.746   5.358   4.243
 5238SOL    MW421273   2.734   5.430   4.196
 5239SOL     OW21274   3.518   3.892   4.775
 5239SOL    HW221275   3.563   3.810   4.794
 5239SOL    HW321276   3.538   3.948   4.851
 5239SOL    MW421277   3.528   3.888   4.787
 5240SOL     OW21278   1.966   3.735   4.874
 5240SOL    HW221279   1.957   3.736   4.779
 5240SOL    HW321280   2.060   3.747   4.889
 5240SOL    MW421281   1.978   3.738   4.865
 5241SOL     OW21282   3.603   4.928   4.494
 5241SOL    HW221283   3.582   4.874   4.417
 5241SOL    HW321284   3.699   4.926   4.498
 5241SOL    MW421285   3.612   4.921   4.483
 5242SOL     OW21286   2.295   5.073   5.237
 5242SOL    HW221287   2.216   5.023   5.260
 5242SOL    HW321288   2.365   5.032   5.287
 5242SOL    MW421289   2.293   5.061   5.247
 5243SOL     OW21290   2.179   3.862   3.920
 5243SOL    HW221291   2.108   3.917   3.888
 5243SOL    HW321292   2.221   3.828   3.841
 5243SOL    MW421293   2.175   3.864   3.906
 5244SOL     OW21294   3.303   4.359   4.756
 5244SOL    HW221295   3.226   4.405   4.722
 5244SOL    HW321296   3.360   4.428   4.790
 5244SOL    MW421297   3.300   4.374   4.756
 5245SOL     OW21298   1.935   3.961   3.769
 5245SOL    HW221299   1.902   4.040   3.813
 5245SOL    HW321300   1.990   3.994   3.698
 5245SOL    MW421301   1.938   3.975   3.766
 5246SOL     OW21302   1.969   5.218   3.958
 5246SOL    HW221303   1.986   5.302   4.000
 5246SOL    HW321304   2.004   5.227   3.870
 5246SOL    MW421305   1.974   5.231   3.952
 5247SOL     OW21306   3.604   4.575   5.862
 5247SOL    HW221307   3.645   4.517   5.927
 5247SOL    HW321308   3.511   4.567   5.879
 5247SOL    MW421309   3.598   4.567   5.872
 5248SOL     OW21310   2.398   4.758   6.091
 5248SOL    HW221311   2.488   4.733   6.075
 5248SOL    HW321312   2.394   4.851   6.068
 5248SOL    MW421313   2.410   4.767   6.086
 5249SOL     OW21314   3.514   5.461   6.233
 5249SOL    HW221315   3.526   5.407   6.311
 5249SOL    HW321316   3.551   5.409   6.162
 5249SOL    MW421317   3.520   5.446   6.234
 5250SOL     OW21318   2.682   4.214   6.104
 5250SOL    HW221319   2.657   4.302   6.132
 5250SOL    HW321320   2.679   4.217   6.008
 5250SOL    MW421321   2.678   4.226   6.096
 5251SOL     OW21322   2.124   4.242   6.032
 5251SOL    HW221323   2.156   4.330   6.014
 5251SOL    HW321324   2.112   4.240   6.127
 5251SOL    MW421325   2.127   4.254   6.044
 5252SOL     OW21326   2.523   3.997   6.119
 5252SOL    HW221327   2.581   4.073   6.121
 5252SOL    HW321328   2.458   4.018   6.052
 5252SOL    MW421329   2.522   4.009   6.110
 5253SOL     OW21330   2.610   4.924   6.294
 5253SOL    HW221331   2.690   4.927   6.346
 5253SOL    HW321332   2.638   4.891   6.208
 5253SOL    MW421333   2.624   4.920   6.289
 5254SOL     OW21334   2.387   4.428   6.285
 5254SOL    HW221335   2.372   4.348   6.336
 5254SOL    HW321336   2.469   4.463   6.319
 5254SOL    MW421337   2.395   4.420   6.297
 5255SOL     OW21338   2.529   4.254   6.662
 5255SOL    HW221339   2.435   4.250   6.680
 5255SOL    HW321340   2.559   4.163   6.671
 5255SOL    MW421341   2.520   4.242   6.665
 5256SOL     OW21342   2.275   4.668   6.566
 5256SOL    HW221343   2.230   4.675   6.482
 5256SOL    HW321344   2.255   4.751   6.610
 5256SOL    MW421345   2.267   4.680   6.560
 5257SOL     OW21346   1.972   5.514   6.441
 5257SOL    HW221347   2.061   5.506   6.476
 5257SOL    HW321348   1.936   5.426   6.446
 5257SOL    MW421349   1.979   5.501   6.446
 5258SOL     OW21350   3.237   4.906   5.810
 5258SOL    HW221351   3.155   4.942   5.776
 5258SOL    HW321352   3.305   4.949   5.759
 5258SOL    MW421353   3.235   4.916   5.798
 5259SOL     OW21354   2.236   5.041   6.476
 5259SOL    HW221355   2.212   5.094   6.552
 5259SOL    HW321356   2.292   5.099   6.424
 5259SOL    MW421357   2.240   5.056   6.479
 5260SOL     OW21358   2.798   4.685   6.286
 5260SOL    HW221359   2.712   4.672   6.326
 5260SOL    HW321360   2.851   4.612   6.318
 5260SOL    MW421361   2.794   4.674   6.295
 5261SOL     OW21362   2.789   5.047   6.003
 5261SOL    HW221363   2.766   5.109   6.071
 5261SOL    HW321364   2.746   4.965   6.029
 5261SOL    MW421365   2.781   5.043   6.014
 5262SOL     OW21366   3.662   4.048   6.459
 5262SOL    HW221367   3.599   4.028   6.528
 5262SOL    HW321368   3.652   3.977   6.396
 5262SOL    MW421369   3.652   4.035   6.460
 5263SOL     OW21370   2.286   4.020   5.971
 5263SOL    HW221371   2.260   3.982   5.887
 5263SOL    HW321372   2.223   4.090   5.987
 5263SOL    MW421373   2.275   4.023   5.962
 5264SOL     OW21374   2.121   4.981   6.008
 5264SOL    HW221375   2.069   5.049   5.964
 5264SOL    HW321376   2.118   4.907   5.948
 5264SOL    MW421377   2.113   4.980   5.995
 5265SOL     OW21378   2.783   5.444   5.786
 5265SOL    HW221379   2.738   5.460   5.869
 5265SOL    HW321380   2.714   5.409   5.728
 5265SOL    MW421381   2.769   5.441   5.788
 5266SOL     OW21382   3.718   4.217   5.761
 5266SOL    HW221383   3.627   4.219   5.789
 5266SOL    HW321384   3.763   4.279   5.819
 5266SOL    MW421385   3.711   4.225   5.771
 5267SOL     OW21386   3.463   4.820   6.111
 5267SOL    HW221387   3.373   4.820   6.146
 5267SOL    HW321388   3.456   4.866   6.028
 5267SOL    MW421389   3.450   4.826   6.105
 5268SOL     OW21390   2.004   5.335   6.735
 5268SOL    HW221391   1.987   5.281   6.812
 5268SOL    HW321392   1.992   5.425   6.765
 5268SOL    MW421393   2.001   5.339   6.749
 5269SOL     OW21394   3.370   4.798   6.503
 5269SOL    HW221395   3.373   4.732   6.434
 5269SOL    HW321396   3.455   4.841   6.499
 5269SOL    MW421397   3.382   4.794   6.494
 5270SOL     OW21398   2.990   4.401   6.072
 5270SOL    HW221399   3.016   4.425   5.983
 5270SOL    HW321400   2.972   4.308   6.068
 5270SOL    MW421401   2.992   4.393   6.059
 5271SOL     OW21402   3.655   5.021   5.923
 5271SOL    HW221403   3.611   5.062   5.998
 5271SOL    HW321404   3.712   5.089   5.888
 5271SOL    MW421405   3.657   5.035   5.928
 5272SOL     OW21406   2.311   5.437   6.241
 5272SOL    HW221407   2.343   5.525   6.219
 5272SOL    HW321408   2.264   5.409   6.163
 5272SOL    MW421409   2.310   5.445   6.228
 5273SOL     OW21410   3.695   3.799   6.290
 5273SOL    HW221411   3.749   3.750   6.352
 5273SOL    HW321412   3.638   3.733   6.251
 5273SOL    MW421413   3.695   3.783   6.292
 5274SOL     OW21414   2.027   5.497   5.818
 5274SOL    HW221415   2.056   5.587   5.810
 5274SOL    HW321416   1.977   5.480   5.739
 5274SOL    MW421417   2.025   5.505   5.807
 5275SOL     OW21418   3.431   5.305   5.789
 5275SOL    HW221419   3.479   5.374   5.835
 5275SOL    HW321420   3.352   5.349   5.758
 5275SOL    MW421421   3.426   5.319   5.792
 5276SOL     OW21422   2.829   4.430   5.733
 5276SOL    HW221423   2.831   4.377   5.654
 5276SOL    HW321424   2.917   4.467   5.739
 5276SOL    MW421425   2.841   4.429   5.722
 5277SOL     OW21426   3.443   4.356   6.069
 5277SOL    HW221427   3.482   4.356   6.156
 5277SOL    HW321428   3.384   4.432   6.069
 5277SOL    MW421429   3.440   4.367   6.080
 5278SOL     OW21430   2.929   4.349   6.792
 5278SOL    HW221431   3.004   4.378   6.739
 5278SOL    HW321432   2.861   4.414   6.776
 5278SOL    MW421433   2.930   4.361   6.782
 5279SOL     OW21434   3.630   4.242   6.235
 5279SOL    HW221435   3.719   4.211   6.252
 5279SOL    HW321436   3.573   4.182   6.283
 5279SOL    MW421437   3.633   4.230   6.244
 5280SOL     OW21438   2.056   3.956   6.264
 5280SOL    HW221439   2.047   3.896   6.190
 5280SOL    HW321440   1.989   3.927   6.327
 5280SOL    MW421441   2.046   3.943   6.262
 5281SOL     OW21442   2.999   5.049   5.825
 5281SOL    HW221443   2.949   5.051   5.907
 5281SOL    HW321444   2.933   5.067   5.757
 5281SOL    MW421445   2.985   5.051   5.827
 5282SOL     OW21446   2.003   4.129   6.627
 5282SOL    HW221447   1.975   4.220   6.636
 5282SOL    HW321448   1.940   4.090   6.566
 5282SOL    MW421449   1.990   4.135   6.621
 5283SOL     OW21450   2.462   5.467   5.933
 5283SOL    HW221451   2.383   5.425   5.966
 5283SOL    HW321452   2.528   5.450   6.000
 5283SOL    MW421453   2.461   5.459   5.946
 5284SOL     OW21454   2.598   4.882   5.640
 5284SOL    HW221455   2.520   4.828   5.627
 5284SOL    HW321456   2.569   4.955   5.693
 5284SOL    MW421457   2.584   4.884   5.645
 5285SOL     OW21458   3.724   4.622   6.832
 5285SOL    HW221459   3.740   4.660   6.745
 5285SOL    HW321460   3.758   4.688   6.893
 5285SOL    MW421461   3.731   4.635   6.828
 5286SOL     OW21462   3.516   5.331   6.501
 5286SOL    HW221463   3.545   5.398   6.562
 5286SOL    HW321464   3.497   5.255   6.556
 5286SOL    MW421465   3.518   5.331   6.516
 5287SOL     OW21466   3.179   5.398   5.708
 5287SOL    HW221467   3.105   5.361   5.758
 5287SOL    HW321468   3.187   5.488   5.741
 5287SOL    MW421469   3.170   5.405   5.720
 5288SOL     OW21470   3.403   5.072   5.650
 5288SOL    HW221471   3.350   5.121   5.586
 5288SOL    HW321472   3.434   5.138   5.711
 5288SOL    MW421473   3.401   5.086   5.648
 5289SOL     OW21474   2.628   3.961   5.705
 5289SOL    HW221475   2.576   3.881   5.693
 5289SOL    HW321476   2.715   3.938   5.673
 5289SOL    MW421477   2.631   3.947   5.699
 5290SOL     OW21478   2.134   4.832   6.756
 5290SOL    HW221479   2.187   4.907   6.781
 5290SOL    HW321480   2.053   4.870   6.722
 5290SOL    MW421481   2.130   4.847   6.756
 5291SOL     OW21482   2.674   4.736   6.744
 5291SOL    HW221483   2.702   4.645   6.756
 5291SOL    HW321484   2.603   4.730   6.680
 5291SOL    MW421485   2.667   4.724   6.739
 5292SOL     OW21486   1.989   4.601   6.162
 5292SOL    HW221487   2.080   4.616   6.189
 5292SOL    HW321488   1.992   4.522   6.108
 5292SOL    MW421489   2.001   4.593   6.160
 5293SOL     OW21490   2.616   5.533   6.536
 5293SOL    HW221491   2.705   5.548   6.566
 5293SOL    HW321492   2.611   5.580   6.452
 5293SOL    MW421493   2.626   5.541   6.529
 5294SOL     OW21494   1.997   5.213   6.201
 5294SOL    HW221495   1.969   5.252   6.283
 5294SOL    HW321496   2.017   5.122   6.223
 5294SOL    MW421497   1.995   5.205   6.214
 5295SOL     OW21498   2.830   5.256   6.236
 5295SOL    HW221499   2.913   5.210   6.220
 5295SOL    HW321500   2.820   5.255   6.332
 5295SOL    MW421501   2.840   5.249   6.246
 5296SOL     OW21502   3.662   4.401   6.550
 5296SOL    HW221503   3.751   4.431   6.532
 5296SOL    HW321504   3.642   4.341   6.479
 5296SOL    MW421505   3.671   4.398   6.539
 5297SOL     OW21506   2.563   5.313   5.641
 5297SOL    HW221507   2.503   5.382   5.611
 5297SOL    HW321508   2.508   5.255   5.694
 5297SOL    MW421509   2.547   5.315   5.643
 5298SOL     OW21510   3.001   3.958   5.864
 5298SOL    HW221511   2.934   3.934   5.801
 5298SOL    HW321512   3.066   4.007   5.813
 5298SOL    MW421513   3.001   3.960   5.849
 5299SOL     OW21514   3.068   4.480   6.572
 5299SOL    HW221515   3.081   4.574   6.582
 5299SOL    HW321516   3.029   4.470   6.486
 5299SOL    MW421517   3.064   4.491   6.562
 5300SOL     OW21518   2.520   4.675   6.376
 5300SOL    HW221519   2.431   4.666   6.409
 5300SOL    HW321520   2.524   4.765   6.344
 5300SOL    MW421521   2.509   4.686   6.376
 5301SOL     OW21522   3.319   4.258   6.371
 5301SOL    HW221523   3.264   4.179   6.370
 5301SOL    HW321524   3.301   4.299   6.455
 5301SOL    MW421525   3.309   4.253   6.380
 5302SOL     OW21526   2.938   4.462   6.328
 5302SOL    HW221527   2.875   4.394   6.352
 5302SOL    HW321528   2.958   4.443   6.236
 5302SOL    MW421529   2.932   4.449   6.320
 5303SOL     OW21530   2.194   5.357   6.030
 5303SOL    HW221531   2.155   5.404   5.956
 5303SOL    HW321532   2.128   5.292   6.055
 5303SOL    MW421533   2.181   5.355   6.024
 5304SOL     OW21534   2.686   4.766   6.054
 5304SOL    HW221535   2.688   4.740   5.961
 5304SOL    HW321536   2.744   4.703   6.097
 5304SOL    MW421537   2.694   4.755   6.048
 5305SOL     OW21538   3.243   5.534   6.256
 5305SOL    HW221539   3.186   5.487   6.195
 5305SOL    HW321540   3.329   5.495   6.243
 5305SOL    MW421541   3.246   5.525   6.246
 5306SOL     OW21542   3.196   4.010   6.387
 5306SOL    HW221543   3.224   3.942   6.448
 5306SOL    HW321544   3.110   3.981   6.357
 5306SOL    MW421545   3.189   3.997   6.391
 5307SOL     OW21546   2.001   4.944   6.321
 5307SOL    HW221547   2.065   4.976   6.384
 5307SOL    HW321548   2.050   4.880   6.269
 5307SOL    MW421549   2.016   4.940   6.322
 5308SOL     OW21550   3.176   4.114   5.722
 5308SOL    HW221551   3.149   4.180   5.658
 5308SOL    HW321552   3.246   4.157   5.772
 5308SOL    MW421553   3.181   4.127   5.719
 5309SOL     OW21554   2.844   3.819   5.659
 5309SOL    HW221555   2.900   3.811   5.581
 5309SOL    HW321556   2.821   3.729   5.681
 5309SOL    MW421557   2.849   3.806   5.652
 5310SOL     OW21558   3.349   4.670   5.864
 5310SOL    HW221559   3.316   4.759   5.854
 5310SOL    HW321560   3.314   4.641   5.949
 5310SOL    MW421561   3.339   4.679   5.875
 5311SOL     OW21562   2.279   5.257   6.693
 5311SOL    HW221563   2.324   5.319   6.750
 5311SOL    HW321564   2.186   5.276   6.706
 5311SOL    MW421565   2.272   5.267   6.700
 5312SOL     OW21566   2.701   5.325   6.801
 5312SOL    HW221567   2.725   5.314   6.710
 5312SOL    HW321568   2.624   5.382   6.799
 5312SOL    MW421569   2.693   5.330   6.790
 5313SOL     OW21570   2.343   4.708   5.656
 5313SOL    HW221571   2.266   4.721   5.712
 5313SOL    HW321572   2.307   4.672   5.575
 5313SOL    MW421573   2.329   4.704   5.653
 5314SOL     OW21574   2.996   4.681   5.899
 5314SOL    HW221575   2.906   4.702   5.874
 5314SOL    HW321576   3.023   4.754   5.955
 5314SOL    MW421577   2.988   4.693   5.902
 5315SOL     OW21578   2.496   5.030   6.591
 5315SOL    HW221579   2.489   5.009   6.685
 5315SOL    HW321580   2.414   4.998   6.554
 5315SOL    MW421581   2.484   5.024   6.598
 5316SOL     OW21582   2.625   3.797   6.306
 5316SOL    HW221583   2.554   3.858   6.288
 5316SOL    HW321584   2.676   3.794   6.225
 5316SOL    MW421585   2.621   3.803   6.293
 5317SOL     OW21586   2.383   5.037   6.055
 5317SOL    HW221587   2.376   5.069   6.145
 5317SOL    HW321588   2.293   5.021   6.027
 5317SOL    MW421589   2.371   5.039   6.062
 5318SOL     OW21590   3.092   5.395   6.454
 5318SOL    HW221591   3.139   5.468   6.413
 5318SOL    HW321592   3.013   5.434   6.490
 5318SOL    MW421593   3.087   5.410   6.453
 5319SOL     OW21594   3.500   5.490   6.729
 5319SOL    HW221595   3.543   5.460   6.809
 5319SOL    HW321596   3.419   5.438   6.726
 5319SOL    MW421597   3.495   5.479   6.739
 5320SOL     OW21598   2.386   4.321   5.769
 5320SOL    HW221599   2.352   4.377   5.839
 5320SOL    HW321600   2.457   4.271   5.809
 5320SOL    MW421601   2.392   4.322   5.783
 5321SOL     OW21602   3.482   5.072   6.591
 5321SOL    HW221603   3.517   5.054   6.504
 5321SOL    HW321604   3.387   5.073   6.578
 5321SOL    MW421605   3.474   5.069   6.578
 5322SOL     OW21606   3.442   4.207   5.833
 5322SOL    HW221607   3.434   4.278   5.770
 5322SOL    HW321608   3.460   4.251   5.916
 5322SOL    MW421609   3.443   4.221   5.835
 5323SOL     OW21610   2.302   3.862   6.262
 5323SOL    HW221611   2.352   3.905   6.193
 5323SOL    HW321612   2.217   3.906   6.262
 5323SOL    MW421613   2.299   3.875   6.253
 5324SOL     OW21614   3.111   4.469   5.808
 5324SOL    HW221615   3.158   4.487   5.727
 5324SOL    HW321616   3.077   4.553   5.836
 5324SOL    MW421617   3.113   4.483   5.801
 5325SOL     OW21618   2.224   4.647   6.302
 5325SOL    HW221619   2.282   4.703   6.250
 5325SOL    HW321620   2.268   4.562   6.304
 5325SOL    MW421621   2.237   4.644   6.295
 5326SOL     OW21622   3.364   3.999   6.139
 5326SOL    HW221623   3.286   3.949   6.164
 5326SOL    HW321624   3.335   4.090   6.139
 5326SOL    MW421625   3.350   4.003   6.142
 5327SOL     OW21626   2.950   3.961   6.298
 5327SOL    HW221627   2.970   4.036   6.242
 5327SOL    HW321628   2.930   4.000   6.383
 5327SOL    MW421629   2.951   3.977   6.302
 5328SOL     OW21630   2.846   5.211   5.630
 5328SOL    HW221631   2.873   5.289   5.582
 5328SOL    HW321632   2.753   5.226   5.649
 5328SOL    MW421633   2.837   5.224   5.626
 5329SOL     OW21634   1.931   5.247   6.474
 5329SOL    HW221635   1.963   5.251   6.565
 5329SOL    HW321636   1.836   5.255   6.482
 5329SOL    MW421637   1.923   5.250   6.487
 5330SOL     OW21638   1.886   4.373   6.021
 5330SOL    HW221639   1.826   4.345   6.091
 5330SOL    HW321640   1.960   4.313   6.027
 5330SOL    MW421641   1.888   4.362   6.030
 5331SOL     OW21642   3.054   5.104   6.181
 5331SOL    HW221643   3.077   5.055   6.259
 5331SOL    HW321644   3.135   5.146   6.153
 5331SOL    MW421645   3.067   5.104   6.188
 5332SOL     OW21646   2.266   4.079   6.646
 5332SOL    HW221647   2.296   3.993   6.617
 5332SOL    HW321648   2.171   4.072   6.649
 5332SOL    MW421649   2.258   4.068   6.644
 5333SOL     OW21650   2.409   3.857   6.537
 5333SOL    HW221651   2.419   3.766   6.563
 5333SOL    HW321652   2.365   3.853   6.452
 5333SOL    MW421653   2.405   3.845   6.529
 5334SOL     OW21654   3.560   4.179   6.708
 5334SOL    HW221655   3.493   4.212   6.768
 5334SOL    HW321656   3.603   4.257   6.674
 5334SOL    MW421657   3.558   4.194   6.712
 5335SOL     OW21658   3.738   4.899   6.678
 5335SOL    HW221659   3.731   4.839   6.603
 5335SOL    HW321660   3.664   4.959   6.667
 5335SOL    MW421661   3.728   4.899   6.667
 5336SOL     OW21662   3.120   4.761   6.596
 5336SOL    HW221663   3.134   4.733   6.687
 5336SOL    HW321664   3.206   4.792   6.568
 5336SOL    MW421665   3.133   4.762   6.605
 5337SOL     OW21666   3.194   3.771   5.817
 5337SOL    HW221667   3.268   3.815   5.860
 5337SOL    HW321668   3.118   3.825   5.839
 5337SOL    MW421669   3.194   3.783   5.825
 5338SOL     OW21670   3.254   4.546   6.095
 5338SOL    HW221671   3.169   4.516   6.065
 5338SOL    HW321672   3.246   4.553   6.190
 5338SOL    MW421673   3.242   4.544   6.104
 5339SOL     OW21674   2.614   3.989   6.649
 5339SOL    HW221675   2.587   3.991   6.740
 5339SOL    HW321676   2.544   3.941   6.604
 5339SOL    MW421677   2.602   3.985   6.656
 5340SOL     OW21678   2.627   4.212   5.821
 5340SOL    HW221679   2.700   4.261   5.784
 5340SOL    HW321680   2.643   4.121   5.795
 5340SOL    MW421681   2.639   4.207   5.814
 5341SOL     OW21682   3.095   3.808   6.735
 5341SOL    HW221683   3.150   3.817   6.657
 5341SOL    HW321684   3.150   3.842   6.806
 5341SOL    MW421685   3.109   3.813   6.734
 5342SOL     OW21686   2.102   4.721   5.919
 5342SOL    HW221687   2.039   4.737   5.848
 5342SOL    HW321688   2.049   4.684   5.990
 5342SOL    MW421689   2.087   4.718   5.919
 5343SOL     OW21690   2.458   5.075   5.778
 5343SOL    HW221691   2.473   5.051   5.870
 5343SOL    HW321692   2.366   5.053   5.762
 5343SOL    MW421693   2.448   5.068   5.788
 5344SOL     OW21694   2.997   5.306   5.930
 5344SOL    HW221695   3.005   5.224   5.881
 5344SOL    HW321696   2.916   5.345   5.897
 5344SOL    MW421697   2.987   5.301   5.920
 5345SOL     OW21698   2.256   5.464   6.499
 5345SOL    HW221699   2.260   5.375   6.534
 5345SOL    HW321700   2.282   5.455   6.408
 5345SOL    MW421701   2.259   5.452   6.491
 5346SOL     OW21702   2.873   4.942   6.742
 5346SOL    HW221703   2.805   4.876   6.758
 5346SOL    HW321704   2.891   4.936   6.649
 5346SOL    MW421705   2.866   4.933   6.733
 5347SOL     OW21706   2.866   4.081   6.563
 5347SOL    HW221707   2.796   4.033   6.608
 5347SOL    HW321708   2.898   4.144   6.627
 5347SOL    MW421709   2.861   4.083   6.577
 5348SOL     OW21710   2.333   4.187   6.376
 5348SOL    HW221711   2.404   4.135   6.339
 5348SOL    HW321712   2.319   4.152   6.463
 5348SOL    MW421713   2.341   4.176   6.383
 5349SOL     OW21714   2.649   5.280   6.452
 5349SOL    HW221715   2.577   5.217   6.465
 5349SOL    HW321716   2.610   5.365   6.470
 5349SOL    MW421717   2.633   5.283   6.455
 5350SOL     OW21718   2.969   4.128   6.100
 5350SOL    HW221719   2.991   4.065   6.032
 5350SOL    HW321720   2.874   4.120   6.111
 5350SOL    MW421721   2.959   4.119   6.092
 5351SOL     OW21722   2.054   3.818   6.032
 5351SOL    HW221723   2.125   3.839   5.971
 5351SOL    HW321724   2.008   3.746   5.990
 5351SOL    MW421725   2.058   3.812   6.018
 5352SOL     OW21726   3.623   5.192   6.132
 5352SOL    HW221727   3.593   5.125   6.193
 5352SOL    HW321728   3.717   5.198   6.146
 5352SOL    MW421729   3.631   5.184   6.142
 5353SOL     OW21730   3.179   4.869   6.062
 5353SOL    HW221731   3.151   4.955   6.095
 5353SOL    HW321732   3.207   4.885   5.972
 5353SOL    MW421733   3.179   4.883   6.054
 5354SOL     OW21734   2.841   3.789   6.115
 5354SOL    HW221735   2.878   3.848   6.180
 5354SOL    HW321736   2.818   3.845   6.041
 5354SOL    MW421737   2.842   3.804   6.114
 5355SOL     OW21738   3.694   4.671   6.537
 5355SOL    HW221739   3.685   4.703   6.448
 5355SOL    HW321740   3.647   4.587   6.537
 5355SOL    MW421741   3.687   4.664   6.527
 5356SOL     OW21742   3.606   4.602   6.238
 5356SOL    HW221743   3.700   4.591   6.226
 5356SOL    HW321744   3.582   4.674   6.179
 5356SOL    MW421745   3.616   4.610   6.229
 5357SOL     OW21746   2.262   4.480   6.011
 5357SOL    HW221747   2.262   4.575   5.996
 5357SOL    HW321748   2.339   4.464   6.065
 5357SOL    MW421749   2.272   4.491   6.016
 5358SOL     OW21750   2.021   4.211   6.300
 5358SOL    HW221751   2.083   4.218   6.373
 5358SOL    HW321752   2.021   4.118   6.277
 5358SOL    MW421753   2.029   4.200   6.307
 5359SOL     OW21754   3.568   5.551   5.832
 5359SOL    HW221755   3.635   5.584   5.772
 5359SOL    HW321756   3.525   5.630   5.866
 5359SOL    MW421757   3.570   5.566   5.828
 5360SOL     OW21758   2.703   4.472   6.784
 5360SOL    HW221759   2.661   4.390   6.760
 5360SOL    HW321760   2.704   4.471   6.880
 5360SOL    MW421761   2.696   4.461   6.793
 5361SOL     OW21762   1.890   4.783   5.758
 5361SOL    HW221763   1.859   4.848   5.821
 5361SOL    HW321764   1.839   4.705   5.777
 5361SOL    MW421765   1.880   4.780   5.768
 5362SOL     OW21766   3.334   4.534   6.350
 5362SOL    HW221767   3.414   4.549   6.299
 5362SOL    HW321768   3.327   4.439   6.356
 5362SOL    MW421769   3.343   4.523   6.345
 5363SOL     OW21770   2.474   5.583   5.700
 5363SOL    HW221771   2.379   5.583   5.692
 5363SOL    HW321772   2.490   5.529   5.778
 5363SOL    MW421773   2.464   5.577   5.709
 5364SOL     OW21774   3.319   4.403   5.615
 5364SOL    HW221775   3.247   4.379   5.557
 5364SOL    HW321776   3.385   4.440   5.557
 5364SOL    MW421777   3.318   4.405   5.600
 5365SOL     OW21778   2.453   5.135   6.296
 5365SOL    HW221779   2.518   5.068   6.317
 5365SOL    HW321780   2.505   5.212   6.273
 5365SOL    MW421781   2.468   5.137   6.295
 5366SOL     OW21782   2.714   4.300   6.426
 5366SOL    HW221783   2.654   4.318   6.498
 5366SOL    HW321784   2.748   4.212   6.445
 5366SOL    MW421785   2.710   4.290   6.439
 5367SOL     OW21786   2.939   4.883   6.445
 5367SOL    HW221787   3.031   4.864   6.463
 5367SOL    HW321788   2.912   4.813   6.385
 5367SOL    MW421789   2.947   4.871   6.439
 5368SOL     OW21790   2.732   4.703   5.800
 5368SOL    HW221791   2.718   4.615   5.765
 5368SOL    HW321792   2.683   4.760   5.741
 5368SOL    MW421793   2.724   4.698   5.788
 5369SOL     OW21794   3.213   5.121   6.541
 5369SOL    HW221795   3.186   5.205   6.506
 5369SOL    HW321796   3.173   5.116   6.628
 5369SOL    MW421797   3.206   5.130   6.547
 5370SOL     OW21798   2.145   4.427   6.579
 5370SOL    HW221799   2.095   4.426   6.660
 5370SOL    HW321800   2.165   4.519   6.563
 5370SOL    MW421801   2.141   4.439   6.587
 5371SOL     OW21802   3.451   3.909   5.902
 5371SOL    HW221803   3.444   3.913   5.997
 5371SOL    HW321804   3.463   4.000   5.875
 5371SOL    MW421805   3.452   3.922   5.910
 5372SOL     OW21806   2.740   4.472   6.016
 5372SOL    HW221807   2.720   4.458   5.923
 5372SOL    HW321808   2.833   4.451   6.023
 5372SOL    MW421809   2.750   4.467   6.005
 5373SOL     OW21810   2.723   5.430   6.054
 5373SOL    HW221811   2.781   5.501   6.081
 5373SOL    HW321812   2.746   5.358   6.112
 5373SOL    MW421813   2.734   5.430   6.065
 5374SOL     OW21814   3.518   3.892   6.644
 5374SOL    HW221815   3.563   3.810   6.663
 5374SOL    HW321816   3.538   3.948   6.720
 5374SOL    MW421817   3.528   3.888   6.656
 5375SOL     OW21818   1.966   3.735   6.743
 5375SOL    HW221819   1.957   3.736   6.648
 5375SOL    HW321820   2.060   3.747   6.758
 5375SOL    MW421821   1.978   3.738   6.734
 5376SOL     OW21822   3.603   4.928   6.363
 5376SOL    HW221823   3.582   4.874   6.286
 5376SOL    HW321824   3.699   4.926   6.367
 5376SOL    MW421825   3.612   4.921   6.352
 5377SOL     OW21826   2.179   3.862   5.789
 5377SOL    HW221827   2.108   3.917   5.757
 5377SOL    HW321828   2.221   3.828   5.710
 5377SOL    MW421829   2.175   3.864   5.775
 5378SOL     OW21830   3.303   4.359   6.625
 5378SOL    HW221831   3.226   4.405   6.591
 5378SOL    HW321832   3.360   4.428   6.659
 5378SOL    MW421833   3.300   4.374   6.625
 5379SOL     OW21834   1.935   3.961   5.638
 5379SOL    HW221835   1.902   4.040   5.682
 5379SOL    HW321836   1.990   3.994   5.567
 5379SOL    MW421837   1.938   3.975   5.635
 5380SOL     OW21838   1.969   5.218   5.827
 5380SOL    HW221839   1.986   5.302   5.869
 5380SOL    HW321840   2.004   5.227   5.739
 5380SOL    MW421841   1.974   5.231   5.821
 5381SOL     OW21842   3.241   5.307   6.044
 5381SOL    HW221843   3.304   5.297   5.973
 5381SOL    HW321844   3.158   5.327   5.999
 5381SOL    MW421845   3.238   5.308   6.029
 5382SOL     OW21846   3.604   6.444   0.257
 5382SOL    HW221847   3.645   6.386   0.322
 5382SOL    HW321848   3.511   6.436   0.274
 5382SOL    MW421849   3.598   6.436   0.267
 5383SOL     OW21850   3.470   6.376   1.252
 5383SOL    HW221851   3.425   6.443   1.303
 5383SOL    HW321852   3.558   6.412   1.238
 5383SOL    MW421853   3.476   6.389   1.256
 5384SOL     OW21854   2.398   6.627   0.486
 5384SOL    HW221855   2.488   6.602   0.470
 5384SOL    HW321856   2.394   6.720   0.463
 5384SOL    MW421857   2.410   6.636   0.481
 5385SOL     OW21858   3.514   7.330   0.628
 5385SOL    HW221859   3.526   7.276   0.706
 5385SOL    HW321860   3.551   7.278   0.557
 5385SOL    MW421861   3.520   7.315   0.629
 5386SOL     OW21862   2.893   7.215   1.629
 5386SOL    HW221863   2.934   7.251   1.550
 5386SOL    HW321864   2.928   7.126   1.636
 5386SOL    MW421865   2.904   7.208   1.620
 5387SOL     OW21866   3.450   6.770   1.233
 5387SOL    HW221867   3.371   6.735   1.191
 5387SOL    HW321868   3.477   6.842   1.177
 5387SOL    MW421869   3.443   6.775   1.220
 5388SOL     OW21870   2.682   6.083   0.499
 5388SOL    HW221871   2.657   6.171   0.527
 5388SOL    HW321872   2.679   6.086   0.403
 5388SOL    MW421873   2.678   6.095   0.491
 5389SOL     OW21874   2.124   6.111   0.427
 5389SOL    HW221875   2.156   6.199   0.409
 5389SOL    HW321876   2.112   6.109   0.522
 5389SOL    MW421877   2.127   6.123   0.439
 5390SOL     OW21878   2.202   6.524   1.328
 5390SOL    HW221879   2.265   6.471   1.279
 5390SOL    HW321880   2.183   6.598   1.271
 5390SOL    MW421881   2.208   6.526   1.315
 5391SOL     OW21882   2.523   5.866   0.514
 5391SOL    HW221883   2.581   5.942   0.516
 5391SOL    HW321884   2.458   5.887   0.447
 5391SOL    MW421885   2.522   5.878   0.505
 5392SOL     OW21886   2.610   6.793   0.689
 5392SOL    HW221887   2.690   6.796   0.741
 5392SOL    HW321888   2.638   6.760   0.603
 5392SOL    MW421889   2.624   6.789   0.684
 5393SOL     OW21890   2.635   7.134   1.592
 5393SOL    HW221891   2.719   7.160   1.631
 5393SOL    HW321892   2.659   7.078   1.518
 5393SOL    MW421893   2.649   7.130   1.587
 5394SOL     OW21894   2.387   6.297   0.680
 5394SOL    HW221895   2.372   6.217   0.731
 5394SOL    HW321896   2.469   6.332   0.714
 5394SOL    MW421897   2.395   6.289   0.692
 5395SOL     OW21898   2.724   6.983   1.365
 5395SOL    HW221899   2.688   7.049   1.305
 5395SOL    HW321900   2.652   6.921   1.378
 5395SOL    MW421901   2.710   6.983   1.359
 5396SOL     OW21902   2.529   6.123   1.057
 5396SOL    HW221903   2.435   6.119   1.075
 5396SOL    HW321904   2.559   6.032   1.066
 5396SOL    MW421905   2.520   6.111   1.060
 5397SOL     OW21906   2.275   6.537   0.961
 5397SOL    HW221907   2.230   6.544   0.877
 5397SOL    HW321908   2.255   6.620   1.005
 5397SOL    MW421909   2.267   6.549   0.955
 5398SOL     OW21910   1.972   7.383   0.836
 5398SOL    HW221911   2.061   7.375   0.871
 5398SOL    HW321912   1.936   7.295   0.841
 5398SOL    MW421913   1.979   7.370   0.841
 5399SOL     OW21914   3.237   6.775   0.205
 5399SOL    HW221915   3.155   6.811   0.171
 5399SOL    HW321916   3.305   6.818   0.154
 5399SOL    MW421917   3.235   6.785   0.193
 5400SOL     OW21918   2.236   6.910   0.871
 5400SOL    HW221919   2.212   6.963   0.947
 5400SOL    HW321920   2.292   6.968   0.819
 5400SOL    MW421921   2.240   6.925   0.874
 5401SOL     OW21922   2.798   6.554   0.681
 5401SOL    HW221923   2.712   6.541   0.721
 5401SOL    HW321924   2.851   6.481   0.713
 5401SOL    MW421925   2.794   6.543   0.690
 5402SOL     OW21926   2.206   7.206   1.466
 5402SOL    HW221927   2.114   7.182   1.451
 5402SOL    HW321928   2.250   7.123   1.483
 5402SOL    MW421929   2.200   7.191   1.465
 5403SOL     OW21930   2.789   6.916   0.398
 5403SOL    HW221931   2.766   6.978   0.466
 5403SOL    HW321932   2.746   6.834   0.424
 5403SOL    MW421933   2.781   6.912   0.409
 5404SOL     OW21934   3.662   5.917   0.854
 5404SOL    HW221935   3.599   5.897   0.923
 5404SOL    HW321936   3.652   5.846   0.791
 5404SOL    MW421937   3.652   5.904   0.855
 5405SOL     OW21938   2.286   5.889   0.366
 5405SOL    HW221939   2.260   5.851   0.282
 5405SOL    HW321940   2.223   5.959   0.382
 5405SOL    MW421941   2.275   5.892   0.357
 5406SOL     OW21942   2.121   6.850   0.403
 5406SOL    HW221943   2.069   6.918   0.359
 5406SOL    HW321944   2.118   6.776   0.343
 5406SOL    MW421945   2.113   6.849   0.390
 5407SOL     OW21946   2.783   7.313   0.181
 5407SOL    HW221947   2.738   7.329   0.264
 5407SOL    HW321948   2.714   7.278   0.123
 5407SOL    MW421949   2.769   7.310   0.183
 5408SOL     OW21950   3.718   6.086   0.156
 5408SOL    HW221951   3.627   6.088   0.184
 5408SOL    HW321952   3.763   6.148   0.214
 5408SOL    MW421953   3.711   6.094   0.166
 5409SOL     OW21954   3.463   6.689   0.506
 5409SOL    HW221955   3.373   6.689   0.541
 5409SOL    HW321956   3.456   6.735   0.423
 5409SOL    MW421957   3.450   6.695   0.500
 5410SOL     OW21958   3.263   6.324   1.578
 5410SOL    HW221959   3.332   6.262   1.555
 5410SOL    HW321960   3.188   6.298   1.525
 5410SOL    MW421961   3.263   6.311   1.569
 5411SOL     OW21962   2.004   7.204   1.130
 5411SOL    HW221963   1.987   7.150   1.207
 5411SOL    HW321964   1.992   7.294   1.160
 5411SOL    MW421965   2.001   7.208   1.144
 5412SOL     OW21966   2.999   6.711   1.570
 5412SOL    HW221967   2.984   6.804   1.555
 5412SOL    HW321968   3.094   6.701   1.570
 5412SOL    MW421969   3.008   6.721   1.567
 5413SOL     OW21970   2.795   6.135   1.771
 5413SOL    HW221971   2.885   6.136   1.738
 5413SOL    HW321972   2.754   6.060   1.729
 5413SOL    MW421973   2.801   6.125   1.762
 5414SOL     OW21974   3.370   6.667   0.898
 5414SOL    HW221975   3.373   6.601   0.829
 5414SOL    HW321976   3.455   6.710   0.894
 5414SOL    MW421977   3.382   6.663   0.889
 5415SOL     OW21978   2.990   6.270   0.467
 5415SOL    HW221979   3.016   6.294   0.378
 5415SOL    HW321980   2.972   6.177   0.463
 5415SOL    MW421981   2.992   6.262   0.454
 5416SOL     OW21982   3.655   6.890   0.318
 5416SOL    HW221983   3.611   6.931   0.393
 5416SOL    HW321984   3.712   6.958   0.283
 5416SOL    MW421985   3.657   6.904   0.323
 5417SOL     OW21986   2.575   5.939   1.721
 5417SOL    HW221987   2.585   5.865   1.661
 5417SOL    HW321988   2.611   5.908   1.804
 5417SOL    MW421989   2.581   5.925   1.723
 5418SOL     OW21990   2.311   7.306   0.636
 5418SOL    HW221991   2.343   7.394   0.614
 5418SOL    HW321992   2.264   7.278   0.558
 5418SOL    MW421993   2.310   7.314   0.623
 5419SOL     OW21994   3.695   5.668   0.685
 5419SOL    HW221995   3.749   5.619   0.747
 5419SOL    HW321996   3.638   5.602   0.646
 5419SOL    MW421997   3.695   5.652   0.687
 5420SOL     OW21998   2.027   7.366   0.213
 5420SOL    HW221999   2.056   7.456   0.205
 5420SOL    HW322000   1.977   7.349   0.134
 5420SOL    MW422001   2.025   7.374   0.202
 5421SOL     OW22002   2.814   5.621   1.098
 5421SOL    HW222003   2.773   5.699   1.060
 5421SOL    HW322004   2.908   5.639   1.093
 5421SOL    MW422005   2.820   5.633   1.093
 5422SOL     OW22006   3.431   7.174   0.184
 5422SOL    HW222007   3.479   7.243   0.230
 5422SOL    HW322008   3.352   7.218   0.153
 5422SOL    MW422009   3.426   7.188   0.187
 5423SOL     OW22010   2.829   6.299   0.128
 5423SOL    HW222011   2.831   6.246   0.049
 5423SOL    HW322012   2.917   6.336   0.134
 5423SOL    MW422013   2.841   6.298   0.117
 5424SOL     OW22014   3.443   6.225   0.464
 5424SOL    HW222015   3.482   6.225   0.551
 5424SOL    HW322016   3.384   6.301   0.464
 5424SOL    MW422017   3.440   6.236   0.475
 5425SOL     OW22018   2.760   6.592   1.593
 5425SOL    HW222019   2.737   6.572   1.683
 5425SOL    HW322020   2.845   6.636   1.598
 5425SOL    MW422021   2.767   6.595   1.605
 5426SOL     OW22022   2.840   5.729   1.353
 5426SOL    HW222023   2.846   5.691   1.266
 5426SOL    HW322024   2.829   5.823   1.338
 5426SOL    MW422025   2.841   5.737   1.341
 5427SOL     OW22026   2.929   6.218   1.187
 5427SOL    HW222027   3.004   6.247   1.134
 5427SOL    HW322028   2.861   6.283   1.171
 5427SOL    MW422029   2.930   6.230   1.177
 5428SOL     OW22030   3.479   6.186   1.464
 5428SOL    HW222031   3.460   6.095   1.443
 5428SOL    HW322032   3.457   6.235   1.385
 5428SOL    MW422033   3.474   6.179   1.451
 5429SOL     OW22034   3.621   7.280   1.368
 5429SOL    HW222035   3.549   7.242   1.419
 5429SOL    HW322036   3.638   7.365   1.409
 5429SOL    MW422037   3.615   7.285   1.380
 5430SOL     OW22038   2.926   5.924   1.570
 5430SOL    HW222039   2.892   5.963   1.489
 5430SOL    HW322040   2.904   5.832   1.563
 5430SOL    MW422041   2.919   5.917   1.560
 5431SOL     OW22042   3.335   6.738   1.646
 5431SOL    HW222043   3.417   6.779   1.676
 5431SOL    HW322044   3.298   6.700   1.726
 5431SOL    MW422045   3.341   6.739   1.661
 5432SOL     OW22046   3.630   6.111   0.630
 5432SOL    HW222047   3.719   6.080   0.647
 5432SOL    HW322048   3.573   6.051   0.678
 5432SOL    MW422049   3.633   6.099   0.639
 5433SOL     OW22050   2.056   5.825   0.659
 5433SOL    HW222051   2.047   5.765   0.585
 5433SOL    HW322052   1.989   5.796   0.722
 5433SOL    MW422053   2.046   5.812   0.657
 5434SOL     OW22054   2.999   6.918   0.220
 5434SOL    HW222055   2.949   6.920   0.302
 5434SOL    HW322056   2.933   6.936   0.152
 5434SOL    MW422057   2.985   6.920   0.222
 5435SOL     OW22058   2.003   5.998   1.022
 5435SOL    HW222059   1.975   6.089   1.031
 5435SOL    HW322060   1.940   5.959   0.961
 5435SOL    MW422061   1.990   6.004   1.016
 5436SOL     OW22062   2.462   7.336   0.328
 5436SOL    HW222063   2.383   7.294   0.361
 5436SOL    HW322064   2.528   7.319   0.395
 5436SOL    MW422065   2.461   7.328   0.341
 5437SOL     OW22066   3.590   6.856   1.725
 5437SOL    HW222067   3.640   6.782   1.757
 5437SOL    HW322068   3.536   6.883   1.800
 5437SOL    MW422069   3.590   6.850   1.738
 5438SOL     OW22070   2.598   6.751   0.035
 5438SOL    HW222071   2.520   6.697   0.022
 5438SOL    HW322072   2.569   6.824   0.088
 5438SOL    MW422073   2.584   6.753   0.040
 5439SOL     OW22074   3.724   6.491   1.227
 5439SOL    HW222075   3.740   6.529   1.140
 5439SOL    HW322076   3.758   6.557   1.288
 5439SOL    MW422077   3.731   6.504   1.223
 5440SOL     OW22078   3.516   7.200   0.896
 5440SOL    HW222079   3.545   7.267   0.957
 5440SOL    HW322080   3.497   7.124   0.951
 5440SOL    MW422081   3.518   7.200   0.911
 5441SOL     OW22082   3.179   7.267   0.103
 5441SOL    HW222083   3.105   7.230   0.153
 5441SOL    HW322084   3.187   7.357   0.136
 5441SOL    MW422085   3.170   7.274   0.115
 5442SOL     OW22086   1.987   6.273   1.192
 5442SOL    HW222087   2.049   6.303   1.258
 5442SOL    HW322088   1.921   6.342   1.186
 5442SOL    MW422089   1.986   6.286   1.199
 5443SOL     OW22090   3.403   6.941   0.045
 5443SOL    HW222091   3.350   6.990  -0.019
 5443SOL    HW322092   3.434   7.007   0.106
 5443SOL    MW422093   3.401   6.955   0.043
 5444SOL     OW22094   2.628   5.830   0.100
 5444SOL    HW222095   2.576   5.750   0.088
 5444SOL    HW322096   2.715   5.807   0.068
 5444SOL    MW422097   2.631   5.816   0.094
 5445SOL     OW22098   2.082   7.382   1.644
 5445SOL    HW222099   2.056   7.450   1.582
 5445SOL    HW322100   2.130   7.319   1.592
 5445SOL    MW422101   2.084   7.382   1.630
 5446SOL     OW22102   2.134   6.701   1.151
 5446SOL    HW222103   2.187   6.776   1.176
 5446SOL    HW322104   2.053   6.739   1.117
 5446SOL    MW422105   2.130   6.716   1.151
 5447SOL     OW22106   2.674   6.605   1.139
 5447SOL    HW222107   2.702   6.514   1.151
 5447SOL    HW322108   2.603   6.599   1.075
 5447SOL    MW422109   2.667   6.593   1.134
 5448SOL     OW22110   1.989   6.470   0.557
 5448SOL    HW222111   2.080   6.485   0.584
 5448SOL    HW322112   1.992   6.391   0.503
 5448SOL    MW422113   2.001   6.462   0.555
 5449SOL     OW22114   2.225   6.178   1.811
 5449SOL    HW222115   2.172   6.258   1.818
 5449SOL    HW322116   2.295   6.190   1.876
 5449SOL    MW422117   2.227   6.191   1.819
 5450SOL     OW22118   2.611   5.728   1.518
 5450SOL    HW222119   2.588   5.636   1.520
 5450SOL    HW322120   2.697   5.730   1.475
 5450SOL    MW422121   2.618   5.718   1.514
 5451SOL     OW22122   2.295   6.252   1.557
 5451SOL    HW222123   2.375   6.302   1.543
 5451SOL    HW322124   2.286   6.246   1.652
 5451SOL    MW422125   2.304   6.258   1.567
 5452SOL     OW22126   2.616   7.402   0.931
 5452SOL    HW222127   2.705   7.417   0.961
 5452SOL    HW322128   2.611   7.449   0.847
 5452SOL    MW422129   2.626   7.410   0.924
 5453SOL     OW22130   3.272   5.777   1.828
 5453SOL    HW222131   3.328   5.704   1.854
 5453SOL    HW322132   3.242   5.815   1.910
 5453SOL    MW422133   3.276   5.772   1.841
 5454SOL     OW22134   1.997   7.082   0.596
 5454SOL    HW222135   1.969   7.121   0.678
 5454SOL    HW322136   2.017   6.991   0.618
 5454SOL    MW422137   1.995   7.074   0.609
 5455SOL     OW22138   2.830   7.125   0.631
 5455SOL    HW222139   2.913   7.079   0.615
 5455SOL    HW322140   2.820   7.124   0.727
 5455SOL    MW422141   2.840   7.118   0.641
 5456SOL     OW22142   3.662   6.270   0.945
 5456SOL    HW222143   3.751   6.300   0.927
 5456SOL    HW322144   3.642   6.210   0.874
 5456SOL    MW422145   3.671   6.267   0.934
 5457SOL     OW22146   3.513   6.449   1.825
 5457SOL    HW222147   3.568   6.373   1.806
 5457SOL    HW322148   3.515   6.457   1.920
 5457SOL    MW422149   3.521   6.440   1.833
 5458SOL     OW22150   2.563   7.182   0.036
 5458SOL    HW222151   2.503   7.251   0.006
 5458SOL    HW322152   2.508   7.124   0.089
 5458SOL    MW422153   2.547   7.184   0.038
 5459SOL     OW22154   3.001   5.827   0.259
 5459SOL    HW222155   2.934   5.803   0.196
 5459SOL    HW322156   3.066   5.876   0.208
 5459SOL    MW422157   3.001   5.829   0.244
 5460SOL     OW22158   2.808   6.011   1.344
 5460SOL    HW222159   2.727   6.052   1.372
 5460SOL    HW322160   2.855   6.079   1.296
 5460SOL    MW422161   2.803   6.026   1.342
 5461SOL     OW22162   3.068   6.349   0.967
 5461SOL    HW222163   3.081   6.443   0.977
 5461SOL    HW322164   3.029   6.339   0.881
 5461SOL    MW422165   3.064   6.360   0.957
 5462SOL     OW22166   2.520   6.544   0.771
 5462SOL    HW222167   2.431   6.535   0.804
 5462SOL    HW322168   2.524   6.634   0.739
 5462SOL    MW422169   2.509   6.555   0.771
 5463SOL     OW22170   3.319   6.127   0.766
 5463SOL    HW222171   3.264   6.048   0.765
 5463SOL    HW322172   3.301   6.168   0.850
 5463SOL    MW422173   3.309   6.122   0.775
 5464SOL     OW22174   2.290   5.814   1.583
 5464SOL    HW222175   2.211   5.832   1.635
 5464SOL    HW322176   2.285   5.876   1.510
 5464SOL    MW422177   2.280   5.824   1.580
 5465SOL     OW22178   2.938   6.331   0.723
 5465SOL    HW222179   2.875   6.263   0.747
 5465SOL    HW322180   2.958   6.312   0.631
 5465SOL    MW422181   2.932   6.318   0.715
 5466SOL     OW22182   2.194   7.226   0.425
 5466SOL    HW222183   2.155   7.273   0.351
 5466SOL    HW322184   2.128   7.161   0.450
 5466SOL    MW422185   2.181   7.224   0.419
 5467SOL     OW22186   2.686   6.635   0.449
 5467SOL    HW222187   2.688   6.609   0.356
 5467SOL    HW322188   2.744   6.572   0.492
 5467SOL    MW422189   2.694   6.624   0.443
 5468SOL     OW22190   3.239   7.195   1.221
 5468SOL    HW222191   3.164   7.241   1.259
 5468SOL    HW322192   3.221   7.102   1.238
 5468SOL    MW422193   3.228   7.189   1.229
 5469SOL     OW22194   3.243   7.403   0.651
 5469SOL    HW222195   3.186   7.356   0.590
 5469SOL    HW322196   3.329   7.364   0.638
 5469SOL    MW422197   3.246   7.394   0.641
 5470SOL     OW22198   3.196   5.879   0.782
 5470SOL    HW222199   3.224   5.811   0.843
 5470SOL    HW322200   3.110   5.850   0.752
 5470SOL    MW422201   3.189   5.866   0.786
 5471SOL     OW22202   2.001   6.813   0.716
 5471SOL    HW222203   2.065   6.845   0.779
 5471SOL    HW322204   2.050   6.749   0.664
 5471SOL    MW422205   2.016   6.809   0.717
 5472SOL     OW22206   2.501   6.889   1.698
 5472SOL    HW222207   2.549   6.972   1.685
 5472SOL    HW322208   2.558   6.837   1.754
 5472SOL    MW422209   2.515   6.893   1.704
 5473SOL     OW22210   2.077   7.131   1.838
 5473SOL    HW222211   2.133   7.055   1.853
 5473SOL    HW322212   2.026   7.109   1.760
 5473SOL    MW422213   2.077   7.118   1.829
 5474SOL     OW22214   3.176   5.983   0.117
 5474SOL    HW222215   3.149   6.049   0.053
 5474SOL    HW322216   3.246   6.026   0.167
 5474SOL    MW422217   3.181   5.996   0.114
 5475SOL     OW22218   2.844   5.688   0.054
 5475SOL    HW222219   2.900   5.680  -0.024
 5475SOL    HW322220   2.821   5.598   0.076
 5475SOL    MW422221   2.849   5.675   0.047
 5476SOL     OW22222   3.349   6.539   0.259
 5476SOL    HW222223   3.316   6.628   0.249
 5476SOL    HW322224   3.314   6.510   0.344
 5476SOL    MW422225   3.339   6.548   0.270
 5477SOL     OW22226   2.962   6.968   1.447
 5477SOL    HW222227   2.873   6.974   1.415
 5477SOL    HW322228   3.006   7.047   1.415
 5477SOL    MW422229   2.957   6.978   1.439
 5478SOL     OW22230   2.255   5.636   1.789
 5478SOL    HW222231   2.183   5.601   1.737
 5478SOL    HW322232   2.313   5.677   1.724
 5478SOL    MW422233   2.253   5.637   1.774
 5479SOL     OW22234   2.279   7.126   1.088
 5479SOL    HW222235   2.324   7.188   1.145
 5479SOL    HW322236   2.186   7.145   1.101
 5479SOL    MW422237   2.272   7.136   1.095
 5480SOL     OW22238   3.719   6.655   1.442
 5480SOL    HW222239   3.634   6.668   1.401
 5480SOL    HW322240   3.699   6.619   1.529
 5480SOL    MW422241   3.706   6.651   1.447
 5481SOL     OW22242   2.701   7.194   1.196
 5481SOL    HW222243   2.725   7.183   1.105
 5481SOL    HW322244   2.624   7.251   1.194
 5481SOL    MW422245   2.693   7.199   1.185
 5482SOL     OW22246   2.343   6.577   0.051
 5482SOL    HW222247   2.266   6.590   0.107
 5482SOL    HW322248   2.307   6.541  -0.030
 5482SOL    MW422249   2.329   6.573   0.048
 5483SOL     OW22250   2.996   6.550   0.294
 5483SOL    HW222251   2.906   6.571   0.269
 5483SOL    HW322252   3.023   6.623   0.350
 5483SOL    MW422253   2.988   6.562   0.297
 5484SOL     OW22254   2.496   6.899   0.986
 5484SOL    HW222255   2.489   6.878   1.080
 5484SOL    HW322256   2.414   6.867   0.949
 5484SOL    MW422257   2.484   6.893   0.993
 5485SOL     OW22258   3.360   5.909   1.388
 5485SOL    HW222259   3.307   5.911   1.468
 5485SOL    HW322260   3.345   5.822   1.351
 5485SOL    MW422261   3.352   5.899   1.393
 5486SOL     OW22262   3.696   5.833   1.261
 5486SOL    HW222263   3.677   5.900   1.196
 5486SOL    HW322264   3.753   5.771   1.216
 5486SOL    MW422265   3.700   5.834   1.247
 5487SOL     OW22266   1.942   6.991   1.649
 5487SOL    HW222267   1.986   6.924   1.595
 5487SOL    HW322268   1.857   6.953   1.669
 5487SOL    MW422269   1.937   6.977   1.645
 5488SOL     OW22270   2.625   5.666   0.701
 5488SOL    HW222271   2.554   5.727   0.683
 5488SOL    HW322272   2.676   5.663   0.620
 5488SOL    MW422273   2.621   5.672   0.688
 5489SOL     OW22274   2.383   6.906   0.450
 5489SOL    HW222275   2.376   6.938   0.540
 5489SOL    HW322276   2.293   6.890   0.422
 5489SOL    MW422277   2.371   6.908   0.457
 5490SOL     OW22278   2.978   7.299   1.359
 5490SOL    HW222279   2.898   7.284   1.309
 5490SOL    HW322280   2.985   7.394   1.366
 5490SOL    MW422281   2.969   7.310   1.353
 5491SOL     OW22282   3.092   7.264   0.849
 5491SOL    HW222283   3.139   7.337   0.808
 5491SOL    HW322284   3.013   7.303   0.885
 5491SOL    MW422285   3.087   7.279   0.848
 5492SOL     OW22286   3.500   7.359   1.124
 5492SOL    HW222287   3.543   7.329   1.204
 5492SOL    HW322288   3.419   7.307   1.121
 5492SOL    MW422289   3.495   7.348   1.134
 5493SOL     OW22290   2.585   6.323   1.831
 5493SOL    HW222291   2.655   6.265   1.803
 5493SOL    HW322292   2.528   6.268   1.886
 5493SOL    MW422293   2.587   6.310   1.835
 5494SOL     OW22294   3.372   6.535   1.464
 5494SOL    HW222295   3.377   6.588   1.544
 5494SOL    HW322296   3.334   6.452   1.492
 5494SOL    MW422297   3.368   6.530   1.479
 5495SOL     OW22298   3.012   5.670   1.710
 5495SOL    HW222299   3.007   5.577   1.691
 5495SOL    HW322300   3.095   5.681   1.756
 5495SOL    MW422301   3.020   5.659   1.714
 5496SOL     OW22302   2.386   6.190   0.164
 5496SOL    HW222303   2.352   6.246   0.234
 5496SOL    HW322304   2.457   6.140   0.204
 5496SOL    MW422305   2.392   6.191   0.178
 5497SOL     OW22306   3.482   6.941   0.986
 5497SOL    HW222307   3.517   6.923   0.899
 5497SOL    HW322308   3.387   6.942   0.973
 5497SOL    MW422309   3.474   6.938   0.973
 5498SOL     OW22310   2.911   6.589   1.355
 5498SOL    HW222311   2.954   6.624   1.433
 5498SOL    HW322312   2.894   6.666   1.301
 5498SOL    MW422313   2.914   6.604   1.358
 5499SOL     OW22314   3.442   6.076   0.228
 5499SOL    HW222315   3.434   6.147   0.165
 5499SOL    HW322316   3.460   6.120   0.311
 5499SOL    MW422317   3.443   6.090   0.230
 5500SOL     OW22318   2.302   5.731   0.657
 5500SOL    HW222319   2.352   5.774   0.588
 5500SOL    HW322320   2.217   5.775   0.657
 5500SOL    MW422321   2.299   5.744   0.648
 5501SOL     OW22322   2.061   6.793   1.517
 5501SOL    HW222323   2.089   6.746   1.595
 5501SOL    HW322324   1.982   6.748   1.488
 5501SOL    MW422325   2.054   6.782   1.523
 5502SOL     OW22326   2.569   6.120   1.484
 5502SOL    HW222327   2.541   6.208   1.508
 5502SOL    HW322328   2.538   6.064   1.555
 5502SOL    MW422329   2.561   6.123   1.496
 5503SOL     OW22330   3.111   6.338   0.203
 5503SOL    HW222331   3.158   6.356   0.122
 5503SOL    HW322332   3.077   6.422   0.231
 5503SOL    MW422333   3.113   6.352   0.196
 5504SOL     OW22334   2.224   6.516   0.697
 5504SOL    HW222335   2.282   6.572   0.645
 5504SOL    HW322336   2.268   6.431   0.699
 5504SOL    MW422337   2.237   6.513   0.690
 5505SOL     OW22338   3.364   5.868   0.534
 5505SOL    HW222339   3.286   5.818   0.559
 5505SOL    HW322340   3.335   5.959   0.534
 5505SOL    MW422341   3.350   5.872   0.537
 5506SOL     OW22342   2.950   5.830   0.693
 5506SOL    HW222343   2.970   5.905   0.637
 5506SOL    HW322344   2.930   5.869   0.778
 5506SOL    MW422345   2.951   5.846   0.697
 5507SOL     OW22346   2.846   7.080   0.025
 5507SOL    HW222347   2.873   7.158  -0.023
 5507SOL    HW322348   2.753   7.095   0.044
 5507SOL    MW422349   2.837   7.093   0.021
 5508SOL     OW22350   3.710   6.603   1.712
 5508SOL    HW222351   3.623   6.583   1.748
 5508SOL    HW322352   3.764   6.529   1.737
 5508SOL    MW422353   3.705   6.592   1.720
 5509SOL     OW22354   1.931   7.116   0.869
 5509SOL    HW222355   1.963   7.120   0.960
 5509SOL    HW322356   1.836   7.124   0.877
 5509SOL    MW422357   1.923   7.119   0.882
 5510SOL     OW22358   1.886   6.242   0.416
 5510SOL    HW222359   1.826   6.214   0.486
 5510SOL    HW322360   1.960   6.182   0.422
 5510SOL    MW422361   1.888   6.231   0.425
 5511SOL     OW22362   3.054   6.973   0.576
 5511SOL    HW222363   3.077   6.924   0.654
 5511SOL    HW322364   3.135   7.015   0.548
 5511SOL    MW422365   3.067   6.973   0.583
 5512SOL     OW22366   2.312   5.981   1.305
 5512SOL    HW222367   2.345   6.062   1.345
 5512SOL    HW322368   2.285   6.007   1.217
 5512SOL    MW422369   2.311   5.995   1.299
 5513SOL     OW22370   2.266   5.948   1.041
 5513SOL    HW222371   2.296   5.862   1.012
 5513SOL    HW322372   2.171   5.941   1.044
 5513SOL    MW422373   2.258   5.937   1.039
 5514SOL     OW22374   3.095   6.157   1.732
 5514SOL    HW222375   3.147   6.092   1.685
 5514SOL    HW322376   3.053   6.208   1.662
 5514SOL    MW422377   3.096   6.154   1.715
 5515SOL     OW22378   3.194   5.952   1.593
 5515SOL    HW222379   3.101   5.936   1.580
 5515SOL    HW322380   3.220   5.890   1.661
 5515SOL    MW422381   3.184   5.942   1.600
 5516SOL     OW22382   2.409   5.726   0.932
 5516SOL    HW222383   2.419   5.635   0.958
 5516SOL    HW322384   2.365   5.722   0.847
 5516SOL    MW422385   2.405   5.714   0.924
 5517SOL     OW22386   2.503   7.341   1.478
 5517SOL    HW222387   2.420   7.326   1.523
 5517SOL    HW322388   2.562   7.274   1.513
 5517SOL    MW422389   2.501   7.331   1.488
 5518SOL     OW22390   3.560   6.048   1.103
 5518SOL    HW222391   3.493   6.081   1.163
 5518SOL    HW322392   3.603   6.126   1.069
 5518SOL    MW422393   3.558   6.063   1.107
 5519SOL     OW22394   3.738   6.768   1.073
 5519SOL    HW222395   3.731   6.708   0.998
 5519SOL    HW322396   3.664   6.828   1.062
 5519SOL    MW422397   3.728   6.768   1.062
 5520SOL     OW22398   3.120   6.630   0.991
 5520SOL    HW222399   3.134   6.602   1.082
 5520SOL    HW322400   3.206   6.661   0.963
 5520SOL    MW422401   3.133   6.631   1.000
 5521SOL     OW22402   3.203   6.125   1.270
 5521SOL    HW222403   3.224   6.126   1.177
 5521SOL    HW322404   3.248   6.047   1.303
 5521SOL    MW422405   3.210   6.115   1.262
 5522SOL     OW22406   3.696   6.256   1.812
 5522SOL    HW222407   3.733   6.201   1.881
 5522SOL    HW322408   3.721   6.213   1.730
 5522SOL    MW422409   3.703   6.244   1.811
 5523SOL     OW22410   3.243   6.554   1.863
 5523SOL    HW222411   3.309   6.502   1.817
 5523SOL    HW322412   3.263   6.541   1.956
 5523SOL    MW422413   3.254   6.545   1.870
 5524SOL     OW22414   3.194   5.640   0.212
 5524SOL    HW222415   3.268   5.684   0.255
 5524SOL    HW322416   3.118   5.694   0.234
 5524SOL    MW422417   3.194   5.652   0.220
 5525SOL     OW22418   3.254   6.415   0.490
 5525SOL    HW222419   3.169   6.385   0.460
 5525SOL    HW322420   3.246   6.422   0.585
 5525SOL    MW422421   3.242   6.413   0.499
 5526SOL     OW22422   2.330   6.878   1.221
 5526SOL    HW222423   2.342   6.905   1.312
 5526SOL    HW322424   2.311   6.959   1.174
 5526SOL    MW422425   2.329   6.893   1.226
 5527SOL     OW22426   2.614   5.858   1.044
 5527SOL    HW222427   2.587   5.860   1.135
 5527SOL    HW322428   2.544   5.810   0.999
 5527SOL    MW422429   2.602   5.854   1.051
 5528SOL     OW22430   2.468   7.350   1.206
 5528SOL    HW222431   2.520   7.427   1.183
 5528SOL    HW322432   2.477   7.342   1.301
 5528SOL    MW422433   2.477   7.357   1.217
 5529SOL     OW22434   3.370   6.935   1.438
 5529SOL    HW222435   3.355   6.864   1.501
 5529SOL    HW322436   3.416   6.893   1.366
 5529SOL    MW422437   3.376   6.919   1.438
 5530SOL     OW22438   2.444   6.666   1.555
 5530SOL    HW222439   2.481   6.671   1.467
 5530SOL    HW322440   2.483   6.739   1.602
 5530SOL    MW422441   2.454   6.676   1.550
 5531SOL     OW22442   2.624   6.709   1.367
 5531SOL    HW222443   2.683   6.655   1.420
 5531SOL    HW322444   2.639   6.681   1.277
 5531SOL    MW422445   2.634   6.698   1.363
 5532SOL     OW22446   2.627   6.081   0.216
 5532SOL    HW222447   2.700   6.130   0.179
 5532SOL    HW322448   2.643   5.990   0.190
 5532SOL    MW422449   2.639   6.076   0.209
 5533SOL     OW22450   3.435   7.198   1.539
 5533SOL    HW222451   3.477   7.183   1.624
 5533SOL    HW322452   3.426   7.111   1.501
 5533SOL    MW422453   3.439   7.186   1.546
 5534SOL     OW22454   3.095   5.677   1.130
 5534SOL    HW222455   3.150   5.686   1.052
 5534SOL    HW322456   3.150   5.711   1.201
 5534SOL    MW422457   3.109   5.682   1.129
 5535SOL     OW22458   2.102   6.590   0.314
 5535SOL    HW222459   2.039   6.606   0.243
 5535SOL    HW322460   2.049   6.553   0.385
 5535SOL    MW422461   2.087   6.587   0.314
 5536SOL     OW22462   2.458   6.944   0.173
 5536SOL    HW222463   2.473   6.920   0.265
 5536SOL    HW322464   2.366   6.922   0.157
 5536SOL    MW422465   2.448   6.937   0.183
 5537SOL     OW22466   2.997   7.175   0.325
 5537SOL    HW222467   3.005   7.093   0.276
 5537SOL    HW322468   2.916   7.214   0.292
 5537SOL    MW422469   2.987   7.170   0.315
 5538SOL     OW22470   2.256   7.333   0.894
 5538SOL    HW222471   2.260   7.244   0.929
 5538SOL    HW322472   2.282   7.324   0.803
 5538SOL    MW422473   2.259   7.321   0.886
 5539SOL     OW22474   2.873   6.811   1.137
 5539SOL    HW222475   2.805   6.745   1.153
 5539SOL    HW322476   2.891   6.805   1.044
 5539SOL    MW422477   2.866   6.802   1.128
 5540SOL     OW22478   1.962   7.086   1.388
 5540SOL    HW222479   1.952   7.044   1.474
 5540SOL    HW322480   1.883   7.139   1.378
 5540SOL    MW422481   1.951   7.087   1.399
 5541SOL     OW22482   2.866   5.950   0.958
 5541SOL    HW222483   2.796   5.902   1.003
 5541SOL    HW322484   2.898   6.013   1.022
 5541SOL    MW422485   2.861   5.952   0.972
 5542SOL     OW22486   2.517   6.386   1.578
 5542SOL    HW222487   2.510   6.481   1.566
 5542SOL    HW322488   2.526   6.375   1.673
 5542SOL    MW422489   2.518   6.398   1.588
 5543SOL     OW22490   2.238   6.901   1.836
 5543SOL    HW222491   2.310   6.903   1.773
 5543SOL    HW322492   2.208   6.810   1.835
 5543SOL    MW422493   2.243   6.890   1.828
 5544SOL     OW22494   3.322   5.664   1.303
 5544SOL    HW222495   3.393   5.610   1.267
 5544SOL    HW322496   3.321   5.643   1.396
 5544SOL    MW422497   3.331   5.655   1.311
 5545SOL     OW22498   3.522   7.194   1.787
 5545SOL    HW222499   3.495   7.191   1.878
 5545SOL    HW322500   3.618   7.198   1.790
 5545SOL    MW422501   3.532   7.194   1.799
 5546SOL     OW22502   2.333   6.056   0.771
 5546SOL    HW222503   2.404   6.004   0.734
 5546SOL    HW322504   2.319   6.021   0.858
 5546SOL    MW422505   2.341   6.045   0.778
 5547SOL     OW22506   1.888   7.391   1.843
 5547SOL    HW222507   1.938   7.369   1.765
 5547SOL    HW322508   1.896   7.486   1.851
 5547SOL    MW422509   1.896   7.400   1.834
 5548SOL     OW22510   2.649   7.149   0.847
 5548SOL    HW222511   2.577   7.086   0.860
 5548SOL    HW322512   2.610   7.234   0.865
 5548SOL    MW422513   2.633   7.152   0.850
 5549SOL     OW22514   2.969   5.997   0.495
 5549SOL    HW222515   2.991   5.934   0.427
 5549SOL    HW322516   2.874   5.989   0.506
 5549SOL    MW422517   2.959   5.988   0.487
 5550SOL     OW22518   2.054   5.687   0.427
 5550SOL    HW222519   2.125   5.708   0.366
 5550SOL    HW322520   2.008   5.615   0.385
 5550SOL    MW422521   2.058   5.681   0.413
 5551SOL     OW22522   1.885   6.154   1.570
 5551SOL    HW222523   1.949   6.220   1.545
 5551SOL    HW322524   1.804   6.181   1.527
 5551SOL    MW422525   1.883   6.166   1.562
 5552SOL     OW22526   3.623   7.061   0.527
 5552SOL    HW222527   3.593   6.994   0.588
 5552SOL    HW322528   3.717   7.067   0.541
 5552SOL    MW422529   3.631   7.053   0.537
 5553SOL     OW22530   3.179   6.738   0.457
 5553SOL    HW222531   3.151   6.824   0.490
 5553SOL    HW322532   3.207   6.754   0.367
 5553SOL    MW422533   3.179   6.752   0.449
 5554SOL     OW22534   2.841   5.658   0.510
 5554SOL    HW222535   2.878   5.717   0.575
 5554SOL    HW322536   2.818   5.714   0.436
 5554SOL    MW422537   2.842   5.673   0.509
 5555SOL     OW22538   3.694   6.540   0.932
 5555SOL    HW222539   3.685   6.572   0.843
 5555SOL    HW322540   3.647   6.456   0.932
 5555SOL    MW422541   3.687   6.533   0.922
 5556SOL     OW22542   2.070   6.380   1.511
 5556SOL    HW222543   2.091   6.449   1.449
 5556SOL    HW322544   2.150   6.327   1.516
 5556SOL    MW422545   2.083   6.381   1.505
 5557SOL     OW22546   3.606   6.471   0.633
 5557SOL    HW222547   3.700   6.460   0.621
 5557SOL    HW322548   3.582   6.543   0.574
 5557SOL    MW422549   3.616   6.479   0.624
 5558SOL     OW22550   2.221   5.682   1.228
 5558SOL    HW222551   2.264   5.766   1.248
 5558SOL    HW322552   2.294   5.620   1.221
 5558SOL    MW422553   2.236   5.685   1.229
 5559SOL     OW22554   2.262   6.349   0.406
 5559SOL    HW222555   2.262   6.444   0.391
 5559SOL    HW322556   2.339   6.333   0.460
 5559SOL    MW422557   2.272   6.360   0.411
 5560SOL     OW22558   3.038   6.208   1.470
 5560SOL    HW222559   3.074   6.181   1.386
 5560SOL    HW322560   2.951   6.242   1.449
 5560SOL    MW422561   3.032   6.209   1.457
 5561SOL     OW22562   2.021   6.080   0.695
 5561SOL    HW222563   2.083   6.087   0.768
 5561SOL    HW322564   2.021   5.987   0.672
 5561SOL    MW422565   2.029   6.069   0.702
 5562SOL     OW22566   2.703   6.341   1.179
 5562SOL    HW222567   2.661   6.259   1.155
 5562SOL    HW322568   2.704   6.340   1.275
 5562SOL    MW422569   2.696   6.330   1.188
 5563SOL     OW22570   2.507   5.811   1.284
 5563SOL    HW222571   2.438   5.874   1.305
 5563SOL    HW322572   2.534   5.775   1.369
 5563SOL    MW422573   2.501   5.814   1.297
 5564SOL     OW22574   1.890   6.652   0.153
 5564SOL    HW222575   1.859   6.717   0.216
 5564SOL    HW322576   1.839   6.574   0.172
 5564SOL    MW422577   1.880   6.649   0.163
 5565SOL     OW22578   3.302   5.664   0.901
 5565SOL    HW222579   3.390   5.673   0.938
 5565SOL    HW322580   3.312   5.605   0.827
 5565SOL    MW422581   3.316   5.658   0.895
 5566SOL     OW22582   3.334   6.403   0.745
 5566SOL    HW222583   3.414   6.418   0.694
 5566SOL    HW322584   3.327   6.308   0.751
 5566SOL    MW422585   3.343   6.392   0.740
 5567SOL     OW22586   2.474   7.452   0.095
 5567SOL    HW222587   2.379   7.452   0.087
 5567SOL    HW322588   2.490   7.398   0.173
 5567SOL    MW422589   2.464   7.446   0.104
 5568SOL     OW22590   2.784   6.329   1.442
 5568SOL    HW222591   2.853   6.396   1.439
 5568SOL    HW322592   2.717   6.367   1.498
 5568SOL    MW422593   2.785   6.342   1.449
 5569SOL     OW22594   2.202   6.629   1.690
 5569SOL    HW222595   2.156   6.545   1.692
 5569SOL    HW322596   2.259   6.623   1.614
 5569SOL    MW422597   2.204   6.617   1.682
 5570SOL     OW22598   3.319   6.272   0.011
 5570SOL    HW222599   3.247   6.248  -0.047
 5570SOL    HW322600   3.385   6.309  -0.047
 5570SOL    MW422601   3.318   6.274  -0.004
 5571SOL     OW22602   2.453   7.004   0.691
 5571SOL    HW222603   2.518   6.937   0.712
 5571SOL    HW322604   2.505   7.081   0.668
 5571SOL    MW422605   2.468   7.006   0.690
 5572SOL     OW22606   2.714   6.169   0.821
 5572SOL    HW222607   2.654   6.187   0.893
 5572SOL    HW322608   2.748   6.081   0.840
 5572SOL    MW422609   2.710   6.159   0.834
 5573SOL     OW22610   3.655   5.668   1.490
 5573SOL    HW222611   3.576   5.714   1.518
 5573SOL    HW322612   3.690   5.722   1.419
 5573SOL    MW422613   3.649   5.681   1.484
 5574SOL     OW22614   2.939   6.752   0.840
 5574SOL    HW222615   3.031   6.733   0.858
 5574SOL    HW322616   2.912   6.682   0.780
 5574SOL    MW422617   2.947   6.740   0.834
 5575SOL     OW22618   2.732   6.572   0.195
 5575SOL    HW222619   2.718   6.484   0.160
 5575SOL    HW322620   2.683   6.629   0.136
 5575SOL    MW422621   2.724   6.567   0.183
 5576SOL     OW22622   3.213   6.990   0.936
 5576SOL    HW222623   3.186   7.074   0.901
 5576SOL    HW322624   3.173   6.985   1.023
 5576SOL    MW422625   3.206   6.999   0.942
 5577SOL     OW22626   3.132   6.938   1.204
 5577SOL    HW222627   3.143   6.905   1.293
 5577SOL    HW322628   3.051   6.897   1.173
 5577SOL    MW422629   3.122   6.930   1.210
 5578SOL     OW22630   2.145   6.296   0.974
 5578SOL    HW222631   2.095   6.295   1.055
 5578SOL    HW322632   2.165   6.388   0.958
 5578SOL    MW422633   2.141   6.308   0.982
 5579SOL     OW22634   3.212   7.060   1.736
 5579SOL    HW222635   3.212   7.154   1.752
 5579SOL    HW322636   3.257   7.050   1.652
 5579SOL    MW422637   3.218   7.070   1.727
 5580SOL     OW22638   3.451   5.778   0.297
 5580SOL    HW222639   3.444   5.782   0.392
 5580SOL    HW322640   3.463   5.869   0.270
 5580SOL    MW422641   3.452   5.791   0.305
 5581SOL     OW22642   2.740   6.341   0.411
 5581SOL    HW222643   2.720   6.327   0.318
 5581SOL    HW322644   2.833   6.320   0.418
 5581SOL    MW422645   2.750   6.336   0.400
 5582SOL     OW22646   2.067   5.964   1.715
 5582SOL    HW222647   2.024   6.023   1.652
 5582SOL    HW322648   2.135   6.019   1.755
 5582SOL    MW422649   2.071   5.979   1.712
 5583SOL     OW22650   3.179   6.584   1.260
 5583SOL    HW222651   3.242   6.581   1.333
 5583SOL    HW322652   3.095   6.602   1.302
 5583SOL    MW422653   3.175   6.586   1.275
 5584SOL     OW22654   2.723   7.299   0.449
 5584SOL    HW222655   2.781   7.370   0.476
 5584SOL    HW322656   2.746   7.227   0.507
 5584SOL    MW422657   2.734   7.299   0.460
 5585SOL     OW22658   3.518   5.761   1.039
 5585SOL    HW222659   3.563   5.679   1.058
 5585SOL    HW322660   3.538   5.817   1.115
 5585SOL    MW422661   3.528   5.757   1.051
 5586SOL     OW22662   1.966   5.604   1.138
 5586SOL    HW222663   1.957   5.605   1.043
 5586SOL    HW322664   2.060   5.616   1.153
 5586SOL    MW422665   1.978   5.607   1.129
 5587SOL     OW22666   3.603   6.797   0.758
 5587SOL    HW222667   3.582   6.743   0.681
 5587SOL    HW322668   3.699   6.795   0.762
 5587SOL    MW422669   3.612   6.790   0.747
 5588SOL     OW22670   2.295   6.942   1.501
 5588SOL    HW222671   2.216   6.892   1.524
 5588SOL    HW322672   2.365   6.901   1.551
 5588SOL    MW422673   2.293   6.930   1.511
 5589SOL     OW22674   2.179   5.731   0.184
 5589SOL    HW222675   2.108   5.786   0.152
 5589SOL    HW322676   2.221   5.697   0.105
 5589SOL    MW422677   2.175   5.733   0.170
 5590SOL     OW22678   3.303   6.228   1.020
 5590SOL    HW222679   3.226   6.274   0.986
 5590SOL    HW322680   3.360   6.297   1.054
 5590SOL    MW422681   3.300   6.243   1.020
 5591SOL     OW22682   1.935   5.830   0.033
 5591SOL    HW222683   1.902   5.909   0.077
 5591SOL    HW322684   1.990   5.863  -0.038
 5591SOL    MW422685   1.938   5.844   0.030
 5592SOL     OW22686   1.969   7.087   0.222
 5592SOL    HW222687   1.986   7.171   0.264
 5592SOL    HW322688   2.004   7.096   0.134
 5592SOL    MW422689   1.974   7.100   0.216
 5593SOL     OW22690   3.241   7.176   0.439
 5593SOL    HW222691   3.304   7.166   0.368
 5593SOL    HW322692   3.158   7.196   0.394
 5593SOL    MW422693   3.238   7.177   0.424
 5594SOL     OW22694   3.604   6.444   2.125
 5594SOL    HW222695   3.645   6.386   2.190
 5594SOL    HW322696   3.511   6.436   2.142
 5594SOL    MW422697   3.598   6.436   2.135
 5595SOL     OW22698   3.470   6.376   3.120
 5595SOL    HW222699   3.425   6.443   3.171
 5595SOL    HW322700   3.558   6.412   3.106
 5595SOL    MW422701   3.476   6.389   3.124
 5596SOL     OW22702   2.398   6.627   2.354
 5596SOL    HW222703   2.488   6.602   2.338
 5596SOL    HW322704   2.394   6.720   2.331
 5596SOL    MW422705   2.410   6.636   2.349
 5597SOL     OW22706   3.514   7.330   2.496
 5597SOL    HW222707   3.526   7.276   2.574
 5597SOL    HW322708   3.551   7.278   2.425
 5597SOL    MW422709   3.520   7.315   2.497
 5598SOL     OW22710   2.893   7.215   3.497
 5598SOL    HW222711   2.934   7.251   3.418
 5598SOL    HW322712   2.928   7.126   3.504
 5598SOL    MW422713   2.904   7.208   3.488
 5599SOL     OW22714   3.450   6.770   3.101
 5599SOL    HW222715   3.371   6.735   3.059
 5599SOL    HW322716   3.477   6.842   3.045
 5599SOL    MW422717   3.443   6.775   3.088
 5600SOL     OW22718   2.682   6.083   2.367
 5600SOL    HW222719   2.657   6.171   2.395
 5600SOL    HW322720   2.679   6.086   2.271
 5600SOL    MW422721   2.678   6.095   2.359
 5601SOL     OW22722   2.124   6.111   2.295
 5601SOL    HW222723   2.156   6.199   2.277
 5601SOL    HW322724   2.112   6.109   2.390
 5601SOL    MW422725   2.127   6.123   2.307
 5602SOL     OW22726   2.202   6.524   3.196
 5602SOL    HW222727   2.265   6.471   3.147
 5602SOL    HW322728   2.183   6.598   3.139
 5602SOL    MW422729   2.208   6.526   3.183
 5603SOL     OW22730   2.523   5.866   2.382
 5603SOL    HW222731   2.581   5.942   2.384
 5603SOL    HW322732   2.458   5.887   2.315
 5603SOL    MW422733   2.522   5.878   2.373
 5604SOL     OW22734   2.610   6.793   2.557
 5604SOL    HW222735   2.690   6.796   2.609
 5604SOL    HW322736   2.638   6.760   2.471
 5604SOL    MW422737   2.624   6.789   2.552
 5605SOL     OW22738   2.635   7.134   3.460
 5605SOL    HW222739   2.719   7.160   3.499
 5605SOL    HW322740   2.659   7.078   3.386
 5605SOL    MW422741   2.649   7.130   3.455
 5606SOL     OW22742   2.387   6.297   2.548
 5606SOL    HW222743   2.372   6.217   2.599
 5606SOL    HW322744   2.469   6.332   2.582
 5606SOL    MW422745   2.395   6.289   2.560
 5607SOL     OW22746   2.724   6.983   3.233
 5607SOL    HW222747   2.688   7.049   3.173
 5607SOL    HW322748   2.652   6.921   3.246
 5607SOL    MW422749   2.710   6.983   3.227
 5608SOL     OW22750   2.529   6.123   2.925
 5608SOL    HW222751   2.435   6.119   2.943
 5608SOL    HW322752   2.559   6.032   2.934
 5608SOL    MW422753   2.520   6.111   2.928
 5609SOL     OW22754   2.275   6.537   2.829
 5609SOL    HW222755   2.230   6.544   2.745
 5609SOL    HW322756   2.255   6.620   2.873
 5609SOL    MW422757   2.267   6.549   2.823
 5610SOL     OW22758   1.972   7.383   2.704
 5610SOL    HW222759   2.061   7.375   2.739
 5610SOL    HW322760   1.936   7.295   2.709
 5610SOL    MW422761   1.979   7.370   2.709
 5611SOL     OW22762   3.237   6.775   2.073
 5611SOL    HW222763   3.155   6.811   2.039
 5611SOL    HW322764   3.305   6.818   2.022
 5611SOL    MW422765   3.235   6.785   2.061
 5612SOL     OW22766   2.236   6.910   2.739
 5612SOL    HW222767   2.212   6.963   2.815
 5612SOL    HW322768   2.292   6.968   2.687
 5612SOL    MW422769   2.240   6.925   2.742
 5613SOL     OW22770   2.798   6.554   2.549
 5613SOL    HW222771   2.712   6.541   2.589
 5613SOL    HW322772   2.851   6.481   2.581
 5613SOL    MW422773   2.794   6.543   2.558
 5614SOL     OW22774   2.206   7.206   3.334
 5614SOL    HW222775   2.114   7.182   3.319
 5614SOL    HW322776   2.250   7.123   3.351
 5614SOL    MW422777   2.200   7.191   3.333
 5615SOL     OW22778   2.789   6.916   2.266
 5615SOL    HW222779   2.766   6.978   2.334
 5615SOL    HW322780   2.746   6.834   2.292
 5615SOL    MW422781   2.781   6.912   2.277
 5616SOL     OW22782   2.286   5.889   2.234
 5616SOL    HW222783   2.260   5.851   2.150
 5616SOL    HW322784   2.223   5.959   2.250
 5616SOL    MW422785   2.275   5.892   2.225
 5617SOL     OW22786   2.121   6.850   2.271
 5617SOL    HW222787   2.069   6.918   2.227
 5617SOL    HW322788   2.118   6.776   2.211
 5617SOL    MW422789   2.113   6.849   2.258
 5618SOL     OW22790   2.783   7.313   2.049
 5618SOL    HW222791   2.738   7.329   2.132
 5618SOL    HW322792   2.714   7.278   1.991
 5618SOL    MW422793   2.769   7.310   2.051
 5619SOL     OW22794   3.718   6.086   2.024
 5619SOL    HW222795   3.627   6.088   2.052
 5619SOL    HW322796   3.763   6.148   2.082
 5619SOL    MW422797   3.711   6.094   2.034
 5620SOL     OW22798   3.463   6.689   2.374
 5620SOL    HW222799   3.373   6.689   2.409
 5620SOL    HW322800   3.456   6.735   2.291
 5620SOL    MW422801   3.450   6.695   2.368
 5621SOL     OW22802   3.263   6.324   3.446
 5621SOL    HW222803   3.332   6.262   3.423
 5621SOL    HW322804   3.188   6.298   3.393
 5621SOL    MW422805   3.263   6.311   3.437
 5622SOL     OW22806   2.004   7.204   2.998
 5622SOL    HW222807   1.987   7.150   3.075
 5622SOL    HW322808   1.992   7.294   3.028
 5622SOL    MW422809   2.001   7.208   3.012
 5623SOL     OW22810   2.999   6.711   3.438
 5623SOL    HW222811   2.984   6.804   3.423
 5623SOL    HW322812   3.094   6.701   3.438
 5623SOL    MW422813   3.008   6.721   3.435
 5624SOL     OW22814   2.795   6.135   3.639
 5624SOL    HW222815   2.885   6.136   3.606
 5624SOL    HW322816   2.754   6.060   3.597
 5624SOL    MW422817   2.801   6.125   3.630
 5625SOL     OW22818   3.370   6.667   2.766
 5625SOL    HW222819   3.373   6.601   2.697
 5625SOL    HW322820   3.455   6.710   2.762
 5625SOL    MW422821   3.382   6.663   2.757
 5626SOL     OW22822   2.990   6.270   2.335
 5626SOL    HW222823   3.016   6.294   2.246
 5626SOL    HW322824   2.972   6.177   2.331
 5626SOL    MW422825   2.992   6.262   2.322
 5627SOL     OW22826   3.655   6.890   2.186
 5627SOL    HW222827   3.611   6.931   2.261
 5627SOL    HW322828   3.712   6.958   2.151
 5627SOL    MW422829   3.657   6.904   2.191
 5628SOL     OW22830   2.575   5.939   3.589
 5628SOL    HW222831   2.585   5.865   3.529
 5628SOL    HW322832   2.611   5.908   3.672
 5628SOL    MW422833   2.581   5.925   3.591
 5629SOL     OW22834   2.311   7.306   2.504
 5629SOL    HW222835   2.343   7.394   2.482
 5629SOL    HW322836   2.264   7.278   2.426
 5629SOL    MW422837   2.310   7.314   2.491
 5630SOL     OW22838   2.027   7.366   2.081
 5630SOL    HW222839   2.056   7.456   2.073
 5630SOL    HW322840   1.977   7.349   2.002
 5630SOL    MW422841   2.025   7.374   2.070
 5631SOL     OW22842   2.814   5.621   2.966
 5631SOL    HW222843   2.773   5.699   2.928
 5631SOL    HW322844   2.908   5.639   2.961
 5631SOL    MW422845   2.820   5.633   2.961
 5632SOL     OW22846   3.431   7.174   2.052
 5632SOL    HW222847   3.479   7.243   2.098
 5632SOL    HW322848   3.352   7.218   2.021
 5632SOL    MW422849   3.426   7.188   2.055
 5633SOL     OW22850   2.829   6.299   1.996
 5633SOL    HW222851   2.831   6.246   1.917
 5633SOL    HW322852   2.917   6.336   2.002
 5633SOL    MW422853   2.841   6.298   1.985
 5634SOL     OW22854   3.443   6.225   2.332
 5634SOL    HW222855   3.482   6.225   2.419
 5634SOL    HW322856   3.384   6.301   2.332
 5634SOL    MW422857   3.440   6.236   2.343
 5635SOL     OW22858   2.760   6.592   3.461
 5635SOL    HW222859   2.737   6.572   3.551
 5635SOL    HW322860   2.845   6.636   3.466
 5635SOL    MW422861   2.767   6.595   3.473
 5636SOL     OW22862   2.840   5.729   3.221
 5636SOL    HW222863   2.846   5.691   3.134
 5636SOL    HW322864   2.829   5.823   3.206
 5636SOL    MW422865   2.841   5.737   3.209
 5637SOL     OW22866   2.929   6.218   3.055
 5637SOL    HW222867   3.004   6.247   3.002
 5637SOL    HW322868   2.861   6.283   3.039
 5637SOL    MW422869   2.930   6.230   3.045
 5638SOL     OW22870   3.479   6.186   3.332
 5638SOL    HW222871   3.460   6.095   3.311
 5638SOL    HW322872   3.457   6.235   3.253
 5638SOL    MW422873   3.474   6.179   3.319
 5639SOL     OW22874   3.621   7.280   3.236
 5639SOL    HW222875   3.549   7.242   3.287
 5639SOL    HW322876   3.638   7.365   3.277
 5639SOL    MW422877   3.615   7.285   3.248
 5640SOL     OW22878   2.926   5.924   3.438
 5640SOL    HW222879   2.892   5.963   3.357
 5640SOL    HW322880   2.904   5.832   3.431
 5640SOL    MW422881   2.919   5.917   3.428
 5641SOL     OW22882   3.335   6.738   3.514
 5641SOL    HW222883   3.417   6.779   3.544
 5641SOL    HW322884   3.298   6.700   3.594
 5641SOL    MW422885   3.341   6.739   3.529
 5642SOL     OW22886   3.630   6.111   2.498
 5642SOL    HW222887   3.719   6.080   2.515
 5642SOL    HW322888   3.573   6.051   2.546
 5642SOL    MW422889   3.633   6.099   2.507
 5643SOL     OW22890   2.056   5.825   2.527
 5643SOL    HW222891   2.047   5.765   2.453
 5643SOL    HW322892   1.989   5.796   2.590
 5643SOL    MW422893   2.046   5.812   2.525
 5644SOL     OW22894   2.999   6.918   2.088
 5644SOL    HW222895   2.949   6.920   2.170
 5644SOL    HW322896   2.933   6.936   2.020
 5644SOL    MW422897   2.985   6.920   2.090
 5645SOL     OW22898   2.003   5.998   2.890
 5645SOL    HW222899   1.975   6.089   2.899
 5645SOL    HW322900   1.940   5.959   2.829
 5645SOL    MW422901   1.990   6.004   2.884
 5646SOL     OW22902   2.462   7.336   2.196
 5646SOL    HW222903   2.383   7.294   2.229
 5646SOL    HW322904   2.528   7.319   2.263
 5646SOL    MW422905   2.461   7.328   2.209
 5647SOL     OW22906   3.590   6.856   3.593
 5647SOL    HW222907   3.640   6.782   3.625
 5647SOL    HW322908   3.536   6.883   3.668
 5647SOL    MW422909   3.590   6.850   3.606
 5648SOL     OW22910   2.598   6.751   1.903
 5648SOL    HW222911   2.520   6.697   1.890
 5648SOL    HW322912   2.569   6.824   1.956
 5648SOL    MW422913   2.584   6.753   1.908
 5649SOL     OW22914   3.724   6.491   3.095
 5649SOL    HW222915   3.740   6.529   3.008
 5649SOL    HW322916   3.758   6.557   3.156
 5649SOL    MW422917   3.731   6.504   3.091
 5650SOL     OW22918   3.516   7.200   2.764
 5650SOL    HW222919   3.545   7.267   2.825
 5650SOL    HW322920   3.497   7.124   2.819
 5650SOL    MW422921   3.518   7.200   2.779
 5651SOL     OW22922   3.179   7.267   1.971
 5651SOL    HW222923   3.105   7.230   2.021
 5651SOL    HW322924   3.187   7.357   2.004
 5651SOL    MW422925   3.170   7.274   1.983
 5652SOL     OW22926   1.987   6.273   3.060
 5652SOL    HW222927   2.049   6.303   3.126
 5652SOL    HW322928   1.921   6.342   3.054
 5652SOL    MW422929   1.986   6.286   3.067
 5653SOL     OW22930   3.403   6.941   1.913
 5653SOL    HW222931   3.350   6.990   1.849
 5653SOL    HW322932   3.434   7.007   1.974
 5653SOL    MW422933   3.401   6.955   1.911
 5654SOL     OW22934   2.628   5.830   1.968
 5654SOL    HW222935   2.576   5.750   1.956
 5654SOL    HW322936   2.715   5.807   1.936
 5654SOL    MW422937   2.631   5.816   1.962
 5655SOL     OW22938   2.082   7.382   3.512
 5655SOL    HW222939   2.056   7.450   3.450
 5655SOL    HW322940   2.130   7.319   3.460
 5655SOL    MW422941   2.084   7.382   3.498
 5656SOL     OW22942   2.134   6.701   3.019
 5656SOL    HW222943   2.187   6.776   3.044
 5656SOL    HW322944   2.053   6.739   2.985
 5656SOL    MW422945   2.130   6.716   3.019
 5657SOL     OW22946   2.674   6.605   3.007
 5657SOL    HW222947   2.702   6.514   3.019
 5657SOL    HW322948   2.603   6.599   2.943
 5657SOL    MW422949   2.667   6.593   3.002
 5658SOL     OW22950   1.989   6.470   2.425
 5658SOL    HW222951   2.080   6.485   2.452
 5658SOL    HW322952   1.992   6.391   2.371
 5658SOL    MW422953   2.001   6.462   2.423
 5659SOL     OW22954   2.225   6.178   3.679
 5659SOL    HW222955   2.172   6.258   3.686
 5659SOL    HW322956   2.295   6.190   3.744
 5659SOL    MW422957   2.227   6.191   3.687
 5660SOL     OW22958   2.611   5.728   3.386
 5660SOL    HW222959   2.588   5.636   3.388
 5660SOL    HW322960   2.697   5.730   3.343
 5660SOL    MW422961   2.618   5.718   3.382
 5661SOL     OW22962   2.295   6.252   3.425
 5661SOL    HW222963   2.375   6.302   3.411
 5661SOL    HW322964   2.286   6.246   3.520
 5661SOL    MW422965   2.304   6.258   3.435
 5662SOL     OW22966   2.616   7.402   2.799
 5662SOL    HW222967   2.705   7.417   2.829
 5662SOL    HW322968   2.611   7.449   2.715
 5662SOL    MW422969   2.626   7.410   2.792
 5663SOL     OW22970   1.997   7.082   2.464
 5663SOL    HW222971   1.969   7.121   2.546
 5663SOL    HW322972   2.017   6.991   2.486
 5663SOL    MW422973   1.995   7.074   2.477
 5664SOL     OW22974   2.830   7.125   2.499
 5664SOL    HW222975   2.913   7.079   2.483
 5664SOL    HW322976   2.820   7.124   2.595
 5664SOL    MW422977   2.840   7.118   2.509
 5665SOL     OW22978   3.662   6.270   2.813
 5665SOL    HW222979   3.751   6.300   2.795
 5665SOL    HW322980   3.642   6.210   2.742
 5665SOL    MW422981   3.671   6.267   2.802
 5666SOL     OW22982   3.513   6.449   3.693
 5666SOL    HW222983   3.568   6.373   3.674
 5666SOL    HW322984   3.515   6.457   3.788
 5666SOL    MW422985   3.521   6.440   3.701
 5667SOL     OW22986   2.563   7.182   1.904
 5667SOL    HW222987   2.503   7.251   1.874
 5667SOL    HW322988   2.508   7.124   1.957
 5667SOL    MW422989   2.547   7.184   1.906
 5668SOL     OW22990   3.001   5.827   2.127
 5668SOL    HW222991   2.934   5.803   2.064
 5668SOL    HW322992   3.066   5.876   2.076
 5668SOL    MW422993   3.001   5.829   2.112
 5669SOL     OW22994   2.808   6.011   3.212
 5669SOL    HW222995   2.727   6.052   3.240
 5669SOL    HW322996   2.855   6.079   3.164
 5669SOL    MW422997   2.803   6.026   3.210
 5670SOL     OW22998   3.068   6.349   2.835
 5670SOL    HW222999   3.081   6.443   2.845
 5670SOL    HW323000   3.029   6.339   2.749
 5670SOL    MW423001   3.064   6.360   2.825
 5671SOL     OW23002   2.520   6.544   2.639
 5671SOL    HW223003   2.431   6.535   2.672
 5671SOL    HW323004   2.524   6.634   2.607
 5671SOL    MW423005   2.509   6.555   2.639
 5672SOL     OW23006   3.319   6.127   2.634
 5672SOL    HW223007   3.264   6.048   2.633
 5672SOL    HW323008   3.301   6.168   2.718
 5672SOL    MW423009   3.309   6.122   2.643
 5673SOL     OW23010   2.290   5.814   3.451
 5673SOL    HW223011   2.211   5.832   3.503
 5673SOL    HW323012   2.285   5.876   3.378
 5673SOL    MW423013   2.280   5.824   3.448
 5674SOL     OW23014   2.938   6.331   2.591
 5674SOL    HW223015   2.875   6.263   2.615
 5674SOL    HW323016   2.958   6.312   2.499
 5674SOL    MW423017   2.932   6.318   2.583
 5675SOL     OW23018   2.194   7.226   2.293
 5675SOL    HW223019   2.155   7.273   2.219
 5675SOL    HW323020   2.128   7.161   2.318
 5675SOL    MW423021   2.181   7.224   2.287
 5676SOL     OW23022   2.686   6.635   2.317
 5676SOL    HW223023   2.688   6.609   2.224
 5676SOL    HW323024   2.744   6.572   2.360
 5676SOL    MW423025   2.694   6.624   2.311
 5677SOL     OW23026   3.239   7.195   3.089
 5677SOL    HW223027   3.164   7.241   3.127
 5677SOL    HW323028   3.221   7.102   3.106
 5677SOL    MW423029   3.228   7.189   3.097
 5678SOL     OW23030   3.243   7.403   2.519
 5678SOL    HW223031   3.186   7.356   2.458
 5678SOL    HW323032   3.329   7.364   2.506
 5678SOL    MW423033   3.246   7.394   2.509
 5679SOL     OW23034   3.196   5.879   2.650
 5679SOL    HW223035   3.224   5.811   2.711
 5679SOL    HW323036   3.110   5.850   2.620
 5679SOL    MW423037   3.189   5.866   2.654
 5680SOL     OW23038   2.001   6.813   2.584
 5680SOL    HW223039   2.065   6.845   2.647
 5680SOL    HW323040   2.050   6.749   2.532
 5680SOL    MW423041   2.016   6.809   2.585
 5681SOL     OW23042   2.501   6.889   3.566
 5681SOL    HW223043   2.549   6.972   3.553
 5681SOL    HW323044   2.558   6.837   3.622
 5681SOL    MW423045   2.515   6.893   3.572
 5682SOL     OW23046   2.077   7.131   3.706
 5682SOL    HW223047   2.133   7.055   3.721
 5682SOL    HW323048   2.026   7.109   3.628
 5682SOL    MW423049   2.077   7.118   3.697
 5683SOL     OW23050   3.176   5.983   1.985
 5683SOL    HW223051   3.149   6.049   1.921
 5683SOL    HW323052   3.246   6.026   2.035
 5683SOL    MW423053   3.181   5.996   1.982
 5684SOL     OW23054   2.844   5.688   1.922
 5684SOL    HW223055   2.900   5.680   1.844
 5684SOL    HW323056   2.821   5.598   1.944
 5684SOL    MW423057   2.849   5.675   1.915
 5685SOL     OW23058   3.349   6.539   2.127
 5685SOL    HW223059   3.316   6.628   2.117
 5685SOL    HW323060   3.314   6.510   2.212
 5685SOL    MW423061   3.339   6.548   2.138
 5686SOL     OW23062   2.962   6.968   3.315
 5686SOL    HW223063   2.873   6.974   3.283
 5686SOL    HW323064   3.006   7.047   3.283
 5686SOL    MW423065   2.957   6.978   3.307
 5687SOL     OW23066   2.255   5.636   3.657
 5687SOL    HW223067   2.183   5.601   3.605
 5687SOL    HW323068   2.313   5.677   3.592
 5687SOL    MW423069   2.253   5.637   3.642
 5688SOL     OW23070   2.279   7.126   2.956
 5688SOL    HW223071   2.324   7.188   3.013
 5688SOL    HW323072   2.186   7.145   2.969
 5688SOL    MW423073   2.272   7.136   2.963
 5689SOL     OW23074   3.719   6.655   3.310
 5689SOL    HW223075   3.634   6.668   3.269
 5689SOL    HW323076   3.699   6.619   3.397
 5689SOL    MW423077   3.706   6.651   3.315
 5690SOL     OW23078   2.701   7.194   3.064
 5690SOL    HW223079   2.725   7.183   2.973
 5690SOL    HW323080   2.624   7.251   3.062
 5690SOL    MW423081   2.693   7.199   3.053
 5691SOL     OW23082   2.343   6.577   1.919
 5691SOL    HW223083   2.266   6.590   1.975
 5691SOL    HW323084   2.307   6.541   1.838
 5691SOL    MW423085   2.329   6.573   1.916
 5692SOL     OW23086   2.996   6.550   2.162
 5692SOL    HW223087   2.906   6.571   2.137
 5692SOL    HW323088   3.023   6.623   2.218
 5692SOL    MW423089   2.988   6.562   2.165
 5693SOL     OW23090   2.496   6.899   2.854
 5693SOL    HW223091   2.489   6.878   2.948
 5693SOL    HW323092   2.414   6.867   2.817
 5693SOL    MW423093   2.484   6.893   2.861
 5694SOL     OW23094   3.360   5.909   3.256
 5694SOL    HW223095   3.307   5.911   3.336
 5694SOL    HW323096   3.345   5.822   3.219
 5694SOL    MW423097   3.352   5.899   3.261
 5695SOL     OW23098   1.942   6.991   3.517
 5695SOL    HW223099   1.986   6.924   3.463
 5695SOL    HW323100   1.857   6.953   3.537
 5695SOL    MW423101   1.937   6.977   3.513
 5696SOL     OW23102   2.625   5.666   2.569
 5696SOL    HW223103   2.554   5.727   2.551
 5696SOL    HW323104   2.676   5.663   2.488
 5696SOL    MW423105   2.621   5.672   2.556
 5697SOL     OW23106   2.383   6.906   2.318
 5697SOL    HW223107   2.376   6.938   2.408
 5697SOL    HW323108   2.293   6.890   2.290
 5697SOL    MW423109   2.371   6.908   2.325
 5698SOL     OW23110   2.978   7.299   3.227
 5698SOL    HW223111   2.898   7.284   3.177
 5698SOL    HW323112   2.985   7.394   3.234
 5698SOL    MW423113   2.969   7.310   3.221
 5699SOL     OW23114   3.092   7.264   2.717
 5699SOL    HW223115   3.139   7.337   2.676
 5699SOL    HW323116   3.013   7.303   2.753
 5699SOL    MW423117   3.087   7.279   2.716
 5700SOL     OW23118   3.500   7.359   2.992
 5700SOL    HW223119   3.543   7.329   3.072
 5700SOL    HW323120   3.419   7.307   2.989
 5700SOL    MW423121   3.495   7.348   3.002
 5701SOL     OW23122   2.585   6.323   3.699
 5701SOL    HW223123   2.655   6.265   3.671
 5701SOL    HW323124   2.528   6.268   3.754
 5701SOL    MW423125   2.587   6.310   3.703
 5702SOL     OW23126   3.372   6.535   3.332
 5702SOL    HW223127   3.377   6.588   3.412
 5702SOL    HW323128   3.334   6.452   3.360
 5702SOL    MW423129   3.368   6.530   3.347
 5703SOL     OW23130   3.012   5.670   3.578
 5703SOL    HW223131   3.007   5.577   3.559
 5703SOL    HW323132   3.095   5.681   3.624
 5703SOL    MW423133   3.020   5.659   3.582
 5704SOL     OW23134   2.386   6.190   2.032
 5704SOL    HW223135   2.352   6.246   2.102
 5704SOL    HW323136   2.457   6.140   2.072
 5704SOL    MW423137   2.392   6.191   2.046
 5705SOL     OW23138   3.482   6.941   2.854
 5705SOL    HW223139   3.517   6.923   2.767
 5705SOL    HW323140   3.387   6.942   2.841
 5705SOL    MW423141   3.474   6.938   2.841
 5706SOL     OW23142   2.911   6.589   3.223
 5706SOL    HW223143   2.954   6.624   3.301
 5706SOL    HW323144   2.894   6.666   3.169
 5706SOL    MW423145   2.914   6.604   3.226
 5707SOL     OW23146   3.442   6.076   2.096
 5707SOL    HW223147   3.434   6.147   2.033
 5707SOL    HW323148   3.460   6.120   2.179
 5707SOL    MW423149   3.443   6.090   2.098
 5708SOL     OW23150   2.302   5.731   2.525
 5708SOL    HW223151   2.352   5.774   2.456
 5708SOL    HW323152   2.217   5.775   2.525
 5708SOL    MW423153   2.299   5.744   2.516
 5709SOL     OW23154   2.061   6.793   3.385
 5709SOL    HW223155   2.089   6.746   3.463
 5709SOL    HW323156   1.982   6.748   3.356
 5709SOL    MW423157   2.054   6.782   3.391
 5710SOL     OW23158   2.569   6.120   3.352
 5710SOL    HW223159   2.541   6.208   3.376
 5710SOL    HW323160   2.538   6.064   3.423
 5710SOL    MW423161   2.561   6.123   3.364
 5711SOL     OW23162   3.111   6.338   2.071
 5711SOL    HW223163   3.158   6.356   1.990
 5711SOL    HW323164   3.077   6.422   2.099
 5711SOL    MW423165   3.113   6.352   2.064
 5712SOL     OW23166   2.224   6.516   2.565
 5712SOL    HW223167   2.282   6.572   2.513
 5712SOL    HW323168   2.268   6.431   2.567
 5712SOL    MW423169   2.237   6.513   2.558
 5713SOL     OW23170   3.364   5.868   2.402
 5713SOL    HW223171   3.286   5.818   2.427
 5713SOL    HW323172   3.335   5.959   2.402
 5713SOL    MW423173   3.350   5.872   2.405
 5714SOL     OW23174   2.950   5.830   2.561
 5714SOL    HW223175   2.970   5.905   2.505
 5714SOL    HW323176   2.930   5.869   2.646
 5714SOL    MW423177   2.951   5.846   2.565
 5715SOL     OW23178   2.846   7.080   1.893
 5715SOL    HW223179   2.873   7.158   1.845
 5715SOL    HW323180   2.753   7.095   1.912
 5715SOL    MW423181   2.837   7.093   1.889
 5716SOL     OW23182   3.710   6.603   3.580
 5716SOL    HW223183   3.623   6.583   3.616
 5716SOL    HW323184   3.764   6.529   3.605
 5716SOL    MW423185   3.705   6.592   3.588
 5717SOL     OW23186   1.931   7.116   2.737
 5717SOL    HW223187   1.963   7.120   2.828
 5717SOL    HW323188   1.836   7.124   2.745
 5717SOL    MW423189   1.923   7.119   2.750
 5718SOL     OW23190   1.886   6.242   2.284
 5718SOL    HW223191   1.826   6.214   2.354
 5718SOL    HW323192   1.960   6.182   2.290
 5718SOL    MW423193   1.888   6.231   2.293
 5719SOL     OW23194   3.054   6.973   2.444
 5719SOL    HW223195   3.077   6.924   2.522
 5719SOL    HW323196   3.135   7.015   2.416
 5719SOL    MW423197   3.067   6.973   2.451
 5720SOL     OW23198   2.312   5.981   3.173
 5720SOL    HW223199   2.345   6.062   3.213
 5720SOL    HW323200   2.285   6.007   3.085
 5720SOL    MW423201   2.311   5.995   3.167
 5721SOL     OW23202   2.266   5.948   2.909
 5721SOL    HW223203   2.296   5.862   2.880
 5721SOL    HW323204   2.171   5.941   2.912
 5721SOL    MW423205   2.258   5.937   2.907
 5722SOL     OW23206   3.095   6.157   3.600
 5722SOL    HW223207   3.147   6.092   3.553
 5722SOL    HW323208   3.053   6.208   3.530
 5722SOL    MW423209   3.096   6.154   3.583
 5723SOL     OW23210   3.194   5.952   3.461
 5723SOL    HW223211   3.101   5.936   3.448
 5723SOL    HW323212   3.220   5.890   3.529
 5723SOL    MW423213   3.184   5.942   3.468
 5724SOL     OW23214   2.409   5.726   2.800
 5724SOL    HW223215   2.419   5.635   2.826
 5724SOL    HW323216   2.365   5.722   2.715
 5724SOL    MW423217   2.405   5.714   2.792
 5725SOL     OW23218   2.503   7.341   3.346
 5725SOL    HW223219   2.420   7.326   3.391
 5725SOL    HW323220   2.562   7.274   3.381
 5725SOL    MW423221   2.501   7.331   3.356
 5726SOL     OW23222   3.560   6.048   2.971
 5726SOL    HW223223   3.493   6.081   3.031
 5726SOL    HW323224   3.603   6.126   2.937
 5726SOL    MW423225   3.558   6.063   2.975
 5727SOL     OW23226   3.738   6.768   2.941
 5727SOL    HW223227   3.731   6.708   2.866
 5727SOL    HW323228   3.664   6.828   2.930
 5727SOL    MW423229   3.728   6.768   2.930
 5728SOL     OW23230   3.120   6.630   2.859
 5728SOL    HW223231   3.134   6.602   2.950
 5728SOL    HW323232   3.206   6.661   2.831
 5728SOL    MW423233   3.133   6.631   2.868
 5729SOL     OW23234   3.203   6.125   3.138
 5729SOL    HW223235   3.224   6.126   3.045
 5729SOL    HW323236   3.248   6.047   3.171
 5729SOL    MW423237   3.210   6.115   3.130
 5730SOL     OW23238   3.696   6.256   3.680
 5730SOL    HW223239   3.733   6.201   3.749
 5730SOL    HW323240   3.721   6.213   3.598
 5730SOL    MW423241   3.703   6.244   3.679
 5731SOL     OW23242   3.243   6.554   3.731
 5731SOL    HW223243   3.309   6.502   3.685
 5731SOL    HW323244   3.263   6.541   3.824
 5731SOL    MW423245   3.254   6.545   3.738
 5732SOL     OW23246   3.194   5.640   2.080
 5732SOL    HW223247   3.268   5.684   2.123
 5732SOL    HW323248   3.118   5.694   2.102
 5732SOL    MW423249   3.194   5.652   2.088
 5733SOL     OW23250   3.254   6.415   2.358
 5733SOL    HW223251   3.169   6.385   2.328
 5733SOL    HW323252   3.246   6.422   2.453
 5733SOL    MW423253   3.242   6.413   2.367
 5734SOL     OW23254   2.330   6.878   3.089
 5734SOL    HW223255   2.342   6.905   3.180
 5734SOL    HW323256   2.311   6.959   3.042
 5734SOL    MW423257   2.329   6.893   3.094
 5735SOL     OW23258   2.614   5.858   2.912
 5735SOL    HW223259   2.587   5.860   3.003
 5735SOL    HW323260   2.544   5.810   2.867
 5735SOL    MW423261   2.602   5.854   2.919
 5736SOL     OW23262   2.468   7.350   3.074
 5736SOL    HW223263   2.520   7.427   3.051
 5736SOL    HW323264   2.477   7.342   3.169
 5736SOL    MW423265   2.477   7.357   3.085
 5737SOL     OW23266   3.370   6.935   3.306
 5737SOL    HW223267   3.355   6.864   3.369
 5737SOL    HW323268   3.416   6.893   3.234
 5737SOL    MW423269   3.376   6.919   3.306
 5738SOL     OW23270   2.444   6.666   3.423
 5738SOL    HW223271   2.481   6.671   3.335
 5738SOL    HW323272   2.483   6.739   3.470
 5738SOL    MW423273   2.454   6.676   3.418
 5739SOL     OW23274   2.624   6.709   3.235
 5739SOL    HW223275   2.683   6.655   3.288
 5739SOL    HW323276   2.639   6.681   3.145
 5739SOL    MW423277   2.634   6.698   3.231
 5740SOL     OW23278   2.627   6.081   2.084
 5740SOL    HW223279   2.700   6.130   2.047
 5740SOL    HW323280   2.643   5.990   2.058
 5740SOL    MW423281   2.639   6.076   2.077
 5741SOL     OW23282   3.435   7.198   3.407
 5741SOL    HW223283   3.477   7.183   3.492
 5741SOL    HW323284   3.426   7.111   3.369
 5741SOL    MW423285   3.439   7.186   3.414
 5742SOL     OW23286   3.095   5.677   2.998
 5742SOL    HW223287   3.150   5.686   2.920
 5742SOL    HW323288   3.150   5.711   3.069
 5742SOL    MW423289   3.109   5.682   2.997
 5743SOL     OW23290   2.102   6.590   2.182
 5743SOL    HW223291   2.039   6.606   2.111
 5743SOL    HW323292   2.049   6.553   2.253
 5743SOL    MW423293   2.087   6.587   2.182
 5744SOL     OW23294   2.458   6.944   2.041
 5744SOL    HW223295   2.473   6.920   2.133
 5744SOL    HW323296   2.366   6.922   2.025
 5744SOL    MW423297   2.448   6.937   2.051
 5745SOL     OW23298   2.997   7.175   2.193
 5745SOL    HW223299   3.005   7.093   2.144
 5745SOL    HW323300   2.916   7.214   2.160
 5745SOL    MW423301   2.987   7.170   2.183
 5746SOL     OW23302   2.256   7.333   2.762
 5746SOL    HW223303   2.260   7.244   2.797
 5746SOL    HW323304   2.282   7.324   2.671
 5746SOL    MW423305   2.259   7.321   2.754
 5747SOL     OW23306   2.873   6.811   3.005
 5747SOL    HW223307   2.805   6.745   3.021
 5747SOL    HW323308   2.891   6.805   2.912
 5747SOL    MW423309   2.866   6.802   2.996
 5748SOL     OW23310   1.962   7.086   3.256
 5748SOL    HW223311   1.952   7.044   3.342
 5748SOL    HW323312   1.883   7.139   3.246
 5748SOL    MW423313   1.951   7.087   3.267
 5749SOL     OW23314   2.866   5.950   2.826
 5749SOL    HW223315   2.796   5.902   2.871
 5749SOL    HW323316   2.898   6.013   2.890
 5749SOL    MW423317   2.861   5.952   2.840
 5750SOL     OW23318   2.517   6.386   3.446
 5750SOL    HW223319   2.510   6.481   3.434
 5750SOL    HW323320   2.526   6.375   3.541
 5750SOL    MW423321   2.518   6.398   3.456
 5751SOL     OW23322   2.238   6.901   3.704
 5751SOL    HW223323   2.310   6.903   3.641
 5751SOL    HW323324   2.208   6.810   3.703
 5751SOL    MW423325   2.243   6.890   3.696
 5752SOL     OW23326   3.322   5.664   3.171
 5752SOL    HW223327   3.393   5.610   3.135
 5752SOL    HW323328   3.321   5.643   3.264
 5752SOL    MW423329   3.331   5.655   3.179
 5753SOL     OW23330   3.522   7.194   3.655
 5753SOL    HW223331   3.495   7.191   3.746
 5753SOL    HW323332   3.618   7.198   3.658
 5753SOL    MW423333   3.532   7.194   3.667
 5754SOL     OW23334   2.333   6.056   2.639
 5754SOL    HW223335   2.404   6.004   2.602
 5754SOL    HW323336   2.319   6.021   2.726
 5754SOL    MW423337   2.341   6.045   2.646
 5755SOL     OW23338   1.888   7.391   3.711
 5755SOL    HW223339   1.938   7.369   3.633
 5755SOL    HW323340   1.896   7.486   3.719
 5755SOL    MW423341   1.896   7.400   3.702
 5756SOL     OW23342   2.649   7.149   2.715
 5756SOL    HW223343   2.577   7.086   2.728
 5756SOL    HW323344   2.610   7.234   2.733
 5756SOL    MW423345   2.633   7.152   2.718
 5757SOL     OW23346   2.969   5.997   2.363
 5757SOL    HW223347   2.991   5.934   2.295
 5757SOL    HW323348   2.874   5.989   2.374
 5757SOL    MW423349   2.959   5.988   2.355
 5758SOL     OW23350   2.054   5.687   2.295
 5758SOL    HW223351   2.125   5.708   2.234
 5758SOL    HW323352   2.008   5.615   2.253
 5758SOL    MW423353   2.058   5.681   2.281
 5759SOL     OW23354   1.885   6.154   3.438
 5759SOL    HW223355   1.949   6.220   3.413
 5759SOL    HW323356   1.804   6.181   3.395
 5759SOL    MW423357   1.883   6.166   3.430
 5760SOL     OW23358   3.623   7.061   2.395
 5760SOL    HW223359   3.593   6.994   2.456
 5760SOL    HW323360   3.717   7.067   2.409
 5760SOL    MW423361   3.631   7.053   2.405
 5761SOL     OW23362   3.179   6.738   2.325
 5761SOL    HW223363   3.151   6.824   2.358
 5761SOL    HW323364   3.207   6.754   2.235
 5761SOL    MW423365   3.179   6.752   2.317
 5762SOL     OW23366   2.841   5.658   2.378
 5762SOL    HW223367   2.878   5.717   2.443
 5762SOL    HW323368   2.818   5.714   2.304
 5762SOL    MW423369   2.842   5.673   2.377
 5763SOL     OW23370   3.694   6.540   2.800
 5763SOL    HW223371   3.685   6.572   2.711
 5763SOL    HW323372   3.647   6.456   2.800
 5763SOL    MW423373   3.687   6.533   2.790
 5764SOL     OW23374   2.070   6.380   3.379
 5764SOL    HW223375   2.091   6.449   3.317
 5764SOL    HW323376   2.150   6.327   3.384
 5764SOL    MW423377   2.083   6.381   3.373
 5765SOL     OW23378   3.606   6.471   2.501
 5765SOL    HW223379   3.700   6.460   2.489
 5765SOL    HW323380   3.582   6.543   2.442
 5765SOL    MW423381   3.616   6.479   2.492
 5766SOL     OW23382   2.055   6.395   3.646
 5766SOL    HW223383   1.981   6.339   3.672
 5766SOL    HW323384   2.050   6.398   3.551
 5766SOL    MW423385   2.044   6.388   3.636
 5767SOL     OW23386   2.221   5.682   3.096
 5767SOL    HW223387   2.264   5.766   3.116
 5767SOL    HW323388   2.294   5.620   3.089
 5767SOL    MW423389   2.236   5.685   3.097
 5768SOL     OW23390   2.262   6.349   2.274
 5768SOL    HW223391   2.262   6.444   2.259
 5768SOL    HW323392   2.339   6.333   2.328
 5768SOL    MW423393   2.272   6.360   2.279
 5769SOL     OW23394   3.038   6.208   3.338
 5769SOL    HW223395   3.074   6.181   3.254
 5769SOL    HW323396   2.951   6.242   3.317
 5769SOL    MW423397   3.032   6.209   3.325
 5770SOL     OW23398   2.021   6.080   2.563
 5770SOL    HW223399   2.083   6.087   2.636
 5770SOL    HW323400   2.021   5.987   2.540
 5770SOL    MW423401   2.029   6.069   2.570
 5771SOL     OW23402   2.703   6.341   3.047
 5771SOL    HW223403   2.661   6.259   3.023
 5771SOL    HW323404   2.704   6.340   3.143
 5771SOL    MW423405   2.696   6.330   3.056
 5772SOL     OW23406   2.507   5.811   3.152
 5772SOL    HW223407   2.438   5.874   3.173
 5772SOL    HW323408   2.534   5.775   3.237
 5772SOL    MW423409   2.501   5.814   3.165
 5773SOL     OW23410   1.890   6.652   2.021
 5773SOL    HW223411   1.859   6.717   2.084
 5773SOL    HW323412   1.839   6.574   2.040
 5773SOL    MW423413   1.880   6.649   2.031
 5774SOL     OW23414   3.302   5.664   2.769
 5774SOL    HW223415   3.390   5.673   2.806
 5774SOL    HW323416   3.312   5.605   2.695
 5774SOL    MW423417   3.316   5.658   2.763
 5775SOL     OW23418   3.334   6.403   2.613
 5775SOL    HW223419   3.414   6.418   2.562
 5775SOL    HW323420   3.327   6.308   2.619
 5775SOL    MW423421   3.343   6.392   2.608
 5776SOL     OW23422   2.474   7.452   1.963
 5776SOL    HW223423   2.379   7.452   1.955
 5776SOL    HW323424   2.490   7.398   2.041
 5776SOL    MW423425   2.464   7.446   1.972
 5777SOL     OW23426   2.784   6.329   3.310
 5777SOL    HW223427   2.853   6.396   3.307
 5777SOL    HW323428   2.717   6.367   3.366
 5777SOL    MW423429   2.785   6.342   3.317
 5778SOL     OW23430   2.202   6.629   3.558
 5778SOL    HW223431   2.156   6.545   3.560
 5778SOL    HW323432   2.259   6.623   3.482
 5778SOL    MW423433   2.204   6.617   3.550
 5779SOL     OW23434   3.319   6.272   1.879
 5779SOL    HW223435   3.247   6.248   1.821
 5779SOL    HW323436   3.385   6.309   1.821
 5779SOL    MW423437   3.318   6.274   1.864
 5780SOL     OW23438   2.453   7.004   2.559
 5780SOL    HW223439   2.518   6.937   2.580
 5780SOL    HW323440   2.505   7.081   2.536
 5780SOL    MW423441   2.468   7.006   2.558
 5781SOL     OW23442   2.714   6.169   2.689
 5781SOL    HW223443   2.654   6.187   2.761
 5781SOL    HW323444   2.748   6.081   2.708
 5781SOL    MW423445   2.710   6.159   2.702
 5782SOL     OW23446   2.939   6.752   2.708
 5782SOL    HW223447   3.031   6.733   2.726
 5782SOL    HW323448   2.912   6.682   2.648
 5782SOL    MW423449   2.947   6.740   2.702
 5783SOL     OW23450   2.732   6.572   2.063
 5783SOL    HW223451   2.718   6.484   2.028
 5783SOL    HW323452   2.683   6.629   2.004
 5783SOL    MW423453   2.724   6.567   2.051
 5784SOL     OW23454   3.213   6.990   2.804
 5784SOL    HW223455   3.186   7.074   2.769
 5784SOL    HW323456   3.173   6.985   2.891
 5784SOL    MW423457   3.206   6.999   2.810
 5785SOL     OW23458   3.132   6.938   3.072
 5785SOL    HW223459   3.143   6.905   3.161
 5785SOL    HW323460   3.051   6.897   3.041
 5785SOL    MW423461   3.122   6.930   3.078
 5786SOL     OW23462   2.145   6.296   2.842
 5786SOL    HW223463   2.095   6.295   2.923
 5786SOL    HW323464   2.165   6.388   2.826
 5786SOL    MW423465   2.141   6.308   2.850
 5787SOL     OW23466   3.212   7.060   3.604
 5787SOL    HW223467   3.212   7.154   3.620
 5787SOL    HW323468   3.257   7.050   3.520
 5787SOL    MW423469   3.218   7.070   3.595
 5788SOL     OW23470   3.451   5.778   2.165
 5788SOL    HW223471   3.444   5.782   2.260
 5788SOL    HW323472   3.463   5.869   2.138
 5788SOL    MW423473   3.452   5.791   2.173
 5789SOL     OW23474   2.740   6.341   2.279
 5789SOL    HW223475   2.720   6.327   2.186
 5789SOL    HW323476   2.833   6.320   2.286
 5789SOL    MW423477   2.750   6.336   2.268
 5790SOL     OW23478   2.067   5.964   3.583
 5790SOL    HW223479   2.024   6.023   3.520
 5790SOL    HW323480   2.135   6.019   3.623
 5790SOL    MW423481   2.071   5.979   3.580
 5791SOL     OW23482   3.179   6.584   3.128
 5791SOL    HW223483   3.242   6.581   3.201
 5791SOL    HW323484   3.095   6.602   3.170
 5791SOL    MW423485   3.175   6.586   3.143
 5792SOL     OW23486   2.723   7.299   2.317
 5792SOL    HW223487   2.781   7.370   2.344
 5792SOL    HW323488   2.746   7.227   2.375
 5792SOL    MW423489   2.734   7.299   2.328
 5793SOL     OW23490   1.966   5.604   3.006
 5793SOL    HW223491   1.957   5.605   2.911
 5793SOL    HW323492   2.060   5.616   3.021
 5793SOL    MW423493   1.978   5.607   2.997
 5794SOL     OW23494   3.603   6.797   2.626
 5794SOL    HW223495   3.582   6.743   2.549
 5794SOL    HW323496   3.699   6.795   2.630
 5794SOL    MW423497   3.612   6.790   2.615
 5795SOL     OW23498   2.295   6.942   3.369
 5795SOL    HW223499   2.216   6.892   3.392
 5795SOL    HW323500   2.365   6.901   3.419
 5795SOL    MW423501   2.293   6.930   3.379
 5796SOL     OW23502   2.179   5.731   2.052
 5796SOL    HW223503   2.108   5.786   2.020
 5796SOL    HW323504   2.221   5.697   1.973
 5796SOL    MW423505   2.175   5.733   2.038
 5797SOL     OW23506   3.303   6.228   2.888
 5797SOL    HW223507   3.226   6.274   2.854
 5797SOL    HW323508   3.360   6.297   2.922
 5797SOL    MW423509   3.300   6.243   2.888
 5798SOL     OW23510   1.935   5.830   1.901
 5798SOL    HW223511   1.902   5.909   1.945
 5798SOL    HW323512   1.990   5.863   1.830
 5798SOL    MW423513   1.938   5.844   1.898
 5799SOL     OW23514   1.969   7.087   2.090
 5799SOL    HW223515   1.986   7.171   2.132
 5799SOL    HW323516   2.004   7.096   2.002
 5799SOL    MW423517   1.974   7.100   2.084
 5800SOL     OW23518   3.241   7.176   2.307
 5800SOL    HW223519   3.304   7.166   2.236
 5800SOL    HW323520   3.158   7.196   2.262
 5800SOL    MW423521   3.238   7.177   2.292
 5801SOL     OW23522   3.604   6.444   3.993
 5801SOL    HW223523   3.645   6.386   4.058
 5801SOL    HW323524   3.511   6.436   4.010
 5801SOL    MW423525   3.598   6.436   4.003
 5802SOL     OW23526   2.398   6.627   4.222
 5802SOL    HW223527   2.488   6.602   4.206
 5802SOL    HW323528   2.394   6.720   4.199
 5802SOL    MW423529   2.410   6.636   4.217
 5803SOL     OW23530   3.514   7.330   4.364
 5803SOL    HW223531   3.526   7.276   4.442
 5803SOL    HW323532   3.551   7.278   4.293
 5803SOL    MW423533   3.520   7.315   4.365
 5804SOL     OW23534   2.893   7.215   5.365
 5804SOL    HW223535   2.934   7.251   5.286
 5804SOL    HW323536   2.928   7.126   5.372
 5804SOL    MW423537   2.904   7.208   5.356
 5805SOL     OW23538   3.450   6.770   4.969
 5805SOL    HW223539   3.371   6.735   4.927
 5805SOL    HW323540   3.477   6.842   4.913
 5805SOL    MW423541   3.443   6.775   4.956
 5806SOL     OW23542   2.682   6.083   4.235
 5806SOL    HW223543   2.657   6.171   4.263
 5806SOL    HW323544   2.679   6.086   4.139
 5806SOL    MW423545   2.678   6.095   4.227
 5807SOL     OW23546   2.124   6.111   4.163
 5807SOL    HW223547   2.156   6.199   4.145
 5807SOL    HW323548   2.112   6.109   4.258
 5807SOL    MW423549   2.127   6.123   4.175
 5808SOL     OW23550   2.202   6.524   5.064
 5808SOL    HW223551   2.265   6.471   5.015
 5808SOL    HW323552   2.183   6.598   5.007
 5808SOL    MW423553   2.208   6.526   5.051
 5809SOL     OW23554   2.523   5.866   4.250
 5809SOL    HW223555   2.581   5.942   4.252
 5809SOL    HW323556   2.458   5.887   4.183
 5809SOL    MW423557   2.522   5.878   4.241
 5810SOL     OW23558   2.610   6.793   4.425
 5810SOL    HW223559   2.690   6.796   4.477
 5810SOL    HW323560   2.638   6.760   4.339
 5810SOL    MW423561   2.624   6.789   4.420
 5811SOL     OW23562   2.635   7.134   5.328
 5811SOL    HW223563   2.719   7.160   5.367
 5811SOL    HW323564   2.659   7.078   5.254
 5811SOL    MW423565   2.649   7.130   5.323
 5812SOL     OW23566   2.387   6.297   4.416
 5812SOL    HW223567   2.372   6.217   4.467
 5812SOL    HW323568   2.469   6.332   4.450
 5812SOL    MW423569   2.395   6.289   4.428
 5813SOL     OW23570   2.724   6.983   5.101
 5813SOL    HW223571   2.688   7.049   5.041
 5813SOL    HW323572   2.652   6.921   5.114
 5813SOL    MW423573   2.710   6.983   5.095
 5814SOL     OW23574   2.275   6.537   4.697
 5814SOL    HW223575   2.230   6.544   4.613
 5814SOL    HW323576   2.255   6.620   4.741
 5814SOL    MW423577   2.267   6.549   4.691
 5815SOL     OW23578   1.972   7.383   4.572
 5815SOL    HW223579   2.061   7.375   4.607
 5815SOL    HW323580   1.936   7.295   4.577
 5815SOL    MW423581   1.979   7.370   4.577
 5816SOL     OW23582   3.237   6.775   3.941
 5816SOL    HW223583   3.155   6.811   3.907
 5816SOL    HW323584   3.305   6.818   3.890
 5816SOL    MW423585   3.235   6.785   3.929
 5817SOL     OW23586   2.236   6.910   4.607
 5817SOL    HW223587   2.212   6.963   4.683
 5817SOL    HW323588   2.292   6.968   4.555
 5817SOL    MW423589   2.240   6.925   4.610
 5818SOL     OW23590   2.798   6.554   4.417
 5818SOL    HW223591   2.712   6.541   4.457
 5818SOL    HW323592   2.851   6.481   4.449
 5818SOL    MW423593   2.794   6.543   4.426
 5819SOL     OW23594   2.206   7.206   5.202
 5819SOL    HW223595   2.114   7.182   5.187
 5819SOL    HW323596   2.250   7.123   5.219
 5819SOL    MW423597   2.200   7.191   5.201
 5820SOL     OW23598   2.789   6.916   4.134
 5820SOL    HW223599   2.766   6.978   4.202
 5820SOL    HW323600   2.746   6.834   4.160
 5820SOL    MW423601   2.781   6.912   4.145
 5821SOL     OW23602   3.662   5.917   4.590
 5821SOL    HW223603   3.599   5.897   4.659
 5821SOL    HW323604   3.652   5.846   4.527
 5821SOL    MW423605   3.652   5.904   4.591
 5822SOL     OW23606   2.286   5.889   4.102
 5822SOL    HW223607   2.260   5.851   4.018
 5822SOL    HW323608   2.223   5.959   4.118
 5822SOL    MW423609   2.275   5.892   4.093
 5823SOL     OW23610   2.121   6.850   4.139
 5823SOL    HW223611   2.069   6.918   4.095
 5823SOL    HW323612   2.118   6.776   4.079
 5823SOL    MW423613   2.113   6.849   4.126
 5824SOL     OW23614   2.783   7.313   3.917
 5824SOL    HW223615   2.738   7.329   4.000
 5824SOL    HW323616   2.714   7.278   3.859
 5824SOL    MW423617   2.769   7.310   3.919
 5825SOL     OW23618   3.718   6.086   3.892
 5825SOL    HW223619   3.627   6.088   3.920
 5825SOL    HW323620   3.763   6.148   3.950
 5825SOL    MW423621   3.711   6.094   3.902
 5826SOL     OW23622   3.463   6.689   4.242
 5826SOL    HW223623   3.373   6.689   4.277
 5826SOL    HW323624   3.456   6.735   4.159
 5826SOL    MW423625   3.450   6.695   4.236
 5827SOL     OW23626   2.004   7.204   4.866
 5827SOL    HW223627   1.987   7.150   4.943
 5827SOL    HW323628   1.992   7.294   4.896
 5827SOL    MW423629   2.001   7.208   4.880
 5828SOL     OW23630   2.999   6.711   5.306
 5828SOL    HW223631   2.984   6.804   5.291
 5828SOL    HW323632   3.094   6.701   5.306
 5828SOL    MW423633   3.008   6.721   5.303
 5829SOL     OW23634   2.795   6.135   5.507
 5829SOL    HW223635   2.885   6.136   5.474
 5829SOL    HW323636   2.754   6.060   5.465
 5829SOL    MW423637   2.801   6.125   5.498
 5830SOL     OW23638   3.370   6.667   4.634
 5830SOL    HW223639   3.373   6.601   4.565
 5830SOL    HW323640   3.455   6.710   4.630
 5830SOL    MW423641   3.382   6.663   4.625
 5831SOL     OW23642   2.990   6.270   4.203
 5831SOL    HW223643   3.016   6.294   4.114
 5831SOL    HW323644   2.972   6.177   4.199
 5831SOL    MW423645   2.992   6.262   4.190
 5832SOL     OW23646   3.655   6.890   4.054
 5832SOL    HW223647   3.611   6.931   4.129
 5832SOL    HW323648   3.712   6.958   4.019
 5832SOL    MW423649   3.657   6.904   4.059
 5833SOL     OW23650   2.575   5.939   5.457
 5833SOL    HW223651   2.585   5.865   5.397
 5833SOL    HW323652   2.611   5.908   5.540
 5833SOL    MW423653   2.581   5.925   5.459
 5834SOL     OW23654   2.311   7.306   4.372
 5834SOL    HW223655   2.343   7.394   4.350
 5834SOL    HW323656   2.264   7.278   4.294
 5834SOL    MW423657   2.310   7.314   4.359
 5835SOL     OW23658   3.695   5.668   4.421
 5835SOL    HW223659   3.749   5.619   4.483
 5835SOL    HW323660   3.638   5.602   4.382
 5835SOL    MW423661   3.695   5.652   4.423
 5836SOL     OW23662   2.027   7.366   3.949
 5836SOL    HW223663   2.056   7.456   3.941
 5836SOL    HW323664   1.977   7.349   3.870
 5836SOL    MW423665   2.025   7.374   3.938
 5837SOL     OW23666   3.431   7.174   3.920
 5837SOL    HW223667   3.479   7.243   3.966
 5837SOL    HW323668   3.352   7.218   3.889
 5837SOL    MW423669   3.426   7.188   3.923
 5838SOL     OW23670   2.829   6.299   3.864
 5838SOL    HW223671   2.831   6.246   3.785
 5838SOL    HW323672   2.917   6.336   3.870
 5838SOL    MW423673   2.841   6.298   3.853
 5839SOL     OW23674   3.443   6.225   4.200
 5839SOL    HW223675   3.482   6.225   4.287
 5839SOL    HW323676   3.384   6.301   4.200
 5839SOL    MW423677   3.440   6.236   4.211
 5840SOL     OW23678   2.760   6.592   5.329
 5840SOL    HW223679   2.737   6.572   5.419
 5840SOL    HW323680   2.845   6.636   5.334
 5840SOL    MW423681   2.767   6.595   5.341
 5841SOL     OW23682   2.840   5.729   5.089
 5841SOL    HW223683   2.846   5.691   5.002
 5841SOL    HW323684   2.829   5.823   5.074
 5841SOL    MW423685   2.841   5.737   5.077
 5842SOL     OW23686   3.479   6.186   5.200
 5842SOL    HW223687   3.460   6.095   5.179
 5842SOL    HW323688   3.457   6.235   5.121
 5842SOL    MW423689   3.474   6.179   5.187
 5843SOL     OW23690   3.621   7.280   5.104
 5843SOL    HW223691   3.549   7.242   5.155
 5843SOL    HW323692   3.638   7.365   5.145
 5843SOL    MW423693   3.615   7.285   5.116
 5844SOL     OW23694   2.926   5.924   5.306
 5844SOL    HW223695   2.892   5.963   5.225
 5844SOL    HW323696   2.904   5.832   5.299
 5844SOL    MW423697   2.919   5.917   5.296
 5845SOL     OW23698   3.335   6.738   5.382
 5845SOL    HW223699   3.417   6.779   5.412
 5845SOL    HW323700   3.298   6.700   5.462
 5845SOL    MW423701   3.341   6.739   5.397
 5846SOL     OW23702   3.630   6.111   4.366
 5846SOL    HW223703   3.719   6.080   4.383
 5846SOL    HW323704   3.573   6.051   4.414
 5846SOL    MW423705   3.633   6.099   4.375
 5847SOL     OW23706   2.056   5.825   4.395
 5847SOL    HW223707   2.047   5.765   4.321
 5847SOL    HW323708   1.989   5.796   4.458
 5847SOL    MW423709   2.046   5.812   4.393
 5848SOL     OW23710   2.999   6.918   3.956
 5848SOL    HW223711   2.949   6.920   4.038
 5848SOL    HW323712   2.933   6.936   3.888
 5848SOL    MW423713   2.985   6.920   3.958
 5849SOL     OW23714   2.462   7.336   4.064
 5849SOL    HW223715   2.383   7.294   4.097
 5849SOL    HW323716   2.528   7.319   4.131
 5849SOL    MW423717   2.461   7.328   4.077
 5850SOL     OW23718   3.590   6.856   5.461
 5850SOL    HW223719   3.640   6.782   5.493
 5850SOL    HW323720   3.536   6.883   5.536
 5850SOL    MW423721   3.590   6.850   5.474
 5851SOL     OW23722   2.598   6.751   3.771
 5851SOL    HW223723   2.520   6.697   3.758
 5851SOL    HW323724   2.569   6.824   3.824
 5851SOL    MW423725   2.584   6.753   3.776
 5852SOL     OW23726   3.724   6.491   4.963
 5852SOL    HW223727   3.740   6.529   4.876
 5852SOL    HW323728   3.758   6.557   5.024
 5852SOL    MW423729   3.731   6.504   4.959
 5853SOL     OW23730   3.516   7.200   4.632
 5853SOL    HW223731   3.545   7.267   4.693
 5853SOL    HW323732   3.497   7.124   4.687
 5853SOL    MW423733   3.518   7.200   4.647
 5854SOL     OW23734   3.179   7.267   3.839
 5854SOL    HW223735   3.105   7.230   3.889
 5854SOL    HW323736   3.187   7.357   3.872
 5854SOL    MW423737   3.170   7.274   3.851
 5855SOL     OW23738   3.403   6.941   3.781
 5855SOL    HW223739   3.350   6.990   3.717
 5855SOL    HW323740   3.434   7.007   3.842
 5855SOL    MW423741   3.401   6.955   3.779
 5856SOL     OW23742   2.628   5.830   3.836
 5856SOL    HW223743   2.576   5.750   3.824
 5856SOL    HW323744   2.715   5.807   3.804
 5856SOL    MW423745   2.631   5.816   3.830
 5857SOL     OW23746   2.082   7.382   5.380
 5857SOL    HW223747   2.056   7.450   5.318
 5857SOL    HW323748   2.130   7.319   5.328
 5857SOL    MW423749   2.084   7.382   5.366
 5858SOL     OW23750   2.134   6.701   4.887
 5858SOL    HW223751   2.187   6.776   4.912
 5858SOL    HW323752   2.053   6.739   4.853
 5858SOL    MW423753   2.130   6.716   4.887
 5859SOL     OW23754   2.674   6.605   4.875
 5859SOL    HW223755   2.702   6.514   4.887
 5859SOL    HW323756   2.603   6.599   4.811
 5859SOL    MW423757   2.667   6.593   4.870
 5860SOL     OW23758   1.989   6.470   4.293
 5860SOL    HW223759   2.080   6.485   4.320
 5860SOL    HW323760   1.992   6.391   4.239
 5860SOL    MW423761   2.001   6.462   4.291
 5861SOL     OW23762   2.225   6.178   5.547
 5861SOL    HW223763   2.172   6.258   5.554
 5861SOL    HW323764   2.295   6.190   5.612
 5861SOL    MW423765   2.227   6.191   5.555
 5862SOL     OW23766   2.295   6.252   5.293
 5862SOL    HW223767   2.375   6.302   5.279
 5862SOL    HW323768   2.286   6.246   5.388
 5862SOL    MW423769   2.304   6.258   5.303
 5863SOL     OW23770   2.616   7.402   4.667
 5863SOL    HW223771   2.705   7.417   4.697
 5863SOL    HW323772   2.611   7.449   4.583
 5863SOL    MW423773   2.626   7.410   4.660
 5864SOL     OW23774   3.272   5.777   5.564
 5864SOL    HW223775   3.328   5.704   5.590
 5864SOL    HW323776   3.242   5.815   5.646
 5864SOL    MW423777   3.276   5.772   5.577
 5865SOL     OW23778   1.997   7.082   4.332
 5865SOL    HW223779   1.969   7.121   4.414
 5865SOL    HW323780   2.017   6.991   4.354
 5865SOL    MW423781   1.995   7.074   4.345
 5866SOL     OW23782   2.830   7.125   4.367
 5866SOL    HW223783   2.913   7.079   4.351
 5866SOL    HW323784   2.820   7.124   4.463
 5866SOL    MW423785   2.840   7.118   4.377
 5867SOL     OW23786   3.662   6.270   4.681
 5867SOL    HW223787   3.751   6.300   4.663
 5867SOL    HW323788   3.642   6.210   4.610
 5867SOL    MW423789   3.671   6.267   4.670
 5868SOL     OW23790   3.513   6.449   5.561
 5868SOL    HW223791   3.568   6.373   5.542
 5868SOL    HW323792   3.515   6.457   5.656
 5868SOL    MW423793   3.521   6.440   5.569
 5869SOL     OW23794   2.563   7.182   3.772
 5869SOL    HW223795   2.503   7.251   3.742
 5869SOL    HW323796   2.508   7.124   3.825
 5869SOL    MW423797   2.547   7.184   3.774
 5870SOL     OW23798   2.808   6.011   5.080
 5870SOL    HW223799   2.727   6.052   5.108
 5870SOL    HW323800   2.855   6.079   5.032
 5870SOL    MW423801   2.803   6.026   5.078
 5871SOL     OW23802   2.520   6.544   4.507
 5871SOL    HW223803   2.431   6.535   4.540
 5871SOL    HW323804   2.524   6.634   4.475
 5871SOL    MW423805   2.509   6.555   4.507
 5872SOL     OW23806   3.319   6.127   4.502
 5872SOL    HW223807   3.264   6.048   4.501
 5872SOL    HW323808   3.301   6.168   4.586
 5872SOL    MW423809   3.309   6.122   4.511
 5873SOL     OW23810   2.938   6.331   4.459
 5873SOL    HW223811   2.875   6.263   4.483
 5873SOL    HW323812   2.958   6.312   4.367
 5873SOL    MW423813   2.932   6.318   4.451
 5874SOL     OW23814   2.194   7.226   4.161
 5874SOL    HW223815   2.155   7.273   4.087
 5874SOL    HW323816   2.128   7.161   4.186
 5874SOL    MW423817   2.181   7.224   4.155
 5875SOL     OW23818   2.686   6.635   4.185
 5875SOL    HW223819   2.688   6.609   4.092
 5875SOL    HW323820   2.744   6.572   4.228
 5875SOL    MW423821   2.694   6.624   4.179
 5876SOL     OW23822   3.239   7.195   4.957
 5876SOL    HW223823   3.164   7.241   4.995
 5876SOL    HW323824   3.221   7.102   4.974
 5876SOL    MW423825   3.228   7.189   4.965
 5877SOL     OW23826   3.243   7.403   4.387
 5877SOL    HW223827   3.186   7.356   4.326
 5877SOL    HW323828   3.329   7.364   4.374
 5877SOL    MW423829   3.246   7.394   4.377
 5878SOL     OW23830   3.196   5.879   4.518
 5878SOL    HW223831   3.224   5.811   4.579
 5878SOL    HW323832   3.110   5.850   4.488
 5878SOL    MW423833   3.189   5.866   4.522
 5879SOL     OW23834   2.001   6.813   4.452
 5879SOL    HW223835   2.065   6.845   4.515
 5879SOL    HW323836   2.050   6.749   4.400
 5879SOL    MW423837   2.016   6.809   4.453
 5880SOL     OW23838   2.501   6.889   5.434
 5880SOL    HW223839   2.549   6.972   5.421
 5880SOL    HW323840   2.558   6.837   5.490
 5880SOL    MW423841   2.515   6.893   5.440
 5881SOL     OW23842   2.077   7.131   5.574
 5881SOL    HW223843   2.133   7.055   5.589
 5881SOL    HW323844   2.026   7.109   5.496
 5881SOL    MW423845   2.077   7.118   5.565
 5882SOL     OW23846   2.844   5.688   3.790
 5882SOL    HW223847   2.900   5.680   3.712
 5882SOL    HW323848   2.821   5.598   3.812
 5882SOL    MW423849   2.849   5.675   3.783
 5883SOL     OW23850   3.349   6.539   3.995
 5883SOL    HW223851   3.316   6.628   3.985
 5883SOL    HW323852   3.314   6.510   4.080
 5883SOL    MW423853   3.339   6.548   4.006
 5884SOL     OW23854   2.962   6.968   5.183
 5884SOL    HW223855   2.873   6.974   5.151
 5884SOL    HW323856   3.006   7.047   5.151
 5884SOL    MW423857   2.957   6.978   5.175
 5885SOL     OW23858   2.255   5.636   5.525
 5885SOL    HW223859   2.183   5.601   5.473
 5885SOL    HW323860   2.313   5.677   5.460
 5885SOL    MW423861   2.253   5.637   5.510
 5886SOL     OW23862   2.279   7.126   4.824
 5886SOL    HW223863   2.324   7.188   4.881
 5886SOL    HW323864   2.186   7.145   4.837
 5886SOL    MW423865   2.272   7.136   4.831
 5887SOL     OW23866   3.719   6.655   5.178
 5887SOL    HW223867   3.634   6.668   5.137
 5887SOL    HW323868   3.699   6.619   5.265
 5887SOL    MW423869   3.706   6.651   5.183
 5888SOL     OW23870   2.701   7.194   4.932
 5888SOL    HW223871   2.725   7.183   4.841
 5888SOL    HW323872   2.624   7.251   4.930
 5888SOL    MW423873   2.693   7.199   4.921
 5889SOL     OW23874   2.343   6.577   3.787
 5889SOL    HW223875   2.266   6.590   3.843
 5889SOL    HW323876   2.307   6.541   3.706
 5889SOL    MW423877   2.329   6.573   3.784
 5890SOL     OW23878   2.996   6.550   4.030
 5890SOL    HW223879   2.906   6.571   4.005
 5890SOL    HW323880   3.023   6.623   4.086
 5890SOL    MW423881   2.988   6.562   4.033
 5891SOL     OW23882   2.496   6.899   4.722
 5891SOL    HW223883   2.489   6.878   4.816
 5891SOL    HW323884   2.414   6.867   4.685
 5891SOL    MW423885   2.484   6.893   4.729
 5892SOL     OW23886   3.360   5.909   5.124
 5892SOL    HW223887   3.307   5.911   5.204
 5892SOL    HW323888   3.345   5.822   5.087
 5892SOL    MW423889   3.352   5.899   5.129
 5893SOL     OW23890   3.696   5.833   4.997
 5893SOL    HW223891   3.677   5.900   4.932
 5893SOL    HW323892   3.753   5.771   4.952
 5893SOL    MW423893   3.700   5.834   4.983
 5894SOL     OW23894   1.942   6.991   5.385
 5894SOL    HW223895   1.986   6.924   5.331
 5894SOL    HW323896   1.857   6.953   5.405
 5894SOL    MW423897   1.937   6.977   5.381
 5895SOL     OW23898   2.625   5.666   4.437
 5895SOL    HW223899   2.554   5.727   4.419
 5895SOL    HW323900   2.676   5.663   4.356
 5895SOL    MW423901   2.621   5.672   4.424
 5896SOL     OW23902   2.383   6.906   4.186
 5896SOL    HW223903   2.376   6.938   4.276
 5896SOL    HW323904   2.293   6.890   4.158
 5896SOL    MW423905   2.371   6.908   4.193
 5897SOL     OW23906   2.978   7.299   5.095
 5897SOL    HW223907   2.898   7.284   5.045
 5897SOL    HW323908   2.985   7.394   5.102
 5897SOL    MW423909   2.969   7.310   5.089
 5898SOL     OW23910   3.092   7.264   4.585
 5898SOL    HW223911   3.139   7.337   4.544
 5898SOL    HW323912   3.013   7.303   4.621
 5898SOL    MW423913   3.087   7.279   4.584
 5899SOL     OW23914   3.500   7.359   4.860
 5899SOL    HW223915   3.543   7.329   4.940
 5899SOL    HW323916   3.419   7.307   4.857
 5899SOL    MW423917   3.495   7.348   4.870
 5900SOL     OW23918   2.585   6.323   5.567
 5900SOL    HW223919   2.655   6.265   5.539
 5900SOL    HW323920   2.528   6.268   5.622
 5900SOL    MW423921   2.587   6.310   5.571
 5901SOL     OW23922   3.012   5.670   5.446
 5901SOL    HW223923   3.007   5.577   5.427
 5901SOL    HW323924   3.095   5.681   5.492
 5901SOL    MW423925   3.020   5.659   5.450
 5902SOL     OW23926   2.386   6.190   3.900
 5902SOL    HW223927   2.352   6.246   3.970
 5902SOL    HW323928   2.457   6.140   3.940
 5902SOL    MW423929   2.392   6.191   3.914
 5903SOL     OW23930   3.482   6.941   4.722
 5903SOL    HW223931   3.517   6.923   4.635
 5903SOL    HW323932   3.387   6.942   4.709
 5903SOL    MW423933   3.474   6.938   4.709
 5904SOL     OW23934   2.911   6.589   5.091
 5904SOL    HW223935   2.954   6.624   5.169
 5904SOL    HW323936   2.894   6.666   5.037
 5904SOL    MW423937   2.914   6.604   5.094
 5905SOL     OW23938   2.302   5.731   4.393
 5905SOL    HW223939   2.352   5.774   4.324
 5905SOL    HW323940   2.217   5.775   4.393
 5905SOL    MW423941   2.299   5.744   4.384
 5906SOL     OW23942   2.061   6.793   5.253
 5906SOL    HW223943   2.089   6.746   5.331
 5906SOL    HW323944   1.982   6.748   5.224
 5906SOL    MW423945   2.054   6.782   5.259
 5907SOL     OW23946   3.111   6.338   3.939
 5907SOL    HW223947   3.158   6.356   3.858
 5907SOL    HW323948   3.077   6.422   3.967
 5907SOL    MW423949   3.113   6.352   3.932
 5908SOL     OW23950   2.224   6.516   4.433
 5908SOL    HW223951   2.282   6.572   4.381
 5908SOL    HW323952   2.268   6.431   4.435
 5908SOL    MW423953   2.237   6.513   4.426
 5909SOL     OW23954   2.846   7.080   3.761
 5909SOL    HW223955   2.873   7.158   3.713
 5909SOL    HW323956   2.753   7.095   3.780
 5909SOL    MW423957   2.837   7.093   3.757
 5910SOL     OW23958   3.710   6.603   5.448
 5910SOL    HW223959   3.623   6.583   5.484
 5910SOL    HW323960   3.764   6.529   5.473
 5910SOL    MW423961   3.705   6.592   5.456
 5911SOL     OW23962   1.931   7.116   4.605
 5911SOL    HW223963   1.963   7.120   4.696
 5911SOL    HW323964   1.836   7.124   4.613
 5911SOL    MW423965   1.923   7.119   4.618
 5912SOL     OW23966   1.886   6.242   4.152
 5912SOL    HW223967   1.826   6.214   4.222
 5912SOL    HW323968   1.960   6.182   4.158
 5912SOL    MW423969   1.888   6.231   4.161
 5913SOL     OW23970   3.054   6.973   4.312
 5913SOL    HW223971   3.077   6.924   4.390
 5913SOL    HW323972   3.135   7.015   4.284
 5913SOL    MW423973   3.067   6.973   4.319
 5914SOL     OW23974   3.095   6.157   5.468
 5914SOL    HW223975   3.147   6.092   5.421
 5914SOL    HW323976   3.053   6.208   5.398
 5914SOL    MW423977   3.096   6.154   5.451
 5915SOL     OW23978   3.194   5.952   5.329
 5915SOL    HW223979   3.101   5.936   5.316
 5915SOL    HW323980   3.220   5.890   5.397
 5915SOL    MW423981   3.184   5.942   5.336
 5916SOL     OW23982   2.409   5.726   4.668
 5916SOL    HW223983   2.419   5.635   4.694
 5916SOL    HW323984   2.365   5.722   4.583
 5916SOL    MW423985   2.405   5.714   4.660
 5917SOL     OW23986   2.503   7.341   5.214
 5917SOL    HW223987   2.420   7.326   5.259
 5917SOL    HW323988   2.562   7.274   5.249
 5917SOL    MW423989   2.501   7.331   5.224
 5918SOL     OW23990   3.560   6.048   4.839
 5918SOL    HW223991   3.493   6.081   4.899
 5918SOL    HW323992   3.603   6.126   4.805
 5918SOL    MW423993   3.558   6.063   4.843
 5919SOL     OW23994   3.738   6.768   4.809
 5919SOL    HW223995   3.731   6.708   4.734
 5919SOL    HW323996   3.664   6.828   4.798
 5919SOL    MW423997   3.728   6.768   4.798
 5920SOL     OW23998   3.120   6.630   4.727
 5920SOL    HW223999   3.134   6.602   4.818
 5920SOL    HW324000   3.206   6.661   4.699
 5920SOL    MW424001   3.133   6.631   4.736
 5921SOL     OW24002   3.696   6.256   5.548
 5921SOL    HW224003   3.733   6.201   5.617
 5921SOL    HW324004   3.721   6.213   5.466
 5921SOL    MW424005   3.703   6.244   5.547
 5922SOL     OW24006   3.243   6.554   5.600
 5922SOL    HW224007   3.309   6.502   5.554
 5922SOL    HW324008   3.263   6.541   5.693
 5922SOL    MW424009   3.254   6.545   5.607
 5923SOL     OW24010   3.254   6.415   4.226
 5923SOL    HW224011   3.169   6.385   4.196
 5923SOL    HW324012   3.246   6.422   4.321
 5923SOL    MW424013   3.242   6.413   4.235
 5924SOL     OW24014   2.330   6.878   4.957
 5924SOL    HW224015   2.342   6.905   5.048
 5924SOL    HW324016   2.311   6.959   4.910
 5924SOL    MW424017   2.329   6.893   4.962
 5925SOL     OW24018   2.468   7.350   4.942
 5925SOL    HW224019   2.520   7.427   4.919
 5925SOL    HW324020   2.477   7.342   5.037
 5925SOL    MW424021   2.477   7.357   4.953
 5926SOL     OW24022   3.370   6.935   5.174
 5926SOL    HW224023   3.355   6.864   5.237
 5926SOL    HW324024   3.416   6.893   5.102
 5926SOL    MW424025   3.376   6.919   5.174
 5927SOL     OW24026   2.444   6.666   5.291
 5927SOL    HW224027   2.481   6.671   5.203
 5927SOL    HW324028   2.483   6.739   5.338
 5927SOL    MW424029   2.454   6.676   5.286
 5928SOL     OW24030   2.624   6.709   5.103
 5928SOL    HW224031   2.683   6.655   5.156
 5928SOL    HW324032   2.639   6.681   5.013
 5928SOL    MW424033   2.634   6.698   5.099
 5929SOL     OW24034   2.627   6.081   3.952
 5929SOL    HW224035   2.700   6.130   3.915
 5929SOL    HW324036   2.643   5.990   3.926
 5929SOL    MW424037   2.639   6.076   3.945
 5930SOL     OW24038   3.435   7.198   5.275
 5930SOL    HW224039   3.477   7.183   5.360
 5930SOL    HW324040   3.426   7.111   5.237
 5930SOL    MW424041   3.439   7.186   5.282
 5931SOL     OW24042   2.102   6.590   4.050
 5931SOL    HW224043   2.039   6.606   3.979
 5931SOL    HW324044   2.049   6.553   4.121
 5931SOL    MW424045   2.087   6.587   4.050
 5932SOL     OW24046   2.458   6.944   3.909
 5932SOL    HW224047   2.473   6.920   4.001
 5932SOL    HW324048   2.366   6.922   3.893
 5932SOL    MW424049   2.448   6.937   3.919
 5933SOL     OW24050   2.997   7.175   4.061
 5933SOL    HW224051   3.005   7.093   4.012
 5933SOL    HW324052   2.916   7.214   4.028
 5933SOL    MW424053   2.987   7.170   4.051
 5934SOL     OW24054   2.256   7.333   4.630
 5934SOL    HW224055   2.260   7.244   4.665
 5934SOL    HW324056   2.282   7.324   4.539
 5934SOL    MW424057   2.259   7.321   4.622
 5935SOL     OW24058   2.873   6.811   4.873
 5935SOL    HW224059   2.805   6.745   4.889
 5935SOL    HW324060   2.891   6.805   4.780
 5935SOL    MW424061   2.866   6.802   4.864
 5936SOL     OW24062   1.962   7.086   5.124
 5936SOL    HW224063   1.952   7.044   5.210
 5936SOL    HW324064   1.883   7.139   5.114
 5936SOL    MW424065   1.951   7.087   5.135
 5937SOL     OW24066   2.517   6.386   5.314
 5937SOL    HW224067   2.510   6.481   5.302
 5937SOL    HW324068   2.526   6.375   5.409
 5937SOL    MW424069   2.518   6.398   5.324
 5938SOL     OW24070   2.238   6.901   5.572
 5938SOL    HW224071   2.310   6.903   5.509
 5938SOL    HW324072   2.208   6.810   5.571
 5938SOL    MW424073   2.243   6.890   5.564
 5939SOL     OW24074   3.322   5.664   5.039
 5939SOL    HW224075   3.393   5.610   5.003
 5939SOL    HW324076   3.321   5.643   5.132
 5939SOL    MW424077   3.331   5.655   5.047
 5940SOL     OW24078   3.522   7.194   5.523
 5940SOL    HW224079   3.495   7.191   5.614
 5940SOL    HW324080   3.618   7.198   5.526
 5940SOL    MW424081   3.532   7.194   5.535
 5941SOL     OW24082   2.333   6.056   4.507
 5941SOL    HW224083   2.404   6.004   4.470
 5941SOL    HW324084   2.319   6.021   4.594
 5941SOL    MW424085   2.341   6.045   4.514
 5942SOL     OW24086   1.888   7.391   5.579
 5942SOL    HW224087   1.938   7.369   5.501
 5942SOL    HW324088   1.896   7.486   5.587
 5942SOL    MW424089   1.896   7.400   5.570
 5943SOL     OW24090   2.649   7.149   4.583
 5943SOL    HW224091   2.577   7.086   4.596
 5943SOL    HW324092   2.610   7.234   4.601
 5943SOL    MW424093   2.633   7.152   4.586
 5944SOL     OW24094   2.054   5.687   4.163
 5944SOL    HW224095   2.125   5.708   4.102
 5944SOL    HW324096   2.008   5.615   4.121
 5944SOL    MW424097   2.058   5.681   4.149
 5945SOL     OW24098   1.885   6.154   5.306
 5945SOL    HW224099   1.949   6.220   5.281
 5945SOL    HW324100   1.804   6.181   5.263
 5945SOL    MW424101   1.883   6.166   5.298
 5946SOL     OW24102   3.623   7.061   4.263
 5946SOL    HW224103   3.593   6.994   4.324
 5946SOL    HW324104   3.717   7.067   4.277
 5946SOL    MW424105   3.631   7.053   4.273
 5947SOL     OW24106   3.179   6.738   4.193
 5947SOL    HW224107   3.151   6.824   4.226
 5947SOL    HW324108   3.207   6.754   4.103
 5947SOL    MW424109   3.179   6.752   4.185
 5948SOL     OW24110   3.694   6.540   4.668
 5948SOL    HW224111   3.685   6.572   4.579
 5948SOL    HW324112   3.647   6.456   4.668
 5948SOL    MW424113   3.687   6.533   4.658
 5949SOL     OW24114   2.070   6.380   5.247
 5949SOL    HW224115   2.091   6.449   5.185
 5949SOL    HW324116   2.150   6.327   5.252
 5949SOL    MW424117   2.083   6.381   5.241
 5950SOL     OW24118   3.606   6.471   4.369
 5950SOL    HW224119   3.700   6.460   4.357
 5950SOL    HW324120   3.582   6.543   4.310
 5950SOL    MW424121   3.616   6.479   4.360
 5951SOL     OW24122   2.055   6.395   5.514
 5951SOL    HW224123   1.981   6.339   5.540
 5951SOL    HW324124   2.050   6.398   5.419
 5951SOL    MW424125   2.044   6.388   5.504
 5952SOL     OW24126   2.262   6.349   4.142
 5952SOL    HW224127   2.262   6.444   4.127
 5952SOL    HW324128   2.339   6.333   4.196
 5952SOL    MW424129   2.272   6.360   4.147
 5953SOL     OW24130   2.021   6.080   4.431
 5953SOL    HW224131   2.083   6.087   4.504
 5953SOL    HW324132   2.021   5.987   4.408
 5953SOL    MW424133   2.029   6.069   4.438
 5954SOL     OW24134   2.703   6.341   4.915
 5954SOL    HW224135   2.661   6.259   4.891
 5954SOL    HW324136   2.704   6.340   5.011
 5954SOL    MW424137   2.696   6.330   4.924
 5955SOL     OW24138   1.890   6.652   3.889
 5955SOL    HW224139   1.859   6.717   3.952
 5955SOL    HW324140   1.839   6.574   3.908
 5955SOL    MW424141   1.880   6.649   3.899
 5956SOL     OW24142   3.302   5.664   4.637
 5956SOL    HW224143   3.390   5.673   4.674
 5956SOL    HW324144   3.312   5.605   4.563
 5956SOL    MW424145   3.316   5.658   4.631
 5957SOL     OW24146   3.334   6.403   4.481
 5957SOL    HW224147   3.414   6.418   4.430
 5957SOL    HW324148   3.327   6.308   4.487
 5957SOL    MW424149   3.343   6.392   4.476
 5958SOL     OW24150   2.474   7.452   3.831
 5958SOL    HW224151   2.379   7.452   3.823
 5958SOL    HW324152   2.490   7.398   3.909
 5958SOL    MW424153   2.464   7.446   3.840
 5959SOL     OW24154   2.784   6.329   5.178
 5959SOL    HW224155   2.853   6.396   5.175
 5959SOL    HW324156   2.717   6.367   5.234
 5959SOL    MW424157   2.785   6.342   5.185
 5960SOL     OW24158   2.202   6.629   5.426
 5960SOL    HW224159   2.156   6.545   5.428
 5960SOL    HW324160   2.259   6.623   5.350
 5960SOL    MW424161   2.204   6.617   5.418
 5961SOL     OW24162   2.453   7.004   4.427
 5961SOL    HW224163   2.518   6.937   4.448
 5961SOL    HW324164   2.505   7.081   4.404
 5961SOL    MW424165   2.468   7.006   4.426
 5962SOL     OW24166   3.655   5.668   5.226
 5962SOL    HW224167   3.576   5.714   5.254
 5962SOL    HW324168   3.690   5.722   5.155
 5962SOL    MW424169   3.649   5.681   5.220
 5963SOL     OW24170   2.939   6.752   4.576
 5963SOL    HW224171   3.031   6.733   4.594
 5963SOL    HW324172   2.912   6.682   4.516
 5963SOL    MW424173   2.947   6.740   4.570
 5964SOL     OW24174   3.213   6.990   4.672
 5964SOL    HW224175   3.186   7.074   4.637
 5964SOL    HW324176   3.173   6.985   4.759
 5964SOL    MW424177   3.206   6.999   4.678
 5965SOL     OW24178   3.132   6.938   4.940
 5965SOL    HW224179   3.143   6.905   5.029
 5965SOL    HW324180   3.051   6.897   4.909
 5965SOL    MW424181   3.122   6.930   4.946
 5966SOL     OW24182   3.212   7.060   5.472
 5966SOL    HW224183   3.212   7.154   5.488
 5966SOL    HW324184   3.257   7.050   5.388
 5966SOL    MW424185   3.218   7.070   5.463
 5967SOL     OW24186   2.740   6.341   4.147
 5967SOL    HW224187   2.720   6.327   4.054
 5967SOL    HW324188   2.833   6.320   4.154
 5967SOL    MW424189   2.750   6.336   4.136
 5968SOL     OW24190   2.067   5.964   5.451
 5968SOL    HW224191   2.024   6.023   5.388
 5968SOL    HW324192   2.135   6.019   5.491
 5968SOL    MW424193   2.071   5.979   5.448
 5969SOL     OW24194   3.179   6.584   4.996
 5969SOL    HW224195   3.242   6.581   5.069
 5969SOL    HW324196   3.095   6.602   5.038
 5969SOL    MW424197   3.175   6.586   5.011
 5970SOL     OW24198   2.723   7.299   4.185
 5970SOL    HW224199   2.781   7.370   4.212
 5970SOL    HW324200   2.746   7.227   4.243
 5970SOL    MW424201   2.734   7.299   4.196
 5971SOL     OW24202   3.518   5.761   4.775
 5971SOL    HW224203   3.563   5.679   4.794
 5971SOL    HW324204   3.538   5.817   4.851
 5971SOL    MW424205   3.528   5.757   4.787
 5972SOL     OW24206   1.966   5.604   4.874
 5972SOL    HW224207   1.957   5.605   4.779
 5972SOL    HW324208   2.060   5.616   4.889
 5972SOL    MW424209   1.978   5.607   4.865
 5973SOL     OW24210   3.603   6.797   4.494
 5973SOL    HW224211   3.582   6.743   4.417
 5973SOL    HW324212   3.699   6.795   4.498
 5973SOL    MW424213   3.612   6.790   4.483
 5974SOL     OW24214   2.295   6.942   5.237
 5974SOL    HW224215   2.216   6.892   5.260
 5974SOL    HW324216   2.365   6.901   5.287
 5974SOL    MW424217   2.293   6.930   5.247
 5975SOL     OW24218   2.179   5.731   3.920
 5975SOL    HW224219   2.108   5.786   3.888
 5975SOL    HW324220   2.221   5.697   3.841
 5975SOL    MW424221   2.175   5.733   3.906
 5976SOL     OW24222   1.935   5.830   3.769
 5976SOL    HW224223   1.902   5.909   3.813
 5976SOL    HW324224   1.990   5.863   3.698
 5976SOL    MW424225   1.938   5.844   3.766
 5977SOL     OW24226   1.969   7.087   3.958
 5977SOL    HW224227   1.986   7.171   4.000
 5977SOL    HW324228   2.004   7.096   3.870
 5977SOL    MW424229   1.974   7.100   3.952
 5978SOL     OW24230   3.241   7.176   4.175
 5978SOL    HW224231   3.304   7.166   4.104
 5978SOL    HW324232   3.158   7.196   4.130
 5978SOL    MW424233   3.238   7.177   4.160
 5979SOL     OW24234   3.604   6.444   5.862
 5979SOL    HW224235   3.645   6.386   5.927
 5979SOL    HW324236   3.511   6.436   5.879
 5979SOL    MW424237   3.598   6.436   5.872
 5980SOL     OW24238   3.514   7.330   6.233
 5980SOL    HW224239   3.526   7.276   6.311
 5980SOL    HW324240   3.551   7.278   6.162
 5980SOL    MW424241   3.520   7.315   6.234
 5981SOL     OW24242   2.682   6.083   6.104
 5981SOL    HW224243   2.657   6.171   6.132
 5981SOL    HW324244   2.679   6.086   6.008
 5981SOL    MW424245   2.678   6.095   6.096
 5982SOL     OW24246   2.124   6.111   6.032
 5982SOL    HW224247   2.156   6.199   6.014
 5982SOL    HW324248   2.112   6.109   6.127
 5982SOL    MW424249   2.127   6.123   6.044
 5983SOL     OW24250   2.523   5.866   6.119
 5983SOL    HW224251   2.581   5.942   6.121
 5983SOL    HW324252   2.458   5.887   6.052
 5983SOL    MW424253   2.522   5.878   6.110
 5984SOL     OW24254   2.610   6.793   6.294
 5984SOL    HW224255   2.690   6.796   6.346
 5984SOL    HW324256   2.638   6.760   6.208
 5984SOL    MW424257   2.624   6.789   6.289
 5985SOL     OW24258   2.387   6.297   6.285
 5985SOL    HW224259   2.372   6.217   6.336
 5985SOL    HW324260   2.469   6.332   6.319
 5985SOL    MW424261   2.395   6.289   6.297
 5986SOL     OW24262   2.529   6.123   6.662
 5986SOL    HW224263   2.435   6.119   6.680
 5986SOL    HW324264   2.559   6.032   6.671
 5986SOL    MW424265   2.520   6.111   6.665
 5987SOL     OW24266   2.275   6.537   6.566
 5987SOL    HW224267   2.230   6.544   6.482
 5987SOL    HW324268   2.255   6.620   6.610
 5987SOL    MW424269   2.267   6.549   6.560
 5988SOL     OW24270   1.972   7.383   6.441
 5988SOL    HW224271   2.061   7.375   6.476
 5988SOL    HW324272   1.936   7.295   6.446
 5988SOL    MW424273   1.979   7.370   6.446
 5989SOL     OW24274   3.237   6.775   5.810
 5989SOL    HW224275   3.155   6.811   5.776
 5989SOL    HW324276   3.305   6.818   5.759
 5989SOL    MW424277   3.235   6.785   5.798
 5990SOL     OW24278   2.236   6.910   6.476
 5990SOL    HW224279   2.212   6.963   6.552
 5990SOL    HW324280   2.292   6.968   6.424
 5990SOL    MW424281   2.240   6.925   6.479
 5991SOL     OW24282   2.798   6.554   6.286
 5991SOL    HW224283   2.712   6.541   6.326
 5991SOL    HW324284   2.851   6.481   6.318
 5991SOL    MW424285   2.794   6.543   6.295
 5992SOL     OW24286   2.789   6.916   6.003
 5992SOL    HW224287   2.766   6.978   6.071
 5992SOL    HW324288   2.746   6.834   6.029
 5992SOL    MW424289   2.781   6.912   6.014
 5993SOL     OW24290   3.662   5.917   6.459
 5993SOL    HW224291   3.599   5.897   6.528
 5993SOL    HW324292   3.652   5.846   6.396
 5993SOL    MW424293   3.652   5.904   6.460
 5994SOL     OW24294   2.286   5.889   5.971
 5994SOL    HW224295   2.260   5.851   5.887
 5994SOL    HW324296   2.223   5.959   5.987
 5994SOL    MW424297   2.275   5.892   5.962
 5995SOL     OW24298   2.121   6.850   6.008
 5995SOL    HW224299   2.069   6.918   5.964
 5995SOL    HW324300   2.118   6.776   5.948
 5995SOL    MW424301   2.113   6.849   5.995
 5996SOL     OW24302   2.783   7.313   5.786
 5996SOL    HW224303   2.738   7.329   5.869
 5996SOL    HW324304   2.714   7.278   5.728
 5996SOL    MW424305   2.769   7.310   5.788
 5997SOL     OW24306   3.718   6.086   5.761
 5997SOL    HW224307   3.627   6.088   5.789
 5997SOL    HW324308   3.763   6.148   5.819
 5997SOL    MW424309   3.711   6.094   5.771
 5998SOL     OW24310   3.463   6.689   6.111
 5998SOL    HW224311   3.373   6.689   6.146
 5998SOL    HW324312   3.456   6.735   6.028
 5998SOL    MW424313   3.450   6.695   6.105
 5999SOL     OW24314   2.004   7.204   6.735
 5999SOL    HW224315   1.987   7.150   6.812
 5999SOL    HW324316   1.992   7.294   6.765
 5999SOL    MW424317   2.001   7.208   6.749
 6000SOL     OW24318   3.370   6.667   6.503
 6000SOL    HW224319   3.373   6.601   6.434
 6000SOL    HW324320   3.455   6.710   6.499
 6000SOL    MW424321   3.382   6.663   6.494
 6001SOL     OW24322   2.990   6.270   6.072
 6001SOL    HW224323   3.016   6.294   5.983
 6001SOL    HW324324   2.972   6.177   6.068
 6001SOL    MW424325   2.992   6.262   6.059
 6002SOL     OW24326   3.655   6.890   5.923
 6002SOL    HW224327   3.611   6.931   5.998
 6002SOL    HW324328   3.712   6.958   5.888
 6002SOL    MW424329   3.657   6.904   5.928
 6003SOL     OW24330   2.311   7.306   6.241
 6003SOL    HW224331   2.343   7.394   6.219
 6003SOL    HW324332   2.264   7.278   6.163
 6003SOL    MW424333   2.310   7.314   6.228
 6004SOL     OW24334   3.695   5.668   6.290
 6004SOL    HW224335   3.749   5.619   6.352
 6004SOL    HW324336   3.638   5.602   6.251
 6004SOL    MW424337   3.695   5.652   6.292
 6005SOL     OW24338   2.027   7.366   5.818
 6005SOL    HW224339   2.056   7.456   5.810
 6005SOL    HW324340   1.977   7.349   5.739
 6005SOL    MW424341   2.025   7.374   5.807
 6006SOL     OW24342   2.814   5.621   6.703
 6006SOL    HW224343   2.773   5.699   6.665
 6006SOL    HW324344   2.908   5.639   6.698
 6006SOL    MW424345   2.820   5.633   6.698
 6007SOL     OW24346   3.431   7.174   5.789
 6007SOL    HW224347   3.479   7.243   5.835
 6007SOL    HW324348   3.352   7.218   5.758
 6007SOL    MW424349   3.426   7.188   5.792
 6008SOL     OW24350   2.829   6.299   5.733
 6008SOL    HW224351   2.831   6.246   5.654
 6008SOL    HW324352   2.917   6.336   5.739
 6008SOL    MW424353   2.841   6.298   5.722
 6009SOL     OW24354   3.443   6.225   6.069
 6009SOL    HW224355   3.482   6.225   6.156
 6009SOL    HW324356   3.384   6.301   6.069
 6009SOL    MW424357   3.440   6.236   6.080
 6010SOL     OW24358   2.929   6.218   6.792
 6010SOL    HW224359   3.004   6.247   6.739
 6010SOL    HW324360   2.861   6.283   6.776
 6010SOL    MW424361   2.930   6.230   6.782
 6011SOL     OW24362   3.630   6.111   6.235
 6011SOL    HW224363   3.719   6.080   6.252
 6011SOL    HW324364   3.573   6.051   6.283
 6011SOL    MW424365   3.633   6.099   6.244
 6012SOL     OW24366   2.056   5.825   6.264
 6012SOL    HW224367   2.047   5.765   6.190
 6012SOL    HW324368   1.989   5.796   6.327
 6012SOL    MW424369   2.046   5.812   6.262
 6013SOL     OW24370   2.999   6.918   5.825
 6013SOL    HW224371   2.949   6.920   5.907
 6013SOL    HW324372   2.933   6.936   5.757
 6013SOL    MW424373   2.985   6.920   5.827
 6014SOL     OW24374   2.003   5.998   6.627
 6014SOL    HW224375   1.975   6.089   6.636
 6014SOL    HW324376   1.940   5.959   6.566
 6014SOL    MW424377   1.990   6.004   6.621
 6015SOL     OW24378   2.462   7.336   5.933
 6015SOL    HW224379   2.383   7.294   5.966
 6015SOL    HW324380   2.528   7.319   6.000
 6015SOL    MW424381   2.461   7.328   5.946
 6016SOL     OW24382   2.598   6.751   5.640
 6016SOL    HW224383   2.520   6.697   5.627
 6016SOL    HW324384   2.569   6.824   5.693
 6016SOL    MW424385   2.584   6.753   5.645
 6017SOL     OW24386   3.724   6.491   6.832
 6017SOL    HW224387   3.740   6.529   6.745
 6017SOL    HW324388   3.758   6.557   6.893
 6017SOL    MW424389   3.731   6.504   6.828
 6018SOL     OW24390   3.516   7.200   6.501
 6018SOL    HW224391   3.545   7.267   6.562
 6018SOL    HW324392   3.497   7.124   6.556
 6018SOL    MW424393   3.518   7.200   6.516
 6019SOL     OW24394   3.179   7.267   5.708
 6019SOL    HW224395   3.105   7.230   5.758
 6019SOL    HW324396   3.187   7.357   5.741
 6019SOL    MW424397   3.170   7.274   5.720
 6020SOL     OW24398   3.403   6.941   5.650
 6020SOL    HW224399   3.350   6.990   5.586
 6020SOL    HW324400   3.434   7.007   5.711
 6020SOL    MW424401   3.401   6.955   5.648
 6021SOL     OW24402   2.628   5.830   5.705
 6021SOL    HW224403   2.576   5.750   5.693
 6021SOL    HW324404   2.715   5.807   5.673
 6021SOL    MW424405   2.631   5.816   5.699
 6022SOL     OW24406   2.134   6.701   6.756
 6022SOL    HW224407   2.187   6.776   6.781
 6022SOL    HW324408   2.053   6.739   6.722
 6022SOL    MW424409   2.130   6.716   6.756
 6023SOL     OW24410   2.674   6.605   6.744
 6023SOL    HW224411   2.702   6.514   6.756
 6023SOL    HW324412   2.603   6.599   6.680
 6023SOL    MW424413   2.667   6.593   6.739
 6024SOL     OW24414   1.989   6.470   6.162
 6024SOL    HW224415   2.080   6.485   6.189
 6024SOL    HW324416   1.992   6.391   6.108
 6024SOL    MW424417   2.001   6.462   6.160
 6025SOL     OW24418   2.616   7.402   6.536
 6025SOL    HW224419   2.705   7.417   6.566
 6025SOL    HW324420   2.611   7.449   6.452
 6025SOL    MW424421   2.626   7.410   6.529
 6026SOL     OW24422   1.997   7.082   6.201
 6026SOL    HW224423   1.969   7.121   6.283
 6026SOL    HW324424   2.017   6.991   6.223
 6026SOL    MW424425   1.995   7.074   6.214
 6027SOL     OW24426   2.830   7.125   6.236
 6027SOL    HW224427   2.913   7.079   6.220
 6027SOL    HW324428   2.820   7.124   6.332
 6027SOL    MW424429   2.840   7.118   6.246
 6028SOL     OW24430   3.662   6.270   6.550
 6028SOL    HW224431   3.751   6.300   6.532
 6028SOL    HW324432   3.642   6.210   6.479
 6028SOL    MW424433   3.671   6.267   6.539
 6029SOL     OW24434   2.563   7.182   5.641
 6029SOL    HW224435   2.503   7.251   5.611
 6029SOL    HW324436   2.508   7.124   5.694
 6029SOL    MW424437   2.547   7.184   5.643
 6030SOL     OW24438   3.001   5.827   5.864
 6030SOL    HW224439   2.934   5.803   5.801
 6030SOL    HW324440   3.066   5.876   5.813
 6030SOL    MW424441   3.001   5.829   5.849
 6031SOL     OW24442   3.068   6.349   6.572
 6031SOL    HW224443   3.081   6.443   6.582
 6031SOL    HW324444   3.029   6.339   6.486
 6031SOL    MW424445   3.064   6.360   6.562
 6032SOL     OW24446   2.520   6.544   6.376
 6032SOL    HW224447   2.431   6.535   6.409
 6032SOL    HW324448   2.524   6.634   6.344
 6032SOL    MW424449   2.509   6.555   6.376
 6033SOL     OW24450   3.319   6.127   6.371
 6033SOL    HW224451   3.264   6.048   6.370
 6033SOL    HW324452   3.301   6.168   6.455
 6033SOL    MW424453   3.309   6.122   6.380
 6034SOL     OW24454   2.938   6.331   6.328
 6034SOL    HW224455   2.875   6.263   6.352
 6034SOL    HW324456   2.958   6.312   6.236
 6034SOL    MW424457   2.932   6.318   6.320
 6035SOL     OW24458   2.194   7.226   6.030
 6035SOL    HW224459   2.155   7.273   5.956
 6035SOL    HW324460   2.128   7.161   6.055
 6035SOL    MW424461   2.181   7.224   6.024
 6036SOL     OW24462   2.686   6.635   6.054
 6036SOL    HW224463   2.688   6.609   5.961
 6036SOL    HW324464   2.744   6.572   6.097
 6036SOL    MW424465   2.694   6.624   6.048
 6037SOL     OW24466   3.243   7.403   6.256
 6037SOL    HW224467   3.186   7.356   6.195
 6037SOL    HW324468   3.329   7.364   6.243
 6037SOL    MW424469   3.246   7.394   6.246
 6038SOL     OW24470   3.196   5.879   6.387
 6038SOL    HW224471   3.224   5.811   6.448
 6038SOL    HW324472   3.110   5.850   6.357
 6038SOL    MW424473   3.189   5.866   6.391
 6039SOL     OW24474   2.001   6.813   6.321
 6039SOL    HW224475   2.065   6.845   6.384
 6039SOL    HW324476   2.050   6.749   6.269
 6039SOL    MW424477   2.016   6.809   6.322
 6040SOL     OW24478   3.176   5.983   5.722
 6040SOL    HW224479   3.149   6.049   5.658
 6040SOL    HW324480   3.246   6.026   5.772
 6040SOL    MW424481   3.181   5.996   5.719
 6041SOL     OW24482   2.844   5.688   5.659
 6041SOL    HW224483   2.900   5.680   5.581
 6041SOL    HW324484   2.821   5.598   5.681
 6041SOL    MW424485   2.849   5.675   5.652
 6042SOL     OW24486   3.349   6.539   5.864
 6042SOL    HW224487   3.316   6.628   5.854
 6042SOL    HW324488   3.314   6.510   5.949
 6042SOL    MW424489   3.339   6.548   5.875
 6043SOL     OW24490   2.279   7.126   6.693
 6043SOL    HW224491   2.324   7.188   6.750
 6043SOL    HW324492   2.186   7.145   6.706
 6043SOL    MW424493   2.272   7.136   6.700
 6044SOL     OW24494   2.701   7.194   6.801
 6044SOL    HW224495   2.725   7.183   6.710
 6044SOL    HW324496   2.624   7.251   6.799
 6044SOL    MW424497   2.693   7.199   6.790
 6045SOL     OW24498   2.343   6.577   5.656
 6045SOL    HW224499   2.266   6.590   5.712
 6045SOL    HW324500   2.307   6.541   5.575
 6045SOL    MW424501   2.329   6.573   5.653
 6046SOL     OW24502   2.996   6.550   5.899
 6046SOL    HW224503   2.906   6.571   5.874
 6046SOL    HW324504   3.023   6.623   5.955
 6046SOL    MW424505   2.988   6.562   5.902
 6047SOL     OW24506   2.496   6.899   6.591
 6047SOL    HW224507   2.489   6.878   6.685
 6047SOL    HW324508   2.414   6.867   6.554
 6047SOL    MW424509   2.484   6.893   6.598
 6048SOL     OW24510   2.625   5.666   6.306
 6048SOL    HW224511   2.554   5.727   6.288
 6048SOL    HW324512   2.676   5.663   6.225
 6048SOL    MW424513   2.621   5.672   6.293
 6049SOL     OW24514   2.383   6.906   6.055
 6049SOL    HW224515   2.376   6.938   6.145
 6049SOL    HW324516   2.293   6.890   6.027
 6049SOL    MW424517   2.371   6.908   6.062
 6050SOL     OW24518   3.092   7.264   6.454
 6050SOL    HW224519   3.139   7.337   6.413
 6050SOL    HW324520   3.013   7.303   6.490
 6050SOL    MW424521   3.087   7.279   6.453
 6051SOL     OW24522   3.500   7.359   6.729
 6051SOL    HW224523   3.543   7.329   6.809
 6051SOL    HW324524   3.419   7.307   6.726
 6051SOL    MW424525   3.495   7.348   6.739
 6052SOL     OW24526   2.386   6.190   5.769
 6052SOL    HW224527   2.352   6.246   5.839
 6052SOL    HW324528   2.457   6.140   5.809
 6052SOL    MW424529   2.392   6.191   5.783
 6053SOL     OW24530   3.482   6.941   6.591
 6053SOL    HW224531   3.517   6.923   6.504
 6053SOL    HW324532   3.387   6.942   6.578
 6053SOL    MW424533   3.474   6.938   6.578
 6054SOL     OW24534   3.442   6.076   5.833
 6054SOL    HW224535   3.434   6.147   5.770
 6054SOL    HW324536   3.460   6.120   5.916
 6054SOL    MW424537   3.443   6.090   5.835
 6055SOL     OW24538   2.302   5.731   6.262
 6055SOL    HW224539   2.352   5.774   6.193
 6055SOL    HW324540   2.217   5.775   6.262
 6055SOL    MW424541   2.299   5.744   6.253
 6056SOL     OW24542   3.111   6.338   5.808
 6056SOL    HW224543   3.158   6.356   5.727
 6056SOL    HW324544   3.077   6.422   5.836
 6056SOL    MW424545   3.113   6.352   5.801
 6057SOL     OW24546   2.224   6.516   6.302
 6057SOL    HW224547   2.282   6.572   6.250
 6057SOL    HW324548   2.268   6.431   6.304
 6057SOL    MW424549   2.237   6.513   6.295
 6058SOL     OW24550   3.364   5.868   6.139
 6058SOL    HW224551   3.286   5.818   6.164
 6058SOL    HW324552   3.335   5.959   6.139
 6058SOL    MW424553   3.350   5.872   6.142
 6059SOL     OW24554   2.950   5.830   6.298
 6059SOL    HW224555   2.970   5.905   6.242
 6059SOL    HW324556   2.930   5.869   6.383
 6059SOL    MW424557   2.951   5.846   6.302
 6060SOL     OW24558   2.846   7.080   5.630
 6060SOL    HW224559   2.873   7.158   5.582
 6060SOL    HW324560   2.753   7.095   5.649
 6060SOL    MW424561   2.837   7.093   5.626
 6061SOL     OW24562   1.931   7.116   6.474
 6061SOL    HW224563   1.963   7.120   6.565
 6061SOL    HW324564   1.836   7.124   6.482
 6061SOL    MW424565   1.923   7.119   6.487
 6062SOL     OW24566   1.886   6.242   6.021
 6062SOL    HW224567   1.826   6.214   6.091
 6062SOL    HW324568   1.960   6.182   6.027
 6062SOL    MW424569   1.888   6.231   6.030
 6063SOL     OW24570   3.054   6.973   6.181
 6063SOL    HW224571   3.077   6.924   6.259
 6063SOL    HW324572   3.135   7.015   6.153
 6063SOL    MW424573   3.067   6.973   6.188
 6064SOL     OW24574   2.266   5.948   6.646
 6064SOL    HW224575   2.296   5.862   6.617
 6064SOL    HW324576   2.171   5.941   6.649
 6064SOL    MW424577   2.258   5.937   6.644
 6065SOL     OW24578   2.409   5.726   6.537
 6065SOL    HW224579   2.419   5.635   6.563
 6065SOL    HW324580   2.365   5.722   6.452
 6065SOL    MW424581   2.405   5.714   6.529
 6066SOL     OW24582   3.560   6.048   6.708
 6066SOL    HW224583   3.493   6.081   6.768
 6066SOL    HW324584   3.603   6.126   6.674
 6066SOL    MW424585   3.558   6.063   6.712
 6067SOL     OW24586   3.738   6.768   6.678
 6067SOL    HW224587   3.731   6.708   6.603
 6067SOL    HW324588   3.664   6.828   6.667
 6067SOL    MW424589   3.728   6.768   6.667
 6068SOL     OW24590   3.120   6.630   6.596
 6068SOL    HW224591   3.134   6.602   6.687
 6068SOL    HW324592   3.206   6.661   6.568
 6068SOL    MW424593   3.133   6.631   6.605
 6069SOL     OW24594   3.194   5.640   5.817
 6069SOL    HW224595   3.268   5.684   5.860
 6069SOL    HW324596   3.118   5.694   5.839
 6069SOL    MW424597   3.194   5.652   5.825
 6070SOL     OW24598   3.254   6.415   6.095
 6070SOL    HW224599   3.169   6.385   6.065
 6070SOL    HW324600   3.246   6.422   6.190
 6070SOL    MW424601   3.242   6.413   6.104
 6071SOL     OW24602   2.614   5.858   6.649
 6071SOL    HW224603   2.587   5.860   6.740
 6071SOL    HW324604   2.544   5.810   6.604
 6071SOL    MW424605   2.602   5.854   6.656
 6072SOL     OW24606   2.627   6.081   5.821
 6072SOL    HW224607   2.700   6.130   5.784
 6072SOL    HW324608   2.643   5.990   5.795
 6072SOL    MW424609   2.639   6.076   5.814
 6073SOL     OW24610   3.095   5.677   6.735
 6073SOL    HW224611   3.150   5.686   6.657
 6073SOL    HW324612   3.150   5.711   6.806
 6073SOL    MW424613   3.109   5.682   6.734
 6074SOL     OW24614   2.102   6.590   5.919
 6074SOL    HW224615   2.039   6.606   5.848
 6074SOL    HW324616   2.049   6.553   5.990
 6074SOL    MW424617   2.087   6.587   5.919
 6075SOL     OW24618   2.458   6.944   5.778
 6075SOL    HW224619   2.473   6.920   5.870
 6075SOL    HW324620   2.366   6.922   5.762
 6075SOL    MW424621   2.448   6.937   5.788
 6076SOL     OW24622   2.997   7.175   5.930
 6076SOL    HW224623   3.005   7.093   5.881
 6076SOL    HW324624   2.916   7.214   5.897
 6076SOL    MW424625   2.987   7.170   5.920
 6077SOL     OW24626   2.256   7.333   6.499
 6077SOL    HW224627   2.260   7.244   6.534
 6077SOL    HW324628   2.282   7.324   6.408
 6077SOL    MW424629   2.259   7.321   6.491
 6078SOL     OW24630   2.873   6.811   6.742
 6078SOL    HW224631   2.805   6.745   6.758
 6078SOL    HW324632   2.891   6.805   6.649
 6078SOL    MW424633   2.866   6.802   6.733
 6079SOL     OW24634   2.866   5.950   6.563
 6079SOL    HW224635   2.796   5.902   6.608
 6079SOL    HW324636   2.898   6.013   6.627
 6079SOL    MW424637   2.861   5.952   6.577
 6080SOL     OW24638   2.333   6.056   6.376
 6080SOL    HW224639   2.404   6.004   6.339
 6080SOL    HW324640   2.319   6.021   6.463
 6080SOL    MW424641   2.341   6.045   6.383
 6081SOL     OW24642   2.649   7.149   6.452
 6081SOL    HW224643   2.577   7.086   6.465
 6081SOL    HW324644   2.610   7.234   6.470
 6081SOL    MW424645   2.633   7.152   6.455
 6082SOL     OW24646   2.969   5.997   6.100
 6082SOL    HW224647   2.991   5.934   6.032
 6082SOL    HW324648   2.874   5.989   6.111
 6082SOL    MW424649   2.959   5.988   6.092
 6083SOL     OW24650   2.054   5.687   6.032
 6083SOL    HW224651   2.125   5.708   5.971
 6083SOL    HW324652   2.008   5.615   5.990
 6083SOL    MW424653   2.058   5.681   6.018
 6084SOL     OW24654   3.623   7.061   6.132
 6084SOL    HW224655   3.593   6.994   6.193
 6084SOL    HW324656   3.717   7.067   6.146
 6084SOL    MW424657   3.631   7.053   6.142
 6085SOL     OW24658   3.179   6.738   6.062
 6085SOL    HW224659   3.151   6.824   6.095
 6085SOL    HW324660   3.207   6.754   5.972
 6085SOL    MW424661   3.179   6.752   6.054
 6086SOL     OW24662   2.841   5.658   6.115
 6086SOL    HW224663   2.878   5.717   6.180
 6086SOL    HW324664   2.818   5.714   6.041
 6086SOL    MW424665   2.842   5.673   6.114
 6087SOL     OW24666   3.694   6.540   6.537
 6087SOL    HW224667   3.685   6.572   6.448
 6087SOL    HW324668   3.647   6.456   6.537
 6087SOL    MW424669   3.687   6.533   6.527
 6088SOL     OW24670   3.606   6.471   6.238
 6088SOL    HW224671   3.700   6.460   6.226
 6088SOL    HW324672   3.582   6.543   6.179
 6088SOL    MW424673   3.616   6.479   6.229
 6089SOL     OW24674   2.262   6.349   6.011
 6089SOL    HW224675   2.262   6.444   5.996
 6089SOL    HW324676   2.339   6.333   6.065
 6089SOL    MW424677   2.272   6.360   6.016
 6090SOL     OW24678   2.021   6.080   6.300
 6090SOL    HW224679   2.083   6.087   6.373
 6090SOL    HW324680   2.021   5.987   6.277
 6090SOL    MW424681   2.029   6.069   6.307
 6091SOL     OW24682   2.703   6.341   6.784
 6091SOL    HW224683   2.661   6.259   6.760
 6091SOL    HW324684   2.704   6.340   6.880
 6091SOL    MW424685   2.696   6.330   6.793
 6092SOL     OW24686   1.890   6.652   5.758
 6092SOL    HW224687   1.859   6.717   5.821
 6092SOL    HW324688   1.839   6.574   5.777
 6092SOL    MW424689   1.880   6.649   5.768
 6093SOL     OW24690   3.302   5.664   6.506
 6093SOL    HW224691   3.390   5.673   6.543
 6093SOL    HW324692   3.312   5.605   6.432
 6093SOL    MW424693   3.316   5.658   6.500
 6094SOL     OW24694   3.334   6.403   6.350
 6094SOL    HW224695   3.414   6.418   6.299
 6094SOL    HW324696   3.327   6.308   6.356
 6094SOL    MW424697   3.343   6.392   6.345
 6095SOL     OW24698   2.474   7.452   5.700
 6095SOL    HW224699   2.379   7.452   5.692
 6095SOL    HW324700   2.490   7.398   5.778
 6095SOL    MW424701   2.464   7.446   5.709
 6096SOL     OW24702   3.319   6.272   5.615
 6096SOL    HW224703   3.247   6.248   5.557
 6096SOL    HW324704   3.385   6.309   5.557
 6096SOL    MW424705   3.318   6.274   5.600
 6097SOL     OW24706   2.453   7.004   6.296
 6097SOL    HW224707   2.518   6.937   6.317
 6097SOL    HW324708   2.505   7.081   6.273
 6097SOL    MW424709   2.468   7.006   6.295
 6098SOL     OW24710   2.714   6.169   6.426
 6098SOL    HW224711   2.654   6.187   6.498
 6098SOL    HW324712   2.748   6.081   6.445
 6098SOL    MW424713   2.710   6.159   6.439
 6099SOL     OW24714   2.939   6.752   6.445
 6099SOL    HW224715   3.031   6.733   6.463
 6099SOL    HW324716   2.912   6.682   6.385
 6099SOL    MW424717   2.947   6.740   6.439
 6100SOL     OW24718   2.732   6.572   5.800
 6100SOL    HW224719   2.718   6.484   5.765
 6100SOL    HW324720   2.683   6.629   5.741
 6100SOL    MW424721   2.724   6.567   5.788
 6101SOL     OW24722   3.213   6.990   6.541
 6101SOL    HW224723   3.186   7.074   6.506
 6101SOL    HW324724   3.173   6.985   6.628
 6101SOL    MW424725   3.206   6.999   6.547
 6102SOL     OW24726   2.145   6.296   6.579
 6102SOL    HW224727   2.095   6.295   6.660
 6102SOL    HW324728   2.165   6.388   6.563
 6102SOL    MW424729   2.141   6.308   6.587
 6103SOL     OW24730   3.451   5.778   5.902
 6103SOL    HW224731   3.444   5.782   5.997
 6103SOL    HW324732   3.463   5.869   5.875
 6103SOL    MW424733   3.452   5.791   5.910
 6104SOL     OW24734   2.740   6.341   6.016
 6104SOL    HW224735   2.720   6.327   5.923
 6104SOL    HW324736   2.833   6.320   6.023
 6104SOL    MW424737   2.750   6.336   6.005
 6105SOL     OW24738   2.723   7.299   6.054
 6105SOL    HW224739   2.781   7.370   6.081
 6105SOL    HW324740   2.746   7.227   6.112
 6105SOL    MW424741   2.734   7.299   6.065
 6106SOL     OW24742   3.518   5.761   6.644
 6106SOL    HW224743   3.563   5.679   6.663
 6106SOL    HW324744   3.538   5.817   6.720
 6106SOL    MW424745   3.528   5.757   6.656
 6107SOL     OW24746   1.966   5.604   6.743
 6107SOL    HW224747   1.957   5.605   6.648
 6107SOL    HW324748   2.060   5.616   6.758
 6107SOL    MW424749   1.978   5.607   6.734
 6108SOL     OW24750   3.603   6.797   6.363
 6108SOL    HW224751   3.582   6.743   6.286
 6108SOL    HW324752   3.699   6.795   6.367
 6108SOL    MW424753   3.612   6.790   6.352
 6109SOL     OW24754   2.179   5.731   5.789
 6109SOL    HW224755   2.108   5.786   5.757
 6109SOL    HW324756   2.221   5.697   5.710
 6109SOL    MW424757   2.175   5.733   5.775
 6110SOL     OW24758   3.303   6.228   6.625
 6110SOL    HW224759   3.226   6.274   6.591
 6110SOL    HW324760   3.360   6.297   6.659
 6110SOL    MW424761   3.300   6.243   6.625
 6111SOL     OW24762   1.935   5.830   5.638
 6111SOL    HW224763   1.902   5.909   5.682
 6111SOL    HW324764   1.990   5.863   5.567
 6111SOL    MW424765   1.938   5.844   5.635
 6112SOL     OW24766   1.969   7.087   5.827
 6112SOL    HW224767   1.986   7.171   5.869
 6112SOL    HW324768   2.004   7.096   5.739
 6112SOL    MW424769   1.974   7.100   5.821
 6113SOL     OW24770   3.241   7.176   6.044
 6113SOL    HW224771   3.304   7.166   5.973
 6113SOL    HW324772   3.158   7.196   5.999
 6113SOL    MW424773   3.238   7.177   6.029
 6114SOL     OW24774   5.338   0.771   1.252
 6114SOL    HW224775   5.293   0.838   1.303
 6114SOL    HW324776   5.426   0.807   1.238
 6114SOL    MW424777   5.344   0.784   1.256
 6115SOL     OW24778   4.266   1.022   0.486
 6115SOL    HW224779   4.356   0.997   0.470
 6115SOL    HW324780   4.262   1.115   0.463
 6115SOL    MW424781   4.278   1.031   0.481
 6116SOL     OW24782   5.382   1.725   0.628
 6116SOL    HW224783   5.394   1.671   0.706
 6116SOL    HW324784   5.419   1.673   0.557
 6116SOL    MW424785   5.388   1.710   0.629
 6117SOL     OW24786   4.761   1.610   1.629
 6117SOL    HW224787   4.802   1.646   1.550
 6117SOL    HW324788   4.796   1.521   1.636
 6117SOL    MW424789   4.772   1.603   1.620
 6118SOL     OW24790   5.318   1.165   1.233
 6118SOL    HW224791   5.239   1.130   1.191
 6118SOL    HW324792   5.345   1.237   1.177
 6118SOL    MW424793   5.311   1.170   1.220
 6119SOL     OW24794   4.550   0.478   0.499
 6119SOL    HW224795   4.525   0.566   0.527
 6119SOL    HW324796   4.547   0.481   0.403
 6119SOL    MW424797   4.546   0.490   0.491
 6120SOL     OW24798   3.992   0.506   0.427
 6120SOL    HW224799   4.024   0.594   0.409
 6120SOL    HW324800   3.980   0.504   0.522
 6120SOL    MW424801   3.995   0.518   0.439
 6121SOL     OW24802   4.070   0.919   1.328
 6121SOL    HW224803   4.133   0.866   1.279
 6121SOL    HW324804   4.051   0.993   1.271
 6121SOL    MW424805   4.076   0.921   1.315
 6122SOL     OW24806   4.391   0.261   0.514
 6122SOL    HW224807   4.449   0.337   0.516
 6122SOL    HW324808   4.326   0.282   0.447
 6122SOL    MW424809   4.390   0.273   0.505
 6123SOL     OW24810   4.478   1.188   0.689
 6123SOL    HW224811   4.558   1.191   0.741
 6123SOL    HW324812   4.506   1.155   0.603
 6123SOL    MW424813   4.492   1.184   0.684
 6124SOL     OW24814   4.503   1.529   1.592
 6124SOL    HW224815   4.587   1.555   1.631
 6124SOL    HW324816   4.527   1.473   1.518
 6124SOL    MW424817   4.517   1.525   1.587
 6125SOL     OW24818   4.255   0.692   0.680
 6125SOL    HW224819   4.240   0.612   0.731
 6125SOL    HW324820   4.337   0.727   0.714
 6125SOL    MW424821   4.263   0.684   0.692
 6126SOL     OW24822   4.592   1.378   1.365
 6126SOL    HW224823   4.556   1.444   1.305
 6126SOL    HW324824   4.520   1.316   1.378
 6126SOL    MW424825   4.578   1.378   1.359
 6127SOL     OW24826   4.397   0.518   1.057
 6127SOL    HW224827   4.303   0.514   1.075
 6127SOL    HW324828   4.427   0.427   1.066
 6127SOL    MW424829   4.388   0.506   1.060
 6128SOL     OW24830   4.143   0.932   0.961
 6128SOL    HW224831   4.098   0.939   0.877
 6128SOL    HW324832   4.123   1.015   1.005
 6128SOL    MW424833   4.135   0.944   0.955
 6129SOL     OW24834   3.840   1.778   0.836
 6129SOL    HW224835   3.929   1.770   0.871
 6129SOL    HW324836   3.804   1.690   0.841
 6129SOL    MW424837   3.847   1.765   0.841
 6130SOL     OW24838   4.104   1.305   0.871
 6130SOL    HW224839   4.080   1.358   0.947
 6130SOL    HW324840   4.160   1.363   0.819
 6130SOL    MW424841   4.108   1.320   0.874
 6131SOL     OW24842   4.666   0.949   0.681
 6131SOL    HW224843   4.580   0.936   0.721
 6131SOL    HW324844   4.719   0.876   0.713
 6131SOL    MW424845   4.662   0.938   0.690
 6132SOL     OW24846   4.074   1.601   1.466
 6132SOL    HW224847   3.982   1.577   1.451
 6132SOL    HW324848   4.118   1.518   1.483
 6132SOL    MW424849   4.068   1.586   1.465
 6133SOL     OW24850   4.657   1.311   0.398
 6133SOL    HW224851   4.634   1.373   0.466
 6133SOL    HW324852   4.614   1.229   0.424
 6133SOL    MW424853   4.649   1.307   0.409
 6134SOL     OW24854   5.530   0.312   0.854
 6134SOL    HW224855   5.467   0.292   0.923
 6134SOL    HW324856   5.520   0.241   0.791
 6134SOL    MW424857   5.520   0.299   0.855
 6135SOL     OW24858   4.154   0.284   0.366
 6135SOL    HW224859   4.128   0.246   0.282
 6135SOL    HW324860   4.091   0.354   0.382
 6135SOL    MW424861   4.143   0.287   0.357
 6136SOL     OW24862   3.989   1.245   0.403
 6136SOL    HW224863   3.937   1.313   0.359
 6136SOL    HW324864   3.986   1.171   0.343
 6136SOL    MW424865   3.981   1.244   0.390
 6137SOL     OW24866   5.331   1.084   0.506
 6137SOL    HW224867   5.241   1.084   0.541
 6137SOL    HW324868   5.324   1.130   0.423
 6137SOL    MW424869   5.318   1.090   0.500
 6138SOL     OW24870   5.131   0.719   1.578
 6138SOL    HW224871   5.200   0.657   1.555
 6138SOL    HW324872   5.056   0.693   1.525
 6138SOL    MW424873   5.131   0.706   1.569
 6139SOL     OW24874   4.867   1.106   1.570
 6139SOL    HW224875   4.852   1.199   1.555
 6139SOL    HW324876   4.962   1.096   1.570
 6139SOL    MW424877   4.876   1.116   1.567
 6140SOL     OW24878   4.663   0.530   1.771
 6140SOL    HW224879   4.753   0.531   1.738
 6140SOL    HW324880   4.622   0.455   1.729
 6140SOL    MW424881   4.669   0.520   1.762
 6141SOL     OW24882   5.238   1.062   0.898
 6141SOL    HW224883   5.241   0.996   0.829
 6141SOL    HW324884   5.323   1.105   0.894
 6141SOL    MW424885   5.250   1.058   0.889
 6142SOL     OW24886   4.858   0.665   0.467
 6142SOL    HW224887   4.884   0.689   0.378
 6142SOL    HW324888   4.840   0.572   0.463
 6142SOL    MW424889   4.860   0.657   0.454
 6143SOL     OW24890   4.443   0.334   1.721
 6143SOL    HW224891   4.453   0.260   1.661
 6143SOL    HW324892   4.479   0.303   1.804
 6143SOL    MW424893   4.449   0.320   1.723
 6144SOL     OW24894   4.179   1.701   0.636
 6144SOL    HW224895   4.211   1.789   0.614
 6144SOL    HW324896   4.132   1.673   0.558
 6144SOL    MW424897   4.178   1.709   0.623
 6145SOL     OW24898   5.563   0.063   0.685
 6145SOL    HW224899   5.617   0.014   0.747
 6145SOL    HW324900   5.506  -0.003   0.646
 6145SOL    MW424901   5.563   0.047   0.687
 6146SOL     OW24902   4.682   0.016   1.098
 6146SOL    HW224903   4.641   0.094   1.060
 6146SOL    HW324904   4.776   0.034   1.093
 6146SOL    MW424905   4.688   0.028   1.093
 6147SOL     OW24906   4.628   0.987   1.593
 6147SOL    HW224907   4.605   0.967   1.683
 6147SOL    HW324908   4.713   1.031   1.598
 6147SOL    MW424909   4.635   0.990   1.605
 6148SOL     OW24910   4.708   0.124   1.353
 6148SOL    HW224911   4.714   0.086   1.266
 6148SOL    HW324912   4.697   0.218   1.338
 6148SOL    MW424913   4.709   0.132   1.341
 6149SOL     OW24914   4.797   0.613   1.187
 6149SOL    HW224915   4.872   0.642   1.134
 6149SOL    HW324916   4.729   0.678   1.171
 6149SOL    MW424917   4.798   0.625   1.177
 6150SOL     OW24918   5.347   0.581   1.464
 6150SOL    HW224919   5.328   0.490   1.443
 6150SOL    HW324920   5.325   0.630   1.385
 6150SOL    MW424921   5.342   0.574   1.451
 6151SOL     OW24922   5.489   1.675   1.368
 6151SOL    HW224923   5.417   1.637   1.419
 6151SOL    HW324924   5.506   1.760   1.409
 6151SOL    MW424925   5.483   1.680   1.380
 6152SOL     OW24926   4.794   0.319   1.570
 6152SOL    HW224927   4.760   0.358   1.489
 6152SOL    HW324928   4.772   0.227   1.563
 6152SOL    MW424929   4.787   0.312   1.560
 6153SOL     OW24930   5.203   1.133   1.646
 6153SOL    HW224931   5.285   1.174   1.676
 6153SOL    HW324932   5.166   1.095   1.726
 6153SOL    MW424933   5.209   1.134   1.661
 6154SOL     OW24934   5.498   0.506   0.630
 6154SOL    HW224935   5.587   0.475   0.647
 6154SOL    HW324936   5.441   0.446   0.678
 6154SOL    MW424937   5.501   0.494   0.639
 6155SOL     OW24938   3.924   0.220   0.659
 6155SOL    HW224939   3.915   0.160   0.585
 6155SOL    HW324940   3.857   0.191   0.722
 6155SOL    MW424941   3.914   0.207   0.657
 6156SOL     OW24942   4.867   1.313   0.220
 6156SOL    HW224943   4.817   1.315   0.302
 6156SOL    HW324944   4.801   1.331   0.152
 6156SOL    MW424945   4.853   1.315   0.222
 6157SOL     OW24946   3.871   0.393   1.022
 6157SOL    HW224947   3.843   0.484   1.031
 6157SOL    HW324948   3.808   0.354   0.961
 6157SOL    MW424949   3.858   0.399   1.016
 6158SOL     OW24950   5.458   1.251   1.725
 6158SOL    HW224951   5.508   1.177   1.757
 6158SOL    HW324952   5.404   1.278   1.800
 6158SOL    MW424953   5.458   1.245   1.738
 6159SOL     OW24954   5.592   0.886   1.227
 6159SOL    HW224955   5.608   0.924   1.140
 6159SOL    HW324956   5.626   0.952   1.288
 6159SOL    MW424957   5.599   0.899   1.223
 6160SOL     OW24958   5.384   1.595   0.896
 6160SOL    HW224959   5.413   1.662   0.957
 6160SOL    HW324960   5.365   1.519   0.951
 6160SOL    MW424961   5.386   1.595   0.911
 6161SOL     OW24962   3.855   0.668   1.192
 6161SOL    HW224963   3.917   0.698   1.258
 6161SOL    HW324964   3.789   0.737   1.186
 6161SOL    MW424965   3.854   0.681   1.199
 6162SOL     OW24966   3.950   1.777   1.644
 6162SOL    HW224967   3.924   1.845   1.582
 6162SOL    HW324968   3.998   1.714   1.592
 6162SOL    MW424969   3.952   1.777   1.630
 6163SOL     OW24970   4.002   1.096   1.151
 6163SOL    HW224971   4.055   1.171   1.176
 6163SOL    HW324972   3.921   1.134   1.117
 6163SOL    MW424973   3.998   1.111   1.151
 6164SOL     OW24974   4.542   1.000   1.139
 6164SOL    HW224975   4.570   0.909   1.151
 6164SOL    HW324976   4.471   0.994   1.075
 6164SOL    MW424977   4.535   0.988   1.134
 6165SOL     OW24978   3.857   0.865   0.557
 6165SOL    HW224979   3.948   0.880   0.584
 6165SOL    HW324980   3.860   0.786   0.503
 6165SOL    MW424981   3.869   0.857   0.555
 6166SOL     OW24982   4.093   0.573   1.811
 6166SOL    HW224983   4.040   0.653   1.818
 6166SOL    HW324984   4.163   0.585   1.876
 6166SOL    MW424985   4.095   0.586   1.819
 6167SOL     OW24986   4.479   0.123   1.518
 6167SOL    HW224987   4.456   0.031   1.520
 6167SOL    HW324988   4.565   0.125   1.475
 6167SOL    MW424989   4.486   0.113   1.514
 6168SOL     OW24990   4.163   0.647   1.557
 6168SOL    HW224991   4.243   0.697   1.543
 6168SOL    HW324992   4.154   0.641   1.652
 6168SOL    MW424993   4.172   0.653   1.567
 6169SOL     OW24994   4.484   1.797   0.931
 6169SOL    HW224995   4.573   1.812   0.961
 6169SOL    HW324996   4.479   1.844   0.847
 6169SOL    MW424997   4.494   1.805   0.924
 6170SOL     OW24998   5.140   0.172   1.828
 6170SOL    HW224999   5.196   0.099   1.854
 6170SOL    HW325000   5.110   0.210   1.910
 6170SOL    MW425001   5.144   0.167   1.841
 6171SOL     OW25002   3.865   1.477   0.596
 6171SOL    HW225003   3.837   1.516   0.678
 6171SOL    HW325004   3.885   1.386   0.618
 6171SOL    MW425005   3.863   1.469   0.609
 6172SOL     OW25006   4.698   1.520   0.631
 6172SOL    HW225007   4.781   1.474   0.615
 6172SOL    HW325008   4.688   1.519   0.727
 6172SOL    MW425009   4.708   1.513   0.641
 6173SOL     OW25010   5.530   0.665   0.945
 6173SOL    HW225011   5.619   0.695   0.927
 6173SOL    HW325012   5.510   0.605   0.874
 6173SOL    MW425013   5.539   0.662   0.934
 6174SOL     OW25014   5.381   0.844   1.825
 6174SOL    HW225015   5.436   0.768   1.806
 6174SOL    HW325016   5.383   0.852   1.920
 6174SOL    MW425017   5.389   0.835   1.833
 6175SOL     OW25018   4.676   0.406   1.344
 6175SOL    HW225019   4.595   0.447   1.372
 6175SOL    HW325020   4.723   0.474   1.296
 6175SOL    MW425021   4.671   0.421   1.342
 6176SOL     OW25022   4.936   0.744   0.967
 6176SOL    HW225023   4.949   0.838   0.977
 6176SOL    HW325024   4.897   0.734   0.881
 6176SOL    MW425025   4.932   0.755   0.957
 6177SOL     OW25026   4.388   0.939   0.771
 6177SOL    HW225027   4.299   0.930   0.804
 6177SOL    HW325028   4.392   1.029   0.739
 6177SOL    MW425029   4.377   0.950   0.771
 6178SOL     OW25030   5.187   0.522   0.766
 6178SOL    HW225031   5.132   0.443   0.765
 6178SOL    HW325032   5.169   0.563   0.850
 6178SOL    MW425033   5.177   0.517   0.775
 6179SOL     OW25034   4.158   0.209   1.583
 6179SOL    HW225035   4.079   0.227   1.635
 6179SOL    HW325036   4.153   0.271   1.510
 6179SOL    MW425037   4.148   0.219   1.580
 6180SOL     OW25038   4.806   0.726   0.723
 6180SOL    HW225039   4.743   0.658   0.747
 6180SOL    HW325040   4.826   0.707   0.631
 6180SOL    MW425041   4.800   0.713   0.715
 6181SOL     OW25042   4.062   1.621   0.425
 6181SOL    HW225043   4.023   1.668   0.351
 6181SOL    HW325044   3.996   1.556   0.450
 6181SOL    MW425045   4.049   1.619   0.419
 6182SOL     OW25046   5.107   1.590   1.221
 6182SOL    HW225047   5.032   1.636   1.259
 6182SOL    HW325048   5.089   1.497   1.238
 6182SOL    MW425049   5.096   1.584   1.229
 6183SOL     OW25050   5.111   1.798   0.651
 6183SOL    HW225051   5.054   1.751   0.590
 6183SOL    HW325052   5.197   1.759   0.638
 6183SOL    MW425053   5.114   1.789   0.641
 6184SOL     OW25054   5.064   0.274   0.782
 6184SOL    HW225055   5.092   0.206   0.843
 6184SOL    HW325056   4.978   0.245   0.752
 6184SOL    MW425057   5.057   0.261   0.786
 6185SOL     OW25058   3.869   1.208   0.716
 6185SOL    HW225059   3.933   1.240   0.779
 6185SOL    HW325060   3.918   1.144   0.664
 6185SOL    MW425061   3.884   1.204   0.717
 6186SOL     OW25062   4.369   1.284   1.698
 6186SOL    HW225063   4.417   1.367   1.685
 6186SOL    HW325064   4.426   1.232   1.754
 6186SOL    MW425065   4.383   1.288   1.704
 6187SOL     OW25066   3.945   1.526   1.838
 6187SOL    HW225067   4.001   1.450   1.853
 6187SOL    HW325068   3.894   1.504   1.760
 6187SOL    MW425069   3.945   1.513   1.829
 6188SOL     OW25070   4.830   1.363   1.447
 6188SOL    HW225071   4.741   1.369   1.415
 6188SOL    HW325072   4.874   1.442   1.415
 6188SOL    MW425073   4.825   1.373   1.439
 6189SOL     OW25074   4.123   0.031   1.789
 6189SOL    HW225075   4.051  -0.004   1.737
 6189SOL    HW325076   4.181   0.072   1.724
 6189SOL    MW425077   4.121   0.032   1.774
 6190SOL     OW25078   4.147   1.521   1.088
 6190SOL    HW225079   4.192   1.583   1.145
 6190SOL    HW325080   4.054   1.540   1.101
 6190SOL    MW425081   4.140   1.531   1.095
 6191SOL     OW25082   5.587   1.050   1.442
 6191SOL    HW225083   5.502   1.063   1.401
 6191SOL    HW325084   5.567   1.014   1.529
 6191SOL    MW425085   5.574   1.046   1.447
 6192SOL     OW25086   4.569   1.589   1.196
 6192SOL    HW225087   4.593   1.578   1.105
 6192SOL    HW325088   4.492   1.646   1.194
 6192SOL    MW425089   4.561   1.594   1.185
 6193SOL     OW25090   4.364   1.294   0.986
 6193SOL    HW225091   4.357   1.273   1.080
 6193SOL    HW325092   4.282   1.262   0.949
 6193SOL    MW425093   4.352   1.288   0.993
 6194SOL     OW25094   5.228   0.304   1.388
 6194SOL    HW225095   5.175   0.306   1.468
 6194SOL    HW325096   5.213   0.217   1.351
 6194SOL    MW425097   5.220   0.294   1.393
 6195SOL     OW25098   5.564   0.228   1.261
 6195SOL    HW225099   5.545   0.295   1.196
 6195SOL    HW325100   5.621   0.166   1.216
 6195SOL    MW425101   5.568   0.229   1.247
 6196SOL     OW25102   3.810   1.386   1.649
 6196SOL    HW225103   3.854   1.319   1.595
 6196SOL    HW325104   3.725   1.348   1.669
 6196SOL    MW425105   3.805   1.372   1.645
 6197SOL     OW25106   4.493   0.061   0.701
 6197SOL    HW225107   4.422   0.122   0.683
 6197SOL    HW325108   4.544   0.058   0.620
 6197SOL    MW425109   4.489   0.067   0.688
 6198SOL     OW25110   4.251   1.301   0.450
 6198SOL    HW225111   4.244   1.333   0.540
 6198SOL    HW325112   4.161   1.285   0.422
 6198SOL    MW425113   4.239   1.303   0.457
 6199SOL     OW25114   4.846   1.694   1.359
 6199SOL    HW225115   4.766   1.679   1.309
 6199SOL    HW325116   4.853   1.789   1.366
 6199SOL    MW425117   4.837   1.705   1.353
 6200SOL     OW25118   4.960   1.659   0.849
 6200SOL    HW225119   5.007   1.732   0.808
 6200SOL    HW325120   4.881   1.698   0.885
 6200SOL    MW425121   4.955   1.674   0.848
 6201SOL     OW25122   5.368   1.754   1.124
 6201SOL    HW225123   5.411   1.724   1.204
 6201SOL    HW325124   5.287   1.702   1.121
 6201SOL    MW425125   5.363   1.743   1.134
 6202SOL     OW25126   5.240   0.930   1.464
 6202SOL    HW225127   5.245   0.983   1.544
 6202SOL    HW325128   5.202   0.847   1.492
 6202SOL    MW425129   5.236   0.925   1.479
 6203SOL     OW25130   4.880   0.065   1.710
 6203SOL    HW225131   4.875  -0.028   1.691
 6203SOL    HW325132   4.963   0.076   1.756
 6203SOL    MW425133   4.888   0.054   1.714
 6204SOL     OW25134   5.350   1.336   0.986
 6204SOL    HW225135   5.385   1.318   0.899
 6204SOL    HW325136   5.255   1.337   0.973
 6204SOL    MW425137   5.342   1.333   0.973
 6205SOL     OW25138   4.779   0.984   1.355
 6205SOL    HW225139   4.822   1.019   1.433
 6205SOL    HW325140   4.762   1.061   1.301
 6205SOL    MW425141   4.782   0.999   1.358
 6206SOL     OW25142   4.170   0.126   0.657
 6206SOL    HW225143   4.220   0.169   0.588
 6206SOL    HW325144   4.085   0.170   0.657
 6206SOL    MW425145   4.167   0.139   0.648
 6207SOL     OW25146   3.929   1.188   1.517
 6207SOL    HW225147   3.957   1.141   1.595
 6207SOL    HW325148   3.850   1.143   1.488
 6207SOL    MW425149   3.922   1.177   1.523
 6208SOL     OW25150   4.437   0.515   1.484
 6208SOL    HW225151   4.409   0.603   1.508
 6208SOL    HW325152   4.406   0.459   1.555
 6208SOL    MW425153   4.429   0.518   1.496
 6209SOL     OW25154   4.979   0.733   0.203
 6209SOL    HW225155   5.026   0.751   0.122
 6209SOL    HW325156   4.945   0.817   0.231
 6209SOL    MW425157   4.981   0.747   0.196
 6210SOL     OW25158   4.092   0.911   0.697
 6210SOL    HW225159   4.150   0.967   0.645
 6210SOL    HW325160   4.136   0.826   0.699
 6210SOL    MW425161   4.105   0.908   0.690
 6211SOL     OW25162   5.232   0.263   0.534
 6211SOL    HW225163   5.154   0.213   0.559
 6211SOL    HW325164   5.203   0.354   0.534
 6211SOL    MW425165   5.218   0.267   0.537
 6212SOL     OW25166   4.818   0.225   0.693
 6212SOL    HW225167   4.838   0.300   0.637
 6212SOL    HW325168   4.798   0.264   0.778
 6212SOL    MW425169   4.819   0.241   0.697
 6213SOL     OW25170   5.578   0.998   1.712
 6213SOL    HW225171   5.491   0.978   1.748
 6213SOL    HW325172   5.632   0.924   1.737
 6213SOL    MW425173   5.573   0.987   1.720
 6214SOL     OW25174   3.799   1.511   0.869
 6214SOL    HW225175   3.831   1.515   0.960
 6214SOL    HW325176   3.704   1.519   0.877
 6214SOL    MW425177   3.791   1.514   0.882
 6215SOL     OW25178   5.322   1.849   1.850
 6215SOL    HW225179   5.367   1.773   1.815
 6215SOL    HW325180   5.360   1.862   1.937
 6215SOL    MW425181   5.332   1.842   1.856
 6216SOL     OW25182   4.922   1.368   0.576
 6216SOL    HW225183   4.945   1.319   0.654
 6216SOL    HW325184   5.003   1.410   0.548
 6216SOL    MW425185   4.935   1.368   0.583
 6217SOL     OW25186   4.180   0.376   1.305
 6217SOL    HW225187   4.213   0.457   1.345
 6217SOL    HW325188   4.153   0.402   1.217
 6217SOL    MW425189   4.179   0.390   1.299
 6218SOL     OW25190   4.134   0.343   1.041
 6218SOL    HW225191   4.164   0.257   1.012
 6218SOL    HW325192   4.039   0.336   1.044
 6218SOL    MW425193   4.126   0.332   1.039
 6219SOL     OW25194   4.963   0.552   1.732
 6219SOL    HW225195   5.015   0.487   1.685
 6219SOL    HW325196   4.921   0.603   1.662
 6219SOL    MW425197   4.964   0.549   1.715
 6220SOL     OW25198   5.062   0.347   1.593
 6220SOL    HW225199   4.969   0.331   1.580
 6220SOL    HW325200   5.088   0.285   1.661
 6220SOL    MW425201   5.052   0.337   1.600
 6221SOL     OW25202   4.277   0.121   0.932
 6221SOL    HW225203   4.287   0.030   0.958
 6221SOL    HW325204   4.233   0.117   0.847
 6221SOL    MW425205   4.273   0.109   0.924
 6222SOL     OW25206   4.371   1.736   1.478
 6222SOL    HW225207   4.288   1.721   1.523
 6222SOL    HW325208   4.430   1.669   1.513
 6222SOL    MW425209   4.369   1.726   1.488
 6223SOL     OW25210   5.428   0.443   1.103
 6223SOL    HW225211   5.361   0.476   1.163
 6223SOL    HW325212   5.471   0.521   1.069
 6223SOL    MW425213   5.426   0.458   1.107
 6224SOL     OW25214   5.606   1.163   1.073
 6224SOL    HW225215   5.599   1.103   0.998
 6224SOL    HW325216   5.532   1.223   1.062
 6224SOL    MW425217   5.596   1.163   1.062
 6225SOL     OW25218   4.988   1.025   0.991
 6225SOL    HW225219   5.002   0.997   1.082
 6225SOL    HW325220   5.074   1.056   0.963
 6225SOL    MW425221   5.001   1.026   1.000
 6226SOL     OW25222   5.071   0.520   1.270
 6226SOL    HW225223   5.092   0.521   1.177
 6226SOL    HW325224   5.116   0.442   1.303
 6226SOL    MW425225   5.078   0.510   1.262
 6227SOL     OW25226   5.564   0.651   1.812
 6227SOL    HW225227   5.601   0.596   1.881
 6227SOL    HW325228   5.589   0.608   1.730
 6227SOL    MW425229   5.571   0.639   1.811
 6228SOL     OW25230   5.111   0.949   1.863
 6228SOL    HW225231   5.177   0.897   1.817
 6228SOL    HW325232   5.131   0.936   1.956
 6228SOL    MW425233   5.122   0.940   1.870
 6229SOL     OW25234   5.062   0.035   0.212
 6229SOL    HW225235   5.136   0.079   0.255
 6229SOL    HW325236   4.986   0.089   0.234
 6229SOL    MW425237   5.062   0.047   0.220
 6230SOL     OW25238   5.122   0.810   0.490
 6230SOL    HW225239   5.037   0.780   0.460
 6230SOL    HW325240   5.114   0.817   0.585
 6230SOL    MW425241   5.110   0.808   0.499
 6231SOL     OW25242   4.198   1.273   1.221
 6231SOL    HW225243   4.210   1.300   1.312
 6231SOL    HW325244   4.179   1.354   1.174
 6231SOL    MW425245   4.197   1.288   1.226
 6232SOL     OW25246   4.482   0.253   1.044
 6232SOL    HW225247   4.455   0.255   1.135
 6232SOL    HW325248   4.412   0.205   0.999
 6232SOL    MW425249   4.470   0.249   1.051
 6233SOL     OW25250   4.336   1.745   1.206
 6233SOL    HW225251   4.388   1.822   1.183
 6233SOL    HW325252   4.345   1.737   1.301
 6233SOL    MW425253   4.345   1.752   1.217
 6234SOL     OW25254   5.238   1.330   1.438
 6234SOL    HW225255   5.223   1.259   1.501
 6234SOL    HW325256   5.284   1.288   1.366
 6234SOL    MW425257   5.244   1.314   1.438
 6235SOL     OW25258   4.312   1.061   1.555
 6235SOL    HW225259   4.349   1.066   1.467
 6235SOL    HW325260   4.351   1.134   1.602
 6235SOL    MW425261   4.322   1.071   1.550
 6236SOL     OW25262   4.492   1.104   1.367
 6236SOL    HW225263   4.551   1.050   1.420
 6236SOL    HW325264   4.507   1.076   1.277
 6236SOL    MW425265   4.502   1.093   1.363
 6237SOL     OW25266   5.303   1.593   1.539
 6237SOL    HW225267   5.345   1.578   1.624
 6237SOL    HW325268   5.294   1.506   1.501
 6237SOL    MW425269   5.307   1.581   1.546
 6238SOL     OW25270   4.963   0.072   1.130
 6238SOL    HW225271   5.018   0.081   1.052
 6238SOL    HW325272   5.018   0.106   1.201
 6238SOL    MW425273   4.977   0.077   1.129
 6239SOL     OW25274   4.124   1.728   0.894
 6239SOL    HW225275   4.128   1.639   0.929
 6239SOL    HW325276   4.150   1.719   0.803
 6239SOL    MW425277   4.127   1.716   0.886
 6240SOL     OW25278   4.741   1.206   1.137
 6240SOL    HW225279   4.673   1.140   1.153
 6240SOL    HW325280   4.759   1.200   1.044
 6240SOL    MW425281   4.734   1.197   1.128
 6241SOL     OW25282   3.830   1.481   1.388
 6241SOL    HW225283   3.820   1.439   1.474
 6241SOL    HW325284   3.751   1.534   1.378
 6241SOL    MW425285   3.819   1.482   1.399
 6242SOL     OW25286   4.734   0.345   0.958
 6242SOL    HW225287   4.664   0.297   1.003
 6242SOL    HW325288   4.766   0.408   1.022
 6242SOL    MW425289   4.729   0.347   0.972
 6243SOL     OW25290   4.385   0.781   1.578
 6243SOL    HW225291   4.378   0.876   1.566
 6243SOL    HW325292   4.394   0.770   1.673
 6243SOL    MW425293   4.386   0.793   1.588
 6244SOL     OW25294   4.106   1.296   1.836
 6244SOL    HW225295   4.178   1.298   1.773
 6244SOL    HW325296   4.076   1.205   1.835
 6244SOL    MW425297   4.111   1.285   1.828
 6245SOL     OW25298   5.190   0.059   1.303
 6245SOL    HW225299   5.261   0.005   1.267
 6245SOL    HW325300   5.189   0.038   1.396
 6245SOL    MW425301   5.199   0.050   1.311
 6246SOL     OW25302   5.390   1.589   1.787
 6246SOL    HW225303   5.363   1.586   1.878
 6246SOL    HW325304   5.486   1.593   1.790
 6246SOL    MW425305   5.400   1.589   1.799
 6247SOL     OW25306   4.201   0.451   0.771
 6247SOL    HW225307   4.272   0.399   0.734
 6247SOL    HW325308   4.187   0.416   0.858
 6247SOL    MW425309   4.209   0.440   0.778
 6248SOL     OW25310   3.756   1.786   1.843
 6248SOL    HW225311   3.806   1.764   1.765
 6248SOL    HW325312   3.764   1.881   1.851
 6248SOL    MW425313   3.764   1.795   1.834
 6249SOL     OW25314   4.517   1.544   0.847
 6249SOL    HW225315   4.445   1.481   0.860
 6249SOL    HW325316   4.478   1.629   0.865
 6249SOL    MW425317   4.501   1.547   0.850
 6250SOL     OW25318   4.837   0.392   0.495
 6250SOL    HW225319   4.859   0.329   0.427
 6250SOL    HW325320   4.742   0.384   0.506
 6250SOL    MW425321   4.827   0.383   0.487
 6251SOL     OW25322   3.753   0.549   1.570
 6251SOL    HW225323   3.817   0.615   1.545
 6251SOL    HW325324   3.672   0.576   1.527
 6251SOL    MW425325   3.751   0.561   1.562
 6252SOL     OW25326   5.491   1.456   0.527
 6252SOL    HW225327   5.461   1.389   0.588
 6252SOL    HW325328   5.585   1.462   0.541
 6252SOL    MW425329   5.499   1.448   0.537
 6253SOL     OW25330   5.047   1.133   0.457
 6253SOL    HW225331   5.019   1.219   0.490
 6253SOL    HW325332   5.075   1.149   0.367
 6253SOL    MW425333   5.047   1.147   0.449
 6254SOL     OW25334   4.709   0.053   0.510
 6254SOL    HW225335   4.746   0.112   0.575
 6254SOL    HW325336   4.686   0.109   0.436
 6254SOL    MW425337   4.710   0.068   0.509
 6255SOL     OW25338   5.562   0.935   0.932
 6255SOL    HW225339   5.553   0.967   0.843
 6255SOL    HW325340   5.515   0.851   0.932
 6255SOL    MW425341   5.555   0.928   0.922
 6256SOL     OW25342   3.938   0.775   1.511
 6256SOL    HW225343   3.959   0.844   1.449
 6256SOL    HW325344   4.018   0.722   1.516
 6256SOL    MW425345   3.951   0.776   1.505
 6257SOL     OW25346   5.474   0.866   0.633
 6257SOL    HW225347   5.568   0.855   0.621
 6257SOL    HW325348   5.450   0.938   0.574
 6257SOL    MW425349   5.484   0.874   0.624
 6258SOL     OW25350   3.923   0.790   1.778
 6258SOL    HW225351   3.849   0.734   1.804
 6258SOL    HW325352   3.918   0.793   1.683
 6258SOL    MW425353   3.912   0.783   1.768
 6259SOL     OW25354   4.089   0.077   1.228
 6259SOL    HW225355   4.132   0.161   1.248
 6259SOL    HW325356   4.162   0.015   1.221
 6259SOL    MW425357   4.104   0.080   1.229
 6260SOL     OW25358   4.130   0.744   0.406
 6260SOL    HW225359   4.130   0.839   0.391
 6260SOL    HW325360   4.207   0.728   0.460
 6260SOL    MW425361   4.140   0.755   0.411
 6261SOL     OW25362   4.906   0.603   1.470
 6261SOL    HW225363   4.942   0.576   1.386
 6261SOL    HW325364   4.819   0.637   1.449
 6261SOL    MW425365   4.900   0.604   1.457
 6262SOL     OW25366   3.889   0.475   0.695
 6262SOL    HW225367   3.951   0.482   0.768
 6262SOL    HW325368   3.889   0.382   0.672
 6262SOL    MW425369   3.897   0.464   0.702
 6263SOL     OW25370   4.571   0.736   1.179
 6263SOL    HW225371   4.529   0.654   1.155
 6263SOL    HW325372   4.572   0.735   1.275
 6263SOL    MW425373   4.564   0.725   1.188
 6264SOL     OW25374   5.242   1.869   1.578
 6264SOL    HW225375   5.245   1.775   1.561
 6264SOL    HW325376   5.265   1.877   1.670
 6264SOL    MW425377   5.245   1.857   1.588
 6265SOL     OW25378   4.375   0.206   1.284
 6265SOL    HW225379   4.306   0.269   1.305
 6265SOL    HW325380   4.402   0.170   1.369
 6265SOL    MW425381   4.369   0.209   1.297
 6266SOL     OW25382   5.170   0.059   0.901
 6266SOL    HW225383   5.258   0.068   0.938
 6266SOL    HW325384   5.180   0.000   0.827
 6266SOL    MW425385   5.184   0.053   0.895
 6267SOL     OW25386   5.202   0.798   0.745
 6267SOL    HW225387   5.282   0.813   0.694
 6267SOL    HW325388   5.195   0.703   0.751
 6267SOL    MW425389   5.211   0.787   0.740
 6268SOL     OW25390   4.652   0.724   1.442
 6268SOL    HW225391   4.721   0.791   1.439
 6268SOL    HW325392   4.585   0.762   1.498
 6268SOL    MW425393   4.653   0.737   1.449
 6269SOL     OW25394   4.070   1.024   1.690
 6269SOL    HW225395   4.024   0.940   1.692
 6269SOL    HW325396   4.127   1.018   1.614
 6269SOL    MW425397   4.072   1.012   1.682
 6270SOL     OW25398   5.187   0.667   0.011
 6270SOL    HW225399   5.115   0.643  -0.047
 6270SOL    HW325400   5.253   0.704  -0.047
 6270SOL    MW425401   5.186   0.669  -0.004
 6271SOL     OW25402   4.321   1.399   0.691
 6271SOL    HW225403   4.386   1.332   0.712
 6271SOL    HW325404   4.373   1.476   0.668
 6271SOL    MW425405   4.336   1.401   0.690
 6272SOL     OW25406   4.582   0.564   0.821
 6272SOL    HW225407   4.522   0.582   0.893
 6272SOL    HW325408   4.616   0.476   0.840
 6272SOL    MW425409   4.578   0.554   0.834
 6273SOL     OW25410   5.523   0.063   1.490
 6273SOL    HW225411   5.444   0.109   1.518
 6273SOL    HW325412   5.558   0.117   1.419
 6273SOL    MW425413   5.517   0.076   1.484
 6274SOL     OW25414   4.807   1.147   0.840
 6274SOL    HW225415   4.899   1.128   0.858
 6274SOL    HW325416   4.780   1.077   0.780
 6274SOL    MW425417   4.815   1.135   0.834
 6275SOL     OW25418   5.081   1.385   0.936
 6275SOL    HW225419   5.054   1.469   0.901
 6275SOL    HW325420   5.041   1.380   1.023
 6275SOL    MW425421   5.074   1.394   0.942
 6276SOL     OW25422   5.000   1.333   1.204
 6276SOL    HW225423   5.011   1.300   1.293
 6276SOL    HW325424   4.919   1.292   1.173
 6276SOL    MW425425   4.990   1.325   1.210
 6277SOL     OW25426   4.013   0.691   0.974
 6277SOL    HW225427   3.963   0.690   1.055
 6277SOL    HW325428   4.033   0.783   0.958
 6277SOL    MW425429   4.009   0.703   0.982
 6278SOL     OW25430   5.080   1.455   1.736
 6278SOL    HW225431   5.080   1.549   1.752
 6278SOL    HW325432   5.125   1.445   1.652
 6278SOL    MW425433   5.086   1.465   1.727
 6279SOL     OW25434   3.935   0.359   1.715
 6279SOL    HW225435   3.892   0.418   1.652
 6279SOL    HW325436   4.003   0.414   1.755
 6279SOL    MW425437   3.939   0.374   1.712
 6280SOL     OW25438   5.047   0.979   1.260
 6280SOL    HW225439   5.110   0.976   1.333
 6280SOL    HW325440   4.963   0.997   1.302
 6280SOL    MW425441   5.043   0.981   1.275
 6281SOL     OW25442   4.591   1.694   0.449
 6281SOL    HW225443   4.649   1.765   0.476
 6281SOL    HW325444   4.614   1.622   0.507
 6281SOL    MW425445   4.602   1.694   0.460
 6282SOL     OW25446   5.386   0.156   1.039
 6282SOL    HW225447   5.431   0.074   1.058
 6282SOL    HW325448   5.406   0.212   1.115
 6282SOL    MW425449   5.396   0.152   1.051
 6283SOL     OW25450   3.834  -0.001   1.138
 6283SOL    HW225451   3.825   0.000   1.043
 6283SOL    HW325452   3.928   0.011   1.153
 6283SOL    MW425453   3.846   0.002   1.129
 6284SOL     OW25454   5.471   1.192   0.758
 6284SOL    HW225455   5.450   1.138   0.681
 6284SOL    HW325456   5.567   1.190   0.762
 6284SOL    MW425457   5.480   1.185   0.747
 6285SOL     OW25458   4.163   1.337   1.501
 6285SOL    HW225459   4.084   1.287   1.524
 6285SOL    HW325460   4.233   1.296   1.551
 6285SOL    MW425461   4.161   1.325   1.511
 6286SOL     OW25462   5.171   0.623   1.020
 6286SOL    HW225463   5.094   0.669   0.986
 6286SOL    HW325464   5.228   0.692   1.054
 6286SOL    MW425465   5.168   0.638   1.020
 6287SOL     OW25466   3.837   1.482   0.222
 6287SOL    HW225467   3.854   1.566   0.264
 6287SOL    HW325468   3.872   1.491   0.134
 6287SOL    MW425469   3.842   1.495   0.216
 6288SOL     OW25470   5.109   1.571   0.439
 6288SOL    HW225471   5.172   1.561   0.368
 6288SOL    HW325472   5.026   1.591   0.394
 6288SOL    MW425473   5.106   1.572   0.424
 6289SOL     OW25474   5.472   0.839   2.125
 6289SOL    HW225475   5.513   0.781   2.190
 6289SOL    HW325476   5.379   0.831   2.142
 6289SOL    MW425477   5.466   0.831   2.135
 6290SOL     OW25478   5.338   0.771   3.120
 6290SOL    HW225479   5.293   0.838   3.171
 6290SOL    HW325480   5.426   0.807   3.106
 6290SOL    MW425481   5.344   0.784   3.124
 6291SOL     OW25482   4.266   1.022   2.354
 6291SOL    HW225483   4.356   0.997   2.338
 6291SOL    HW325484   4.262   1.115   2.331
 6291SOL    MW425485   4.278   1.031   2.349
 6292SOL     OW25486   5.382   1.725   2.496
 6292SOL    HW225487   5.394   1.671   2.574
 6292SOL    HW325488   5.419   1.673   2.425
 6292SOL    MW425489   5.388   1.710   2.497
 6293SOL     OW25490   4.761   1.610   3.497
 6293SOL    HW225491   4.802   1.646   3.418
 6293SOL    HW325492   4.796   1.521   3.504
 6293SOL    MW425493   4.772   1.603   3.488
 6294SOL     OW25494   5.318   1.165   3.101
 6294SOL    HW225495   5.239   1.130   3.059
 6294SOL    HW325496   5.345   1.237   3.045
 6294SOL    MW425497   5.311   1.170   3.088
 6295SOL     OW25498   4.550   0.478   2.367
 6295SOL    HW225499   4.525   0.566   2.395
 6295SOL    HW325500   4.547   0.481   2.271
 6295SOL    MW425501   4.546   0.490   2.359
 6296SOL     OW25502   3.992   0.506   2.295
 6296SOL    HW225503   4.024   0.594   2.277
 6296SOL    HW325504   3.980   0.504   2.390
 6296SOL    MW425505   3.995   0.518   2.307
 6297SOL     OW25506   4.070   0.919   3.196
 6297SOL    HW225507   4.133   0.866   3.147
 6297SOL    HW325508   4.051   0.993   3.139
 6297SOL    MW425509   4.076   0.921   3.183
 6298SOL     OW25510   4.391   0.261   2.382
 6298SOL    HW225511   4.449   0.337   2.384
 6298SOL    HW325512   4.326   0.282   2.315
 6298SOL    MW425513   4.390   0.273   2.373
 6299SOL     OW25514   4.478   1.188   2.557
 6299SOL    HW225515   4.558   1.191   2.609
 6299SOL    HW325516   4.506   1.155   2.471
 6299SOL    MW425517   4.492   1.184   2.552
 6300SOL     OW25518   4.503   1.529   3.460
 6300SOL    HW225519   4.587   1.555   3.499
 6300SOL    HW325520   4.527   1.473   3.386
 6300SOL    MW425521   4.517   1.525   3.455
 6301SOL     OW25522   4.255   0.692   2.548
 6301SOL    HW225523   4.240   0.612   2.599
 6301SOL    HW325524   4.337   0.727   2.582
 6301SOL    MW425525   4.263   0.684   2.560
 6302SOL     OW25526   4.592   1.378   3.233
 6302SOL    HW225527   4.556   1.444   3.173
 6302SOL    HW325528   4.520   1.316   3.246
 6302SOL    MW425529   4.578   1.378   3.227
 6303SOL     OW25530   4.397   0.518   2.925
 6303SOL    HW225531   4.303   0.514   2.943
 6303SOL    HW325532   4.427   0.427   2.934
 6303SOL    MW425533   4.388   0.506   2.928
 6304SOL     OW25534   4.143   0.932   2.829
 6304SOL    HW225535   4.098   0.939   2.745
 6304SOL    HW325536   4.123   1.015   2.873
 6304SOL    MW425537   4.135   0.944   2.823
 6305SOL     OW25538   3.840   1.778   2.704
 6305SOL    HW225539   3.929   1.770   2.739
 6305SOL    HW325540   3.804   1.690   2.709
 6305SOL    MW425541   3.847   1.765   2.709
 6306SOL     OW25542   5.105   1.170   2.073
 6306SOL    HW225543   5.023   1.206   2.039
 6306SOL    HW325544   5.173   1.213   2.022
 6306SOL    MW425545   5.103   1.180   2.061
 6307SOL     OW25546   4.104   1.305   2.739
 6307SOL    HW225547   4.080   1.358   2.815
 6307SOL    HW325548   4.160   1.363   2.687
 6307SOL    MW425549   4.108   1.320   2.742
 6308SOL     OW25550   4.666   0.949   2.549
 6308SOL    HW225551   4.580   0.936   2.589
 6308SOL    HW325552   4.719   0.876   2.581
 6308SOL    MW425553   4.662   0.938   2.558
 6309SOL     OW25554   4.074   1.601   3.334
 6309SOL    HW225555   3.982   1.577   3.319
 6309SOL    HW325556   4.118   1.518   3.351
 6309SOL    MW425557   4.068   1.586   3.333
 6310SOL     OW25558   4.657   1.311   2.266
 6310SOL    HW225559   4.634   1.373   2.334
 6310SOL    HW325560   4.614   1.229   2.292
 6310SOL    MW425561   4.649   1.307   2.277
 6311SOL     OW25562   5.530   0.312   2.722
 6311SOL    HW225563   5.467   0.292   2.791
 6311SOL    HW325564   5.520   0.241   2.659
 6311SOL    MW425565   5.520   0.299   2.723
 6312SOL     OW25566   4.154   0.284   2.234
 6312SOL    HW225567   4.128   0.246   2.150
 6312SOL    HW325568   4.091   0.354   2.250
 6312SOL    MW425569   4.143   0.287   2.225
 6313SOL     OW25570   3.989   1.245   2.271
 6313SOL    HW225571   3.937   1.313   2.227
 6313SOL    HW325572   3.986   1.171   2.211
 6313SOL    MW425573   3.981   1.244   2.258
 6314SOL     OW25574   4.651   1.708   2.049
 6314SOL    HW225575   4.606   1.724   2.132
 6314SOL    HW325576   4.582   1.673   1.991
 6314SOL    MW425577   4.637   1.705   2.051
 6315SOL     OW25578   5.586   0.481   2.024
 6315SOL    HW225579   5.495   0.483   2.052
 6315SOL    HW325580   5.631   0.543   2.082
 6315SOL    MW425581   5.579   0.489   2.034
 6316SOL     OW25582   5.331   1.084   2.374
 6316SOL    HW225583   5.241   1.084   2.409
 6316SOL    HW325584   5.324   1.130   2.291
 6316SOL    MW425585   5.318   1.090   2.368
 6317SOL     OW25586   5.131   0.719   3.446
 6317SOL    HW225587   5.200   0.657   3.423
 6317SOL    HW325588   5.056   0.693   3.393
 6317SOL    MW425589   5.131   0.706   3.437
 6318SOL     OW25590   3.872   1.599   2.998
 6318SOL    HW225591   3.855   1.545   3.075
 6318SOL    HW325592   3.860   1.689   3.028
 6318SOL    MW425593   3.869   1.603   3.012
 6319SOL     OW25594   4.663   0.530   3.639
 6319SOL    HW225595   4.753   0.531   3.606
 6319SOL    HW325596   4.622   0.455   3.597
 6319SOL    MW425597   4.669   0.520   3.630
 6320SOL     OW25598   5.238   1.062   2.766
 6320SOL    HW225599   5.241   0.996   2.697
 6320SOL    HW325600   5.323   1.105   2.762
 6320SOL    MW425601   5.250   1.058   2.757
 6321SOL     OW25602   4.858   0.665   2.335
 6321SOL    HW225603   4.884   0.689   2.246
 6321SOL    HW325604   4.840   0.572   2.331
 6321SOL    MW425605   4.860   0.657   2.322
 6322SOL     OW25606   5.523   1.285   2.186
 6322SOL    HW225607   5.479   1.326   2.261
 6322SOL    HW325608   5.580   1.353   2.151
 6322SOL    MW425609   5.525   1.299   2.191
 6323SOL     OW25610   4.443   0.334   3.589
 6323SOL    HW225611   4.453   0.260   3.529
 6323SOL    HW325612   4.479   0.303   3.672
 6323SOL    MW425613   4.449   0.320   3.591
 6324SOL     OW25614   4.179   1.701   2.504
 6324SOL    HW225615   4.211   1.789   2.482
 6324SOL    HW325616   4.132   1.673   2.426
 6324SOL    MW425617   4.178   1.709   2.491
 6325SOL     OW25618   5.563   0.063   2.553
 6325SOL    HW225619   5.617   0.014   2.615
 6325SOL    HW325620   5.506  -0.003   2.514
 6325SOL    MW425621   5.563   0.047   2.555
 6326SOL     OW25622   3.895   1.761   2.081
 6326SOL    HW225623   3.924   1.851   2.073
 6326SOL    HW325624   3.845   1.744   2.002
 6326SOL    MW425625   3.893   1.769   2.070
 6327SOL     OW25626   4.682   0.016   2.966
 6327SOL    HW225627   4.641   0.094   2.928
 6327SOL    HW325628   4.776   0.034   2.961
 6327SOL    MW425629   4.688   0.028   2.961
 6328SOL     OW25630   5.299   1.569   2.052
 6328SOL    HW225631   5.347   1.638   2.098
 6328SOL    HW325632   5.220   1.613   2.021
 6328SOL    MW425633   5.294   1.583   2.055
 6329SOL     OW25634   4.697   0.694   1.996
 6329SOL    HW225635   4.699   0.641   1.917
 6329SOL    HW325636   4.785   0.731   2.002
 6329SOL    MW425637   4.709   0.693   1.985
 6330SOL     OW25638   5.311   0.620   2.332
 6330SOL    HW225639   5.350   0.620   2.419
 6330SOL    HW325640   5.252   0.696   2.332
 6330SOL    MW425641   5.308   0.631   2.343
 6331SOL     OW25642   4.628   0.987   3.461
 6331SOL    HW225643   4.605   0.967   3.551
 6331SOL    HW325644   4.713   1.031   3.466
 6331SOL    MW425645   4.635   0.990   3.473
 6332SOL     OW25646   4.708   0.124   3.221
 6332SOL    HW225647   4.714   0.086   3.134
 6332SOL    HW325648   4.697   0.218   3.206
 6332SOL    MW425649   4.709   0.132   3.209
 6333SOL     OW25650   4.797   0.613   3.055
 6333SOL    HW225651   4.872   0.642   3.002
 6333SOL    HW325652   4.729   0.678   3.039
 6333SOL    MW425653   4.798   0.625   3.045
 6334SOL     OW25654   5.347   0.581   3.332
 6334SOL    HW225655   5.328   0.490   3.311
 6334SOL    HW325656   5.325   0.630   3.253
 6334SOL    MW425657   5.342   0.574   3.319
 6335SOL     OW25658   5.489   1.675   3.236
 6335SOL    HW225659   5.417   1.637   3.287
 6335SOL    HW325660   5.506   1.760   3.277
 6335SOL    MW425661   5.483   1.680   3.248
 6336SOL     OW25662   4.794   0.319   3.438
 6336SOL    HW225663   4.760   0.358   3.357
 6336SOL    HW325664   4.772   0.227   3.431
 6336SOL    MW425665   4.787   0.312   3.428
 6337SOL     OW25666   5.203   1.133   3.514
 6337SOL    HW225667   5.285   1.174   3.544
 6337SOL    HW325668   5.166   1.095   3.594
 6337SOL    MW425669   5.209   1.134   3.529
 6338SOL     OW25670   5.498   0.506   2.498
 6338SOL    HW225671   5.587   0.475   2.515
 6338SOL    HW325672   5.441   0.446   2.546
 6338SOL    MW425673   5.501   0.494   2.507
 6339SOL     OW25674   3.924   0.220   2.527
 6339SOL    HW225675   3.915   0.160   2.453
 6339SOL    HW325676   3.857   0.191   2.590
 6339SOL    MW425677   3.914   0.207   2.525
 6340SOL     OW25678   4.867   1.313   2.088
 6340SOL    HW225679   4.817   1.315   2.170
 6340SOL    HW325680   4.801   1.331   2.020
 6340SOL    MW425681   4.853   1.315   2.090
 6341SOL     OW25682   3.871   0.393   2.890
 6341SOL    HW225683   3.843   0.484   2.899
 6341SOL    HW325684   3.808   0.354   2.829
 6341SOL    MW425685   3.858   0.399   2.884
 6342SOL     OW25686   4.330   1.731   2.196
 6342SOL    HW225687   4.251   1.689   2.229
 6342SOL    HW325688   4.396   1.714   2.263
 6342SOL    MW425689   4.329   1.723   2.209
 6343SOL     OW25690   5.458   1.251   3.593
 6343SOL    HW225691   5.508   1.177   3.625
 6343SOL    HW325692   5.404   1.278   3.668
 6343SOL    MW425693   5.458   1.245   3.606
 6344SOL     OW25694   4.466   1.146   1.903
 6344SOL    HW225695   4.388   1.092   1.890
 6344SOL    HW325696   4.437   1.219   1.956
 6344SOL    MW425697   4.452   1.148   1.908
 6345SOL     OW25698   5.592   0.886   3.095
 6345SOL    HW225699   5.608   0.924   3.008
 6345SOL    HW325700   5.626   0.952   3.156
 6345SOL    MW425701   5.599   0.899   3.091
 6346SOL     OW25702   5.384   1.595   2.764
 6346SOL    HW225703   5.413   1.662   2.825
 6346SOL    HW325704   5.365   1.519   2.819
 6346SOL    MW425705   5.386   1.595   2.779
 6347SOL     OW25706   5.047   1.662   1.971
 6347SOL    HW225707   4.973   1.625   2.021
 6347SOL    HW325708   5.055   1.752   2.004
 6347SOL    MW425709   5.038   1.669   1.983
 6348SOL     OW25710   3.855   0.668   3.060
 6348SOL    HW225711   3.917   0.698   3.126
 6348SOL    HW325712   3.789   0.737   3.054
 6348SOL    MW425713   3.854   0.681   3.067
 6349SOL     OW25714   5.271   1.336   1.913
 6349SOL    HW225715   5.218   1.385   1.849
 6349SOL    HW325716   5.302   1.402   1.974
 6349SOL    MW425717   5.269   1.350   1.911
 6350SOL     OW25718   4.496   0.225   1.968
 6350SOL    HW225719   4.444   0.145   1.956
 6350SOL    HW325720   4.583   0.202   1.936
 6350SOL    MW425721   4.499   0.211   1.962
 6351SOL     OW25722   3.950   1.777   3.512
 6351SOL    HW225723   3.924   1.845   3.450
 6351SOL    HW325724   3.998   1.714   3.460
 6351SOL    MW425725   3.952   1.777   3.498
 6352SOL     OW25726   4.002   1.096   3.019
 6352SOL    HW225727   4.055   1.171   3.044
 6352SOL    HW325728   3.921   1.134   2.985
 6352SOL    MW425729   3.998   1.111   3.019
 6353SOL     OW25730   4.542   1.000   3.007
 6353SOL    HW225731   4.570   0.909   3.019
 6353SOL    HW325732   4.471   0.994   2.943
 6353SOL    MW425733   4.535   0.988   3.002
 6354SOL     OW25734   3.857   0.865   2.425
 6354SOL    HW225735   3.948   0.880   2.452
 6354SOL    HW325736   3.860   0.786   2.371
 6354SOL    MW425737   3.869   0.857   2.423
 6355SOL     OW25738   4.093   0.573   3.679
 6355SOL    HW225739   4.040   0.653   3.686
 6355SOL    HW325740   4.163   0.585   3.744
 6355SOL    MW425741   4.095   0.586   3.687
 6356SOL     OW25742   4.479   0.123   3.386
 6356SOL    HW225743   4.456   0.031   3.388
 6356SOL    HW325744   4.565   0.125   3.343
 6356SOL    MW425745   4.486   0.113   3.382
 6357SOL     OW25746   4.163   0.647   3.425
 6357SOL    HW225747   4.243   0.697   3.411
 6357SOL    HW325748   4.154   0.641   3.520
 6357SOL    MW425749   4.172   0.653   3.435
 6358SOL     OW25750   4.484   1.797   2.799
 6358SOL    HW225751   4.573   1.812   2.829
 6358SOL    HW325752   4.479   1.844   2.715
 6358SOL    MW425753   4.494   1.805   2.792
 6359SOL     OW25754   5.140   0.172   3.696
 6359SOL    HW225755   5.196   0.099   3.722
 6359SOL    HW325756   5.110   0.210   3.778
 6359SOL    MW425757   5.144   0.167   3.709
 6360SOL     OW25758   3.865   1.477   2.464
 6360SOL    HW225759   3.837   1.516   2.546
 6360SOL    HW325760   3.885   1.386   2.486
 6360SOL    MW425761   3.863   1.469   2.477
 6361SOL     OW25762   4.698   1.520   2.499
 6361SOL    HW225763   4.781   1.474   2.483
 6361SOL    HW325764   4.688   1.519   2.595
 6361SOL    MW425765   4.708   1.513   2.509
 6362SOL     OW25766   5.530   0.665   2.813
 6362SOL    HW225767   5.619   0.695   2.795
 6362SOL    HW325768   5.510   0.605   2.742
 6362SOL    MW425769   5.539   0.662   2.802
 6363SOL     OW25770   5.381   0.844   3.693
 6363SOL    HW225771   5.436   0.768   3.674
 6363SOL    HW325772   5.383   0.852   3.788
 6363SOL    MW425773   5.389   0.835   3.701
 6364SOL     OW25774   4.431   1.577   1.904
 6364SOL    HW225775   4.371   1.646   1.874
 6364SOL    HW325776   4.376   1.519   1.957
 6364SOL    MW425777   4.415   1.579   1.906
 6365SOL     OW25778   4.869   0.222   2.127
 6365SOL    HW225779   4.802   0.198   2.064
 6365SOL    HW325780   4.934   0.271   2.076
 6365SOL    MW425781   4.869   0.224   2.112
 6366SOL     OW25782   4.676   0.406   3.212
 6366SOL    HW225783   4.595   0.447   3.240
 6366SOL    HW325784   4.723   0.474   3.164
 6366SOL    MW425785   4.671   0.421   3.210
 6367SOL     OW25786   4.936   0.744   2.835
 6367SOL    HW225787   4.949   0.838   2.845
 6367SOL    HW325788   4.897   0.734   2.749
 6367SOL    MW425789   4.932   0.755   2.825
 6368SOL     OW25790   4.388   0.939   2.639
 6368SOL    HW225791   4.299   0.930   2.672
 6368SOL    HW325792   4.392   1.029   2.607
 6368SOL    MW425793   4.377   0.950   2.639
 6369SOL     OW25794   5.187   0.522   2.634
 6369SOL    HW225795   5.132   0.443   2.633
 6369SOL    HW325796   5.169   0.563   2.718
 6369SOL    MW425797   5.177   0.517   2.643
 6370SOL     OW25798   4.158   0.209   3.451
 6370SOL    HW225799   4.079   0.227   3.503
 6370SOL    HW325800   4.153   0.271   3.378
 6370SOL    MW425801   4.148   0.219   3.448
 6371SOL     OW25802   4.806   0.726   2.591
 6371SOL    HW225803   4.743   0.658   2.615
 6371SOL    HW325804   4.826   0.707   2.499
 6371SOL    MW425805   4.800   0.713   2.583
 6372SOL     OW25806   4.062   1.621   2.293
 6372SOL    HW225807   4.023   1.668   2.219
 6372SOL    HW325808   3.996   1.556   2.318
 6372SOL    MW425809   4.049   1.619   2.287
 6373SOL     OW25810   4.554   1.030   2.317
 6373SOL    HW225811   4.556   1.004   2.224
 6373SOL    HW325812   4.612   0.967   2.360
 6373SOL    MW425813   4.562   1.019   2.311
 6374SOL     OW25814   5.107   1.590   3.089
 6374SOL    HW225815   5.032   1.636   3.127
 6374SOL    HW325816   5.089   1.497   3.106
 6374SOL    MW425817   5.096   1.584   3.097
 6375SOL     OW25818   5.111   1.798   2.519
 6375SOL    HW225819   5.054   1.751   2.458
 6375SOL    HW325820   5.197   1.759   2.506
 6375SOL    MW425821   5.114   1.789   2.509
 6376SOL     OW25822   5.064   0.274   2.650
 6376SOL    HW225823   5.092   0.206   2.711
 6376SOL    HW325824   4.978   0.245   2.620
 6376SOL    MW425825   5.057   0.261   2.654
 6377SOL     OW25826   3.869   1.208   2.584
 6377SOL    HW225827   3.933   1.240   2.647
 6377SOL    HW325828   3.918   1.144   2.532
 6377SOL    MW425829   3.884   1.204   2.585
 6378SOL     OW25830   4.369   1.284   3.566
 6378SOL    HW225831   4.417   1.367   3.553
 6378SOL    HW325832   4.426   1.232   3.622
 6378SOL    MW425833   4.383   1.288   3.572
 6379SOL     OW25834   3.945   1.526   3.706
 6379SOL    HW225835   4.001   1.450   3.721
 6379SOL    HW325836   3.894   1.504   3.628
 6379SOL    MW425837   3.945   1.513   3.697
 6380SOL     OW25838   5.044   0.378   1.985
 6380SOL    HW225839   5.017   0.444   1.921
 6380SOL    HW325840   5.114   0.421   2.035
 6380SOL    MW425841   5.049   0.391   1.982
 6381SOL     OW25842   4.712   0.083   1.922
 6381SOL    HW225843   4.768   0.075   1.844
 6381SOL    HW325844   4.689  -0.007   1.944
 6381SOL    MW425845   4.717   0.070   1.915
 6382SOL     OW25846   5.217   0.934   2.127
 6382SOL    HW225847   5.184   1.023   2.117
 6382SOL    HW325848   5.182   0.905   2.212
 6382SOL    MW425849   5.207   0.943   2.138
 6383SOL     OW25850   4.830   1.363   3.315
 6383SOL    HW225851   4.741   1.369   3.283
 6383SOL    HW325852   4.874   1.442   3.283
 6383SOL    MW425853   4.825   1.373   3.307
 6384SOL     OW25854   4.123   0.031   3.657
 6384SOL    HW225855   4.051  -0.004   3.605
 6384SOL    HW325856   4.181   0.072   3.592
 6384SOL    MW425857   4.121   0.032   3.642
 6385SOL     OW25858   4.147   1.521   2.956
 6385SOL    HW225859   4.192   1.583   3.013
 6385SOL    HW325860   4.054   1.540   2.969
 6385SOL    MW425861   4.140   1.531   2.963
 6386SOL     OW25862   5.587   1.050   3.310
 6386SOL    HW225863   5.502   1.063   3.269
 6386SOL    HW325864   5.567   1.014   3.397
 6386SOL    MW425865   5.574   1.046   3.315
 6387SOL     OW25866   4.569   1.589   3.064
 6387SOL    HW225867   4.593   1.578   2.973
 6387SOL    HW325868   4.492   1.646   3.062
 6387SOL    MW425869   4.561   1.594   3.053
 6388SOL     OW25870   4.211   0.972   1.919
 6388SOL    HW225871   4.134   0.985   1.975
 6388SOL    HW325872   4.175   0.936   1.838
 6388SOL    MW425873   4.197   0.968   1.916
 6389SOL     OW25874   4.864   0.945   2.162
 6389SOL    HW225875   4.774   0.966   2.137
 6389SOL    HW325876   4.891   1.018   2.218
 6389SOL    MW425877   4.856   0.957   2.165
 6390SOL     OW25878   4.364   1.294   2.854
 6390SOL    HW225879   4.357   1.273   2.948
 6390SOL    HW325880   4.282   1.262   2.817
 6390SOL    MW425881   4.352   1.288   2.861
 6391SOL     OW25882   5.228   0.304   3.256
 6391SOL    HW225883   5.175   0.306   3.336
 6391SOL    HW325884   5.213   0.217   3.219
 6391SOL    MW425885   5.220   0.294   3.261
 6392SOL     OW25886   5.564   0.228   3.129
 6392SOL    HW225887   5.545   0.295   3.064
 6392SOL    HW325888   5.621   0.166   3.084
 6392SOL    MW425889   5.568   0.229   3.115
 6393SOL     OW25890   3.810   1.386   3.517
 6393SOL    HW225891   3.854   1.319   3.463
 6393SOL    HW325892   3.725   1.348   3.537
 6393SOL    MW425893   3.805   1.372   3.513
 6394SOL     OW25894   4.493   0.061   2.569
 6394SOL    HW225895   4.422   0.122   2.551
 6394SOL    HW325896   4.544   0.058   2.488
 6394SOL    MW425897   4.489   0.067   2.556
 6395SOL     OW25898   4.251   1.301   2.318
 6395SOL    HW225899   4.244   1.333   2.408
 6395SOL    HW325900   4.161   1.285   2.290
 6395SOL    MW425901   4.239   1.303   2.325
 6396SOL     OW25902   4.846   1.694   3.227
 6396SOL    HW225903   4.766   1.679   3.177
 6396SOL    HW325904   4.853   1.789   3.234
 6396SOL    MW425905   4.837   1.705   3.221
 6397SOL     OW25906   4.960   1.659   2.717
 6397SOL    HW225907   5.007   1.732   2.676
 6397SOL    HW325908   4.881   1.698   2.753
 6397SOL    MW425909   4.955   1.674   2.716
 6398SOL     OW25910   5.368   1.754   2.992
 6398SOL    HW225911   5.411   1.724   3.072
 6398SOL    HW325912   5.287   1.702   2.989
 6398SOL    MW425913   5.363   1.743   3.002
 6399SOL     OW25914   4.453   0.718   3.699
 6399SOL    HW225915   4.523   0.660   3.671
 6399SOL    HW325916   4.396   0.663   3.754
 6399SOL    MW425917   4.455   0.705   3.703
 6400SOL     OW25918   5.240   0.930   3.332
 6400SOL    HW225919   5.245   0.983   3.412
 6400SOL    HW325920   5.202   0.847   3.360
 6400SOL    MW425921   5.236   0.925   3.347
 6401SOL     OW25922   4.880   0.065   3.578
 6401SOL    HW225923   4.875  -0.028   3.559
 6401SOL    HW325924   4.963   0.076   3.624
 6401SOL    MW425925   4.888   0.054   3.582
 6402SOL     OW25926   4.254   0.585   2.032
 6402SOL    HW225927   4.220   0.641   2.102
 6402SOL    HW325928   4.325   0.535   2.072
 6402SOL    MW425929   4.260   0.586   2.046
 6403SOL     OW25930   5.350   1.336   2.854
 6403SOL    HW225931   5.385   1.318   2.767
 6403SOL    HW325932   5.255   1.337   2.841
 6403SOL    MW425933   5.342   1.333   2.841
 6404SOL     OW25934   4.779   0.984   3.223
 6404SOL    HW225935   4.822   1.019   3.301
 6404SOL    HW325936   4.762   1.061   3.169
 6404SOL    MW425937   4.782   0.999   3.226
 6405SOL     OW25938   5.310   0.471   2.096
 6405SOL    HW225939   5.302   0.542   2.033
 6405SOL    HW325940   5.328   0.515   2.179
 6405SOL    MW425941   5.311   0.485   2.098
 6406SOL     OW25942   4.170   0.126   2.525
 6406SOL    HW225943   4.220   0.169   2.456
 6406SOL    HW325944   4.085   0.170   2.525
 6406SOL    MW425945   4.167   0.139   2.516
 6407SOL     OW25946   3.929   1.188   3.385
 6407SOL    HW225947   3.957   1.141   3.463
 6407SOL    HW325948   3.850   1.143   3.356
 6407SOL    MW425949   3.922   1.177   3.391
 6408SOL     OW25950   4.437   0.515   3.352
 6408SOL    HW225951   4.409   0.603   3.376
 6408SOL    HW325952   4.406   0.459   3.423
 6408SOL    MW425953   4.429   0.518   3.364
 6409SOL     OW25954   4.979   0.733   2.071
 6409SOL    HW225955   5.026   0.751   1.990
 6409SOL    HW325956   4.945   0.817   2.099
 6409SOL    MW425957   4.981   0.747   2.064
 6410SOL     OW25958   4.092   0.911   2.565
 6410SOL    HW225959   4.150   0.967   2.513
 6410SOL    HW325960   4.136   0.826   2.567
 6410SOL    MW425961   4.105   0.908   2.558
 6411SOL     OW25962   5.232   0.263   2.402
 6411SOL    HW225963   5.154   0.213   2.427
 6411SOL    HW325964   5.203   0.354   2.402
 6411SOL    MW425965   5.218   0.267   2.405
 6412SOL     OW25966   4.818   0.225   2.561
 6412SOL    HW225967   4.838   0.300   2.505
 6412SOL    HW325968   4.798   0.264   2.646
 6412SOL    MW425969   4.819   0.241   2.565
 6413SOL     OW25970   4.714   1.475   1.893
 6413SOL    HW225971   4.741   1.553   1.845
 6413SOL    HW325972   4.621   1.490   1.912
 6413SOL    MW425973   4.705   1.488   1.889
 6414SOL     OW25974   5.578   0.998   3.580
 6414SOL    HW225975   5.491   0.978   3.616
 6414SOL    HW325976   5.632   0.924   3.605
 6414SOL    MW425977   5.573   0.987   3.588
 6415SOL     OW25978   3.799   1.511   2.737
 6415SOL    HW225979   3.831   1.515   2.828
 6415SOL    HW325980   3.704   1.519   2.745
 6415SOL    MW425981   3.791   1.514   2.750
 6416SOL     OW25982   3.754   0.637   2.284
 6416SOL    HW225983   3.694   0.609   2.354
 6416SOL    HW325984   3.828   0.577   2.290
 6416SOL    MW425985   3.756   0.626   2.293
 6417SOL     OW25986   5.322   1.849   3.718
 6417SOL    HW225987   5.367   1.773   3.683
 6417SOL    HW325988   5.360   1.862   3.805
 6417SOL    MW425989   5.332   1.842   3.724
 6418SOL     OW25990   4.922   1.368   2.444
 6418SOL    HW225991   4.945   1.319   2.522
 6418SOL    HW325992   5.003   1.410   2.416
 6418SOL    MW425993   4.935   1.368   2.451
 6419SOL     OW25994   4.180   0.376   3.173
 6419SOL    HW225995   4.213   0.457   3.213
 6419SOL    HW325996   4.153   0.402   3.085
 6419SOL    MW425997   4.179   0.390   3.167
 6420SOL     OW25998   4.134   0.343   2.909
 6420SOL    HW225999   4.164   0.257   2.880
 6420SOL    HW326000   4.039   0.336   2.912
 6420SOL    MW426001   4.126   0.332   2.907
 6421SOL     OW26002   4.963   0.552   3.600
 6421SOL    HW226003   5.015   0.487   3.553
 6421SOL    HW326004   4.921   0.603   3.530
 6421SOL    MW426005   4.964   0.549   3.583
 6422SOL     OW26006   5.062   0.347   3.461
 6422SOL    HW226007   4.969   0.331   3.448
 6422SOL    HW326008   5.088   0.285   3.529
 6422SOL    MW426009   5.052   0.337   3.468
 6423SOL     OW26010   4.277   0.121   2.800
 6423SOL    HW226011   4.287   0.030   2.826
 6423SOL    HW326012   4.233   0.117   2.715
 6423SOL    MW426013   4.273   0.109   2.792
 6424SOL     OW26014   4.371   1.736   3.346
 6424SOL    HW226015   4.288   1.721   3.391
 6424SOL    HW326016   4.430   1.669   3.381
 6424SOL    MW426017   4.369   1.726   3.356
 6425SOL     OW26018   5.428   0.443   2.971
 6425SOL    HW226019   5.361   0.476   3.031
 6425SOL    HW326020   5.471   0.521   2.937
 6425SOL    MW426021   5.426   0.458   2.975
 6426SOL     OW26022   5.606   1.163   2.941
 6426SOL    HW226023   5.599   1.103   2.866
 6426SOL    HW326024   5.532   1.223   2.930
 6426SOL    MW426025   5.596   1.163   2.930
 6427SOL     OW26026   4.988   1.025   2.859
 6427SOL    HW226027   5.002   0.997   2.950
 6427SOL    HW326028   5.074   1.056   2.831
 6427SOL    MW426029   5.001   1.026   2.868
 6428SOL     OW26030   5.071   0.520   3.138
 6428SOL    HW226031   5.092   0.521   3.045
 6428SOL    HW326032   5.116   0.442   3.171
 6428SOL    MW426033   5.078   0.510   3.130
 6429SOL     OW26034   5.564   0.651   3.680
 6429SOL    HW226035   5.601   0.596   3.749
 6429SOL    HW326036   5.589   0.608   3.598
 6429SOL    MW426037   5.571   0.639   3.679
 6430SOL     OW26038   5.111   0.949   3.731
 6430SOL    HW226039   5.177   0.897   3.685
 6430SOL    HW326040   5.131   0.936   3.824
 6430SOL    MW426041   5.122   0.940   3.738
 6431SOL     OW26042   5.062   0.035   2.080
 6431SOL    HW226043   5.136   0.079   2.123
 6431SOL    HW326044   4.986   0.089   2.102
 6431SOL    MW426045   5.062   0.047   2.088
 6432SOL     OW26046   5.122   0.810   2.358
 6432SOL    HW226047   5.037   0.780   2.328
 6432SOL    HW326048   5.114   0.817   2.453
 6432SOL    MW426049   5.110   0.808   2.367
 6433SOL     OW26050   4.198   1.273   3.089
 6433SOL    HW226051   4.210   1.300   3.180
 6433SOL    HW326052   4.179   1.354   3.042
 6433SOL    MW426053   4.197   1.288   3.094
 6434SOL     OW26054   4.482   0.253   2.912
 6434SOL    HW226055   4.455   0.255   3.003
 6434SOL    HW326056   4.412   0.205   2.867
 6434SOL    MW426057   4.470   0.249   2.919
 6435SOL     OW26058   4.336   1.745   3.074
 6435SOL    HW226059   4.388   1.822   3.051
 6435SOL    HW326060   4.345   1.737   3.169
 6435SOL    MW426061   4.345   1.752   3.085
 6436SOL     OW26062   5.238   1.330   3.306
 6436SOL    HW226063   5.223   1.259   3.369
 6436SOL    HW326064   5.284   1.288   3.234
 6436SOL    MW426065   5.244   1.314   3.306
 6437SOL     OW26066   4.312   1.061   3.423
 6437SOL    HW226067   4.349   1.066   3.335
 6437SOL    HW326068   4.351   1.134   3.470
 6437SOL    MW426069   4.322   1.071   3.418
 6438SOL     OW26070   4.492   1.104   3.235
 6438SOL    HW226071   4.551   1.050   3.288
 6438SOL    HW326072   4.507   1.076   3.145
 6438SOL    MW426073   4.502   1.093   3.231
 6439SOL     OW26074   4.495   0.476   2.084
 6439SOL    HW226075   4.568   0.525   2.047
 6439SOL    HW326076   4.511   0.385   2.058
 6439SOL    MW426077   4.507   0.471   2.077
 6440SOL     OW26078   5.303   1.593   3.407
 6440SOL    HW226079   5.345   1.578   3.492
 6440SOL    HW326080   5.294   1.506   3.369
 6440SOL    MW426081   5.307   1.581   3.414
 6441SOL     OW26082   4.963   0.072   2.998
 6441SOL    HW226083   5.018   0.081   2.920
 6441SOL    HW326084   5.018   0.106   3.069
 6441SOL    MW426085   4.977   0.077   2.997
 6442SOL     OW26086   3.970   0.985   2.182
 6442SOL    HW226087   3.907   1.001   2.111
 6442SOL    HW326088   3.917   0.948   2.253
 6442SOL    MW426089   3.955   0.982   2.182
 6443SOL     OW26090   4.326   1.339   2.041
 6443SOL    HW226091   4.341   1.315   2.133
 6443SOL    HW326092   4.234   1.317   2.025
 6443SOL    MW426093   4.316   1.332   2.051
 6444SOL     OW26094   4.865   1.570   2.193
 6444SOL    HW226095   4.873   1.488   2.144
 6444SOL    HW326096   4.784   1.609   2.160
 6444SOL    MW426097   4.855   1.565   2.183
 6445SOL     OW26098   4.124   1.728   2.762
 6445SOL    HW226099   4.128   1.639   2.797
 6445SOL    HW326100   4.150   1.719   2.671
 6445SOL    MW426101   4.127   1.716   2.754
 6446SOL     OW26102   4.741   1.206   3.005
 6446SOL    HW226103   4.673   1.140   3.021
 6446SOL    HW326104   4.759   1.200   2.912
 6446SOL    MW426105   4.734   1.197   2.996
 6447SOL     OW26106   3.830   1.481   3.256
 6447SOL    HW226107   3.820   1.439   3.342
 6447SOL    HW326108   3.751   1.534   3.246
 6447SOL    MW426109   3.819   1.482   3.267
 6448SOL     OW26110   4.734   0.345   2.826
 6448SOL    HW226111   4.664   0.297   2.871
 6448SOL    HW326112   4.766   0.408   2.890
 6448SOL    MW426113   4.729   0.347   2.840
 6449SOL     OW26114   4.385   0.781   3.446
 6449SOL    HW226115   4.378   0.876   3.434
 6449SOL    HW326116   4.394   0.770   3.541
 6449SOL    MW426117   4.386   0.793   3.456
 6450SOL     OW26118   4.106   1.296   3.704
 6450SOL    HW226119   4.178   1.298   3.641
 6450SOL    HW326120   4.076   1.205   3.703
 6450SOL    MW426121   4.111   1.285   3.696
 6451SOL     OW26122   5.190   0.059   3.171
 6451SOL    HW226123   5.261   0.005   3.135
 6451SOL    HW326124   5.189   0.038   3.264
 6451SOL    MW426125   5.199   0.050   3.179
 6452SOL     OW26126   5.390   1.589   3.655
 6452SOL    HW226127   5.363   1.586   3.746
 6452SOL    HW326128   5.486   1.593   3.658
 6452SOL    MW426129   5.400   1.589   3.667
 6453SOL     OW26130   4.201   0.451   2.639
 6453SOL    HW226131   4.272   0.399   2.602
 6453SOL    HW326132   4.187   0.416   2.726
 6453SOL    MW426133   4.209   0.440   2.646
 6454SOL     OW26134   3.756   1.786   3.711
 6454SOL    HW226135   3.806   1.764   3.633
 6454SOL    HW326136   3.764   1.881   3.719
 6454SOL    MW426137   3.764   1.795   3.702
 6455SOL     OW26138   4.517   1.544   2.715
 6455SOL    HW226139   4.445   1.481   2.728
 6455SOL    HW326140   4.478   1.629   2.733
 6455SOL    MW426141   4.501   1.547   2.718
 6456SOL     OW26142   4.837   0.392   2.363
 6456SOL    HW226143   4.859   0.329   2.295
 6456SOL    HW326144   4.742   0.384   2.374
 6456SOL    MW426145   4.827   0.383   2.355
 6457SOL     OW26146   3.922   0.082   2.295
 6457SOL    HW226147   3.993   0.103   2.234
 6457SOL    HW326148   3.876   0.010   2.253
 6457SOL    MW426149   3.926   0.076   2.281
 6458SOL     OW26150   3.753   0.549   3.438
 6458SOL    HW226151   3.817   0.615   3.413
 6458SOL    HW326152   3.672   0.576   3.395
 6458SOL    MW426153   3.751   0.561   3.430
 6459SOL     OW26154   5.491   1.456   2.395
 6459SOL    HW226155   5.461   1.389   2.456
 6459SOL    HW326156   5.585   1.462   2.409
 6459SOL    MW426157   5.499   1.448   2.405
 6460SOL     OW26158   5.047   1.133   2.325
 6460SOL    HW226159   5.019   1.219   2.358
 6460SOL    HW326160   5.075   1.149   2.235
 6460SOL    MW426161   5.047   1.147   2.317
 6461SOL     OW26162   4.709   0.053   2.378
 6461SOL    HW226163   4.746   0.112   2.443
 6461SOL    HW326164   4.686   0.109   2.304
 6461SOL    MW426165   4.710   0.068   2.377
 6462SOL     OW26166   5.562   0.935   2.800
 6462SOL    HW226167   5.553   0.967   2.711
 6462SOL    HW326168   5.515   0.851   2.800
 6462SOL    MW426169   5.555   0.928   2.790
 6463SOL     OW26170   3.938   0.775   3.379
 6463SOL    HW226171   3.959   0.844   3.317
 6463SOL    HW326172   4.018   0.722   3.384
 6463SOL    MW426173   3.951   0.776   3.373
 6464SOL     OW26174   5.474   0.866   2.501
 6464SOL    HW226175   5.568   0.855   2.489
 6464SOL    HW326176   5.450   0.938   2.442
 6464SOL    MW426177   5.484   0.874   2.492
 6465SOL     OW26178   3.923   0.790   3.646
 6465SOL    HW226179   3.849   0.734   3.672
 6465SOL    HW326180   3.918   0.793   3.551
 6465SOL    MW426181   3.912   0.783   3.636
 6466SOL     OW26182   4.089   0.077   3.096
 6466SOL    HW226183   4.132   0.161   3.116
 6466SOL    HW326184   4.162   0.015   3.089
 6466SOL    MW426185   4.104   0.080   3.097
 6467SOL     OW26186   4.130   0.744   2.274
 6467SOL    HW226187   4.130   0.839   2.259
 6467SOL    HW326188   4.207   0.728   2.328
 6467SOL    MW426189   4.140   0.755   2.279
 6468SOL     OW26190   4.906   0.603   3.338
 6468SOL    HW226191   4.942   0.576   3.254
 6468SOL    HW326192   4.819   0.637   3.317
 6468SOL    MW426193   4.900   0.604   3.325
 6469SOL     OW26194   3.889   0.475   2.563
 6469SOL    HW226195   3.951   0.482   2.636
 6469SOL    HW326196   3.889   0.382   2.540
 6469SOL    MW426197   3.897   0.464   2.570
 6470SOL     OW26198   5.436   1.815   2.095
 6470SOL    HW226199   5.503   1.848   2.035
 6470SOL    HW326200   5.393   1.894   2.129
 6470SOL    MW426201   5.438   1.830   2.091
 6471SOL     OW26202   4.571   0.736   3.047
 6471SOL    HW226203   4.529   0.654   3.023
 6471SOL    HW326204   4.572   0.735   3.143
 6471SOL    MW426205   4.564   0.725   3.056
 6472SOL     OW26206   5.242   1.869   3.446
 6472SOL    HW226207   5.245   1.775   3.429
 6472SOL    HW326208   5.265   1.877   3.538
 6472SOL    MW426209   5.245   1.857   3.456
 6473SOL     OW26210   4.375   0.206   3.152
 6473SOL    HW226211   4.306   0.269   3.173
 6473SOL    HW326212   4.402   0.170   3.237
 6473SOL    MW426213   4.369   0.209   3.165
 6474SOL     OW26214   3.758   1.047   2.021
 6474SOL    HW226215   3.727   1.112   2.084
 6474SOL    HW326216   3.707   0.969   2.040
 6474SOL    MW426217   3.748   1.044   2.031
 6475SOL     OW26218   5.170   0.059   2.769
 6475SOL    HW226219   5.258   0.068   2.806
 6475SOL    HW326220   5.180   0.000   2.695
 6475SOL    MW426221   5.184   0.053   2.763
 6476SOL     OW26222   5.202   0.798   2.613
 6476SOL    HW226223   5.282   0.813   2.562
 6476SOL    HW326224   5.195   0.703   2.619
 6476SOL    MW426225   5.211   0.787   2.608
 6477SOL     OW26226   4.342   1.847   1.963
 6477SOL    HW226227   4.247   1.847   1.955
 6477SOL    HW326228   4.358   1.793   2.041
 6477SOL    MW426229   4.332   1.841   1.972
 6478SOL     OW26230   4.652   0.724   3.310
 6478SOL    HW226231   4.721   0.791   3.307
 6478SOL    HW326232   4.585   0.762   3.366
 6478SOL    MW426233   4.653   0.737   3.317
 6479SOL     OW26234   4.070   1.024   3.558
 6479SOL    HW226235   4.024   0.940   3.560
 6479SOL    HW326236   4.127   1.018   3.482
 6479SOL    MW426237   4.072   1.012   3.550
 6480SOL     OW26238   5.187   0.667   1.879
 6480SOL    HW226239   5.115   0.643   1.821
 6480SOL    HW326240   5.253   0.704   1.821
 6480SOL    MW426241   5.186   0.669   1.864
 6481SOL     OW26242   4.321   1.399   2.559
 6481SOL    HW226243   4.386   1.332   2.580
 6481SOL    HW326244   4.373   1.476   2.536
 6481SOL    MW426245   4.336   1.401   2.558
 6482SOL     OW26246   4.582   0.564   2.689
 6482SOL    HW226247   4.522   0.582   2.761
 6482SOL    HW326248   4.616   0.476   2.708
 6482SOL    MW426249   4.578   0.554   2.702
 6483SOL     OW26250   5.523   0.063   3.358
 6483SOL    HW226251   5.444   0.109   3.386
 6483SOL    HW326252   5.558   0.117   3.287
 6483SOL    MW426253   5.517   0.076   3.352
 6484SOL     OW26254   4.807   1.147   2.708
 6484SOL    HW226255   4.899   1.128   2.726
 6484SOL    HW326256   4.780   1.077   2.648
 6484SOL    MW426257   4.815   1.135   2.702
 6485SOL     OW26258   4.600   0.967   2.063
 6485SOL    HW226259   4.586   0.879   2.028
 6485SOL    HW326260   4.551   1.024   2.004
 6485SOL    MW426261   4.592   0.962   2.051
 6486SOL     OW26262   5.081   1.385   2.804
 6486SOL    HW226263   5.054   1.469   2.769
 6486SOL    HW326264   5.041   1.380   2.891
 6486SOL    MW426265   5.074   1.394   2.810
 6487SOL     OW26266   5.000   1.333   3.072
 6487SOL    HW226267   5.011   1.300   3.161
 6487SOL    HW326268   4.919   1.292   3.041
 6487SOL    MW426269   4.990   1.325   3.078
 6488SOL     OW26270   4.013   0.691   2.842
 6488SOL    HW226271   3.963   0.690   2.923
 6488SOL    HW326272   4.033   0.783   2.826
 6488SOL    MW426273   4.009   0.703   2.850
 6489SOL     OW26274   5.080   1.455   3.604
 6489SOL    HW226275   5.080   1.549   3.620
 6489SOL    HW326276   5.125   1.445   3.520
 6489SOL    MW426277   5.086   1.465   3.595
 6490SOL     OW26278   5.319   0.173   2.165
 6490SOL    HW226279   5.312   0.177   2.260
 6490SOL    HW326280   5.331   0.264   2.138
 6490SOL    MW426281   5.320   0.186   2.173
 6491SOL     OW26282   4.608   0.736   2.279
 6491SOL    HW226283   4.588   0.722   2.186
 6491SOL    HW326284   4.701   0.715   2.286
 6491SOL    MW426285   4.618   0.731   2.268
 6492SOL     OW26286   3.935   0.359   3.583
 6492SOL    HW226287   3.892   0.418   3.520
 6492SOL    HW326288   4.003   0.414   3.623
 6492SOL    MW426289   3.939   0.374   3.580
 6493SOL     OW26290   5.047   0.979   3.128
 6493SOL    HW226291   5.110   0.976   3.201
 6493SOL    HW326292   4.963   0.997   3.170
 6493SOL    MW426293   5.043   0.981   3.143
 6494SOL     OW26294   4.591   1.694   2.317
 6494SOL    HW226295   4.649   1.765   2.344
 6494SOL    HW326296   4.614   1.622   2.375
 6494SOL    MW426297   4.602   1.694   2.328
 6495SOL     OW26298   5.386   0.156   2.907
 6495SOL    HW226299   5.431   0.074   2.926
 6495SOL    HW326300   5.406   0.212   2.983
 6495SOL    MW426301   5.396   0.152   2.919
 6496SOL     OW26302   3.834  -0.001   3.006
 6496SOL    HW226303   3.825   0.000   2.911
 6496SOL    HW326304   3.928   0.011   3.021
 6496SOL    MW426305   3.846   0.002   2.997
 6497SOL     OW26306   5.471   1.192   2.626
 6497SOL    HW226307   5.450   1.138   2.549
 6497SOL    HW326308   5.567   1.190   2.630
 6497SOL    MW426309   5.480   1.185   2.615
 6498SOL     OW26310   4.163   1.337   3.369
 6498SOL    HW226311   4.084   1.287   3.392
 6498SOL    HW326312   4.233   1.296   3.419
 6498SOL    MW426313   4.161   1.325   3.379
 6499SOL     OW26314   4.047   0.126   2.052
 6499SOL    HW226315   3.976   0.181   2.020
 6499SOL    HW326316   4.089   0.092   1.973
 6499SOL    MW426317   4.043   0.128   2.038
 6500SOL     OW26318   5.171   0.623   2.888
 6500SOL    HW226319   5.094   0.669   2.854
 6500SOL    HW326320   5.228   0.692   2.922
 6500SOL    MW426321   5.168   0.638   2.888
 6501SOL     OW26322   3.803   0.225   1.901
 6501SOL    HW226323   3.770   0.304   1.945
 6501SOL    HW326324   3.858   0.258   1.830
 6501SOL    MW426325   3.806   0.239   1.898
 6502SOL     OW26326   3.837   1.482   2.090
 6502SOL    HW226327   3.854   1.566   2.132
 6502SOL    HW326328   3.872   1.491   2.002
 6502SOL    MW426329   3.842   1.495   2.084
 6503SOL     OW26330   5.109   1.571   2.307
 6503SOL    HW226331   5.172   1.561   2.236
 6503SOL    HW326332   5.026   1.591   2.262
 6503SOL    MW426333   5.106   1.572   2.292
 6504SOL     OW26334   5.472   0.839   3.993
 6504SOL    HW226335   5.513   0.781   4.058
 6504SOL    HW326336   5.379   0.831   4.010
 6504SOL    MW426337   5.466   0.831   4.003
 6505SOL     OW26338   5.338   0.771   4.988
 6505SOL    HW226339   5.293   0.838   5.039
 6505SOL    HW326340   5.426   0.807   4.974
 6505SOL    MW426341   5.344   0.784   4.992
 6506SOL     OW26342   4.266   1.022   4.222
 6506SOL    HW226343   4.356   0.997   4.206
 6506SOL    HW326344   4.262   1.115   4.199
 6506SOL    MW426345   4.278   1.031   4.217
 6507SOL     OW26346   5.382   1.725   4.364
 6507SOL    HW226347   5.394   1.671   4.442
 6507SOL    HW326348   5.419   1.673   4.293
 6507SOL    MW426349   5.388   1.710   4.365
 6508SOL     OW26350   4.761   1.610   5.365
 6508SOL    HW226351   4.802   1.646   5.286
 6508SOL    HW326352   4.796   1.521   5.372
 6508SOL    MW426353   4.772   1.603   5.356
 6509SOL     OW26354   5.318   1.165   4.969
 6509SOL    HW226355   5.239   1.130   4.927
 6509SOL    HW326356   5.345   1.237   4.913
 6509SOL    MW426357   5.311   1.170   4.956
 6510SOL     OW26358   4.550   0.478   4.235
 6510SOL    HW226359   4.525   0.566   4.263
 6510SOL    HW326360   4.547   0.481   4.139
 6510SOL    MW426361   4.546   0.490   4.227
 6511SOL     OW26362   3.992   0.506   4.163
 6511SOL    HW226363   4.024   0.594   4.145
 6511SOL    HW326364   3.980   0.504   4.258
 6511SOL    MW426365   3.995   0.518   4.175
 6512SOL     OW26366   4.070   0.919   5.064
 6512SOL    HW226367   4.133   0.866   5.015
 6512SOL    HW326368   4.051   0.993   5.007
 6512SOL    MW426369   4.076   0.921   5.051
 6513SOL     OW26370   4.391   0.261   4.250
 6513SOL    HW226371   4.449   0.337   4.252
 6513SOL    HW326372   4.326   0.282   4.183
 6513SOL    MW426373   4.390   0.273   4.241
 6514SOL     OW26374   4.478   1.188   4.425
 6514SOL    HW226375   4.558   1.191   4.477
 6514SOL    HW326376   4.506   1.155   4.339
 6514SOL    MW426377   4.492   1.184   4.420
 6515SOL     OW26378   4.503   1.529   5.328
 6515SOL    HW226379   4.587   1.555   5.367
 6515SOL    HW326380   4.527   1.473   5.254
 6515SOL    MW426381   4.517   1.525   5.323
 6516SOL     OW26382   4.255   0.692   4.416
 6516SOL    HW226383   4.240   0.612   4.467
 6516SOL    HW326384   4.337   0.727   4.450
 6516SOL    MW426385   4.263   0.684   4.428
 6517SOL     OW26386   4.592   1.378   5.101
 6517SOL    HW226387   4.556   1.444   5.041
 6517SOL    HW326388   4.520   1.316   5.114
 6517SOL    MW426389   4.578   1.378   5.095
 6518SOL     OW26390   4.397   0.518   4.793
 6518SOL    HW226391   4.303   0.514   4.811
 6518SOL    HW326392   4.427   0.427   4.802
 6518SOL    MW426393   4.388   0.506   4.796
 6519SOL     OW26394   4.143   0.932   4.697
 6519SOL    HW226395   4.098   0.939   4.613
 6519SOL    HW326396   4.123   1.015   4.741
 6519SOL    MW426397   4.135   0.944   4.691
 6520SOL     OW26398   3.840   1.778   4.572
 6520SOL    HW226399   3.929   1.770   4.607
 6520SOL    HW326400   3.804   1.690   4.577
 6520SOL    MW426401   3.847   1.765   4.577
 6521SOL     OW26402   5.105   1.170   3.941
 6521SOL    HW226403   5.023   1.206   3.907
 6521SOL    HW326404   5.173   1.213   3.890
 6521SOL    MW426405   5.103   1.180   3.929
 6522SOL     OW26406   4.104   1.305   4.607
 6522SOL    HW226407   4.080   1.358   4.683
 6522SOL    HW326408   4.160   1.363   4.555
 6522SOL    MW426409   4.108   1.320   4.610
 6523SOL     OW26410   4.666   0.949   4.417
 6523SOL    HW226411   4.580   0.936   4.457
 6523SOL    HW326412   4.719   0.876   4.449
 6523SOL    MW426413   4.662   0.938   4.426
 6524SOL     OW26414   4.074   1.601   5.202
 6524SOL    HW226415   3.982   1.577   5.187
 6524SOL    HW326416   4.118   1.518   5.219
 6524SOL    MW426417   4.068   1.586   5.201
 6525SOL     OW26418   4.657   1.311   4.134
 6525SOL    HW226419   4.634   1.373   4.202
 6525SOL    HW326420   4.614   1.229   4.160
 6525SOL    MW426421   4.649   1.307   4.145
 6526SOL     OW26422   5.530   0.312   4.590
 6526SOL    HW226423   5.467   0.292   4.659
 6526SOL    HW326424   5.520   0.241   4.527
 6526SOL    MW426425   5.520   0.299   4.591
 6527SOL     OW26426   4.154   0.284   4.102
 6527SOL    HW226427   4.128   0.246   4.018
 6527SOL    HW326428   4.091   0.354   4.118
 6527SOL    MW426429   4.143   0.287   4.093
 6528SOL     OW26430   3.989   1.245   4.139
 6528SOL    HW226431   3.937   1.313   4.095
 6528SOL    HW326432   3.986   1.171   4.079
 6528SOL    MW426433   3.981   1.244   4.126
 6529SOL     OW26434   4.651   1.708   3.917
 6529SOL    HW226435   4.606   1.724   4.000
 6529SOL    HW326436   4.582   1.673   3.859
 6529SOL    MW426437   4.637   1.705   3.919
 6530SOL     OW26438   5.586   0.481   3.892
 6530SOL    HW226439   5.495   0.483   3.920
 6530SOL    HW326440   5.631   0.543   3.950
 6530SOL    MW426441   5.579   0.489   3.902
 6531SOL     OW26442   5.331   1.084   4.242
 6531SOL    HW226443   5.241   1.084   4.277
 6531SOL    HW326444   5.324   1.130   4.159
 6531SOL    MW426445   5.318   1.090   4.236
 6532SOL     OW26446   5.131   0.719   5.314
 6532SOL    HW226447   5.200   0.657   5.291
 6532SOL    HW326448   5.056   0.693   5.261
 6532SOL    MW426449   5.131   0.706   5.305
 6533SOL     OW26450   3.872   1.599   4.866
 6533SOL    HW226451   3.855   1.545   4.943
 6533SOL    HW326452   3.860   1.689   4.896
 6533SOL    MW426453   3.869   1.603   4.880
 6534SOL     OW26454   4.867   1.106   5.306
 6534SOL    HW226455   4.852   1.199   5.291
 6534SOL    HW326456   4.962   1.096   5.306
 6534SOL    MW426457   4.876   1.116   5.303
 6535SOL     OW26458   4.663   0.530   5.507
 6535SOL    HW226459   4.753   0.531   5.474
 6535SOL    HW326460   4.622   0.455   5.465
 6535SOL    MW426461   4.669   0.520   5.498
 6536SOL     OW26462   5.238   1.062   4.634
 6536SOL    HW226463   5.241   0.996   4.565
 6536SOL    HW326464   5.323   1.105   4.630
 6536SOL    MW426465   5.250   1.058   4.625
 6537SOL     OW26466   4.858   0.665   4.203
 6537SOL    HW226467   4.884   0.689   4.114
 6537SOL    HW326468   4.840   0.572   4.199
 6537SOL    MW426469   4.860   0.657   4.190
 6538SOL     OW26470   5.523   1.285   4.054
 6538SOL    HW226471   5.479   1.326   4.129
 6538SOL    HW326472   5.580   1.353   4.019
 6538SOL    MW426473   5.525   1.299   4.059
 6539SOL     OW26474   4.443   0.334   5.457
 6539SOL    HW226475   4.453   0.260   5.397
 6539SOL    HW326476   4.479   0.303   5.540
 6539SOL    MW426477   4.449   0.320   5.459
 6540SOL     OW26478   4.179   1.701   4.372
 6540SOL    HW226479   4.211   1.789   4.350
 6540SOL    HW326480   4.132   1.673   4.294
 6540SOL    MW426481   4.178   1.709   4.359
 6541SOL     OW26482   5.563   0.063   4.421
 6541SOL    HW226483   5.617   0.014   4.483
 6541SOL    HW326484   5.506  -0.003   4.382
 6541SOL    MW426485   5.563   0.047   4.423
 6542SOL     OW26486   3.895   1.761   3.949
 6542SOL    HW226487   3.924   1.851   3.941
 6542SOL    HW326488   3.845   1.744   3.870
 6542SOL    MW426489   3.893   1.769   3.938
 6543SOL     OW26490   4.682   0.016   4.834
 6543SOL    HW226491   4.641   0.094   4.796
 6543SOL    HW326492   4.776   0.034   4.829
 6543SOL    MW426493   4.688   0.028   4.829
 6544SOL     OW26494   5.299   1.569   3.920
 6544SOL    HW226495   5.347   1.638   3.966
 6544SOL    HW326496   5.220   1.613   3.889
 6544SOL    MW426497   5.294   1.583   3.923
 6545SOL     OW26498   4.697   0.694   3.864
 6545SOL    HW226499   4.699   0.641   3.785
 6545SOL    HW326500   4.785   0.731   3.870
 6545SOL    MW426501   4.709   0.693   3.853
 6546SOL     OW26502   5.311   0.620   4.200
 6546SOL    HW226503   5.350   0.620   4.287
 6546SOL    HW326504   5.252   0.696   4.200
 6546SOL    MW426505   5.308   0.631   4.211
 6547SOL     OW26506   4.628   0.987   5.329
 6547SOL    HW226507   4.605   0.967   5.419
 6547SOL    HW326508   4.713   1.031   5.334
 6547SOL    MW426509   4.635   0.990   5.341
 6548SOL     OW26510   4.708   0.124   5.089
 6548SOL    HW226511   4.714   0.086   5.002
 6548SOL    HW326512   4.697   0.218   5.074
 6548SOL    MW426513   4.709   0.132   5.077
 6549SOL     OW26514   4.797   0.613   4.923
 6549SOL    HW226515   4.872   0.642   4.870
 6549SOL    HW326516   4.729   0.678   4.907
 6549SOL    MW426517   4.798   0.625   4.913
 6550SOL     OW26518   5.347   0.581   5.200
 6550SOL    HW226519   5.328   0.490   5.179
 6550SOL    HW326520   5.325   0.630   5.121
 6550SOL    MW426521   5.342   0.574   5.187
 6551SOL     OW26522   5.489   1.675   5.104
 6551SOL    HW226523   5.417   1.637   5.155
 6551SOL    HW326524   5.506   1.760   5.145
 6551SOL    MW426525   5.483   1.680   5.116
 6552SOL     OW26526   4.794   0.319   5.306
 6552SOL    HW226527   4.760   0.358   5.225
 6552SOL    HW326528   4.772   0.227   5.299
 6552SOL    MW426529   4.787   0.312   5.296
 6553SOL     OW26530   5.203   1.133   5.382
 6553SOL    HW226531   5.285   1.174   5.412
 6553SOL    HW326532   5.166   1.095   5.462
 6553SOL    MW426533   5.209   1.134   5.397
 6554SOL     OW26534   5.498   0.506   4.366
 6554SOL    HW226535   5.587   0.475   4.383
 6554SOL    HW326536   5.441   0.446   4.414
 6554SOL    MW426537   5.501   0.494   4.375
 6555SOL     OW26538   3.924   0.220   4.395
 6555SOL    HW226539   3.915   0.160   4.321
 6555SOL    HW326540   3.857   0.191   4.458
 6555SOL    MW426541   3.914   0.207   4.393
 6556SOL     OW26542   4.867   1.313   3.956
 6556SOL    HW226543   4.817   1.315   4.038
 6556SOL    HW326544   4.801   1.331   3.888
 6556SOL    MW426545   4.853   1.315   3.958
 6557SOL     OW26546   3.871   0.393   4.758
 6557SOL    HW226547   3.843   0.484   4.767
 6557SOL    HW326548   3.808   0.354   4.697
 6557SOL    MW426549   3.858   0.399   4.752
 6558SOL     OW26550   4.330   1.731   4.064
 6558SOL    HW226551   4.251   1.689   4.097
 6558SOL    HW326552   4.396   1.714   4.131
 6558SOL    MW426553   4.329   1.723   4.077
 6559SOL     OW26554   5.458   1.251   5.461
 6559SOL    HW226555   5.508   1.177   5.493
 6559SOL    HW326556   5.404   1.278   5.536
 6559SOL    MW426557   5.458   1.245   5.474
 6560SOL     OW26558   4.466   1.146   3.771
 6560SOL    HW226559   4.388   1.092   3.758
 6560SOL    HW326560   4.437   1.219   3.824
 6560SOL    MW426561   4.452   1.148   3.776
 6561SOL     OW26562   5.592   0.886   4.963
 6561SOL    HW226563   5.608   0.924   4.876
 6561SOL    HW326564   5.626   0.952   5.024
 6561SOL    MW426565   5.599   0.899   4.959
 6562SOL     OW26566   5.384   1.595   4.632
 6562SOL    HW226567   5.413   1.662   4.693
 6562SOL    HW326568   5.365   1.519   4.687
 6562SOL    MW426569   5.386   1.595   4.647
 6563SOL     OW26570   5.047   1.662   3.839
 6563SOL    HW226571   4.973   1.625   3.889
 6563SOL    HW326572   5.055   1.752   3.872
 6563SOL    MW426573   5.038   1.669   3.851
 6564SOL     OW26574   3.855   0.668   4.928
 6564SOL    HW226575   3.917   0.698   4.994
 6564SOL    HW326576   3.789   0.737   4.922
 6564SOL    MW426577   3.854   0.681   4.935
 6565SOL     OW26578   5.271   1.336   3.781
 6565SOL    HW226579   5.218   1.385   3.717
 6565SOL    HW326580   5.302   1.402   3.842
 6565SOL    MW426581   5.269   1.350   3.779
 6566SOL     OW26582   4.496   0.225   3.836
 6566SOL    HW226583   4.444   0.145   3.824
 6566SOL    HW326584   4.583   0.202   3.804
 6566SOL    MW426585   4.499   0.211   3.830
 6567SOL     OW26586   3.950   1.777   5.380
 6567SOL    HW226587   3.924   1.845   5.318
 6567SOL    HW326588   3.998   1.714   5.328
 6567SOL    MW426589   3.952   1.777   5.366
 6568SOL     OW26590   4.002   1.096   4.887
 6568SOL    HW226591   4.055   1.171   4.912
 6568SOL    HW326592   3.921   1.134   4.853
 6568SOL    MW426593   3.998   1.111   4.887
 6569SOL     OW26594   4.542   1.000   4.875
 6569SOL    HW226595   4.570   0.909   4.887
 6569SOL    HW326596   4.471   0.994   4.811
 6569SOL    MW426597   4.535   0.988   4.870
 6570SOL     OW26598   3.857   0.865   4.293
 6570SOL    HW226599   3.948   0.880   4.320
 6570SOL    HW326600   3.860   0.786   4.239
 6570SOL    MW426601   3.869   0.857   4.291
 6571SOL     OW26602   4.093   0.573   5.547
 6571SOL    HW226603   4.040   0.653   5.554
 6571SOL    HW326604   4.163   0.585   5.612
 6571SOL    MW426605   4.095   0.586   5.555
 6572SOL     OW26606   4.479   0.123   5.254
 6572SOL    HW226607   4.456   0.031   5.256
 6572SOL    HW326608   4.565   0.125   5.211
 6572SOL    MW426609   4.486   0.113   5.250
 6573SOL     OW26610   4.163   0.647   5.293
 6573SOL    HW226611   4.243   0.697   5.279
 6573SOL    HW326612   4.154   0.641   5.388
 6573SOL    MW426613   4.172   0.653   5.303
 6574SOL     OW26614   4.484   1.797   4.667
 6574SOL    HW226615   4.573   1.812   4.697
 6574SOL    HW326616   4.479   1.844   4.583
 6574SOL    MW426617   4.494   1.805   4.660
 6575SOL     OW26618   5.140   0.172   5.564
 6575SOL    HW226619   5.196   0.099   5.590
 6575SOL    HW326620   5.110   0.210   5.646
 6575SOL    MW426621   5.144   0.167   5.577
 6576SOL     OW26622   3.865   1.477   4.332
 6576SOL    HW226623   3.837   1.516   4.414
 6576SOL    HW326624   3.885   1.386   4.354
 6576SOL    MW426625   3.863   1.469   4.345
 6577SOL     OW26626   4.698   1.520   4.367
 6577SOL    HW226627   4.781   1.474   4.351
 6577SOL    HW326628   4.688   1.519   4.463
 6577SOL    MW426629   4.708   1.513   4.377
 6578SOL     OW26630   5.530   0.665   4.681
 6578SOL    HW226631   5.619   0.695   4.663
 6578SOL    HW326632   5.510   0.605   4.610
 6578SOL    MW426633   5.539   0.662   4.670
 6579SOL     OW26634   5.381   0.844   5.561
 6579SOL    HW226635   5.436   0.768   5.542
 6579SOL    HW326636   5.383   0.852   5.656
 6579SOL    MW426637   5.389   0.835   5.569
 6580SOL     OW26638   4.431   1.577   3.772
 6580SOL    HW226639   4.371   1.646   3.742
 6580SOL    HW326640   4.376   1.519   3.825
 6580SOL    MW426641   4.415   1.579   3.774
 6581SOL     OW26642   4.869   0.222   3.995
 6581SOL    HW226643   4.802   0.198   3.932
 6581SOL    HW326644   4.934   0.271   3.944
 6581SOL    MW426645   4.869   0.224   3.980
 6582SOL     OW26646   4.676   0.406   5.080
 6582SOL    HW226647   4.595   0.447   5.108
 6582SOL    HW326648   4.723   0.474   5.032
 6582SOL    MW426649   4.671   0.421   5.078
 6583SOL     OW26650   4.936   0.744   4.703
 6583SOL    HW226651   4.949   0.838   4.713
 6583SOL    HW326652   4.897   0.734   4.617
 6583SOL    MW426653   4.932   0.755   4.693
 6584SOL     OW26654   4.388   0.939   4.507
 6584SOL    HW226655   4.299   0.930   4.540
 6584SOL    HW326656   4.392   1.029   4.475
 6584SOL    MW426657   4.377   0.950   4.507
 6585SOL     OW26658   5.187   0.522   4.502
 6585SOL    HW226659   5.132   0.443   4.501
 6585SOL    HW326660   5.169   0.563   4.586
 6585SOL    MW426661   5.177   0.517   4.511
 6586SOL     OW26662   4.158   0.209   5.319
 6586SOL    HW226663   4.079   0.227   5.371
 6586SOL    HW326664   4.153   0.271   5.246
 6586SOL    MW426665   4.148   0.219   5.316
 6587SOL     OW26666   4.806   0.726   4.459
 6587SOL    HW226667   4.743   0.658   4.483
 6587SOL    HW326668   4.826   0.707   4.367
 6587SOL    MW426669   4.800   0.713   4.451
 6588SOL     OW26670   4.062   1.621   4.161
 6588SOL    HW226671   4.023   1.668   4.087
 6588SOL    HW326672   3.996   1.556   4.186
 6588SOL    MW426673   4.049   1.619   4.155
 6589SOL     OW26674   4.554   1.030   4.185
 6589SOL    HW226675   4.556   1.004   4.092
 6589SOL    HW326676   4.612   0.967   4.228
 6589SOL    MW426677   4.562   1.019   4.179
 6590SOL     OW26678   5.107   1.590   4.957
 6590SOL    HW226679   5.032   1.636   4.995
 6590SOL    HW326680   5.089   1.497   4.974
 6590SOL    MW426681   5.096   1.584   4.965
 6591SOL     OW26682   5.111   1.798   4.387
 6591SOL    HW226683   5.054   1.751   4.326
 6591SOL    HW326684   5.197   1.759   4.374
 6591SOL    MW426685   5.114   1.789   4.377
 6592SOL     OW26686   5.064   0.274   4.518
 6592SOL    HW226687   5.092   0.206   4.579
 6592SOL    HW326688   4.978   0.245   4.488
 6592SOL    MW426689   5.057   0.261   4.522
 6593SOL     OW26690   3.869   1.208   4.452
 6593SOL    HW226691   3.933   1.240   4.515
 6593SOL    HW326692   3.918   1.144   4.400
 6593SOL    MW426693   3.884   1.204   4.453
 6594SOL     OW26694   4.369   1.284   5.434
 6594SOL    HW226695   4.417   1.367   5.421
 6594SOL    HW326696   4.426   1.232   5.490
 6594SOL    MW426697   4.383   1.288   5.440
 6595SOL     OW26698   3.945   1.526   5.574
 6595SOL    HW226699   4.001   1.450   5.589
 6595SOL    HW326700   3.894   1.504   5.496
 6595SOL    MW426701   3.945   1.513   5.565
 6596SOL     OW26702   5.044   0.378   3.853
 6596SOL    HW226703   5.017   0.444   3.789
 6596SOL    HW326704   5.114   0.421   3.903
 6596SOL    MW426705   5.049   0.391   3.850
 6597SOL     OW26706   4.712   0.083   3.790
 6597SOL    HW226707   4.768   0.075   3.712
 6597SOL    HW326708   4.689  -0.007   3.812
 6597SOL    MW426709   4.717   0.070   3.783
 6598SOL     OW26710   5.217   0.934   3.995
 6598SOL    HW226711   5.184   1.023   3.985
 6598SOL    HW326712   5.182   0.905   4.080
 6598SOL    MW426713   5.207   0.943   4.006
 6599SOL     OW26714   4.830   1.363   5.183
 6599SOL    HW226715   4.741   1.369   5.151
 6599SOL    HW326716   4.874   1.442   5.151
 6599SOL    MW426717   4.825   1.373   5.175
 6600SOL     OW26718   4.123   0.031   5.525
 6600SOL    HW226719   4.051  -0.004   5.473
 6600SOL    HW326720   4.181   0.072   5.460
 6600SOL    MW426721   4.121   0.032   5.510
 6601SOL     OW26722   4.147   1.521   4.824
 6601SOL    HW226723   4.192   1.583   4.881
 6601SOL    HW326724   4.054   1.540   4.837
 6601SOL    MW426725   4.140   1.531   4.831
 6602SOL     OW26726   5.587   1.050   5.178
 6602SOL    HW226727   5.502   1.063   5.137
 6602SOL    HW326728   5.567   1.014   5.265
 6602SOL    MW426729   5.574   1.046   5.183
 6603SOL     OW26730   4.569   1.589   4.932
 6603SOL    HW226731   4.593   1.578   4.841
 6603SOL    HW326732   4.492   1.646   4.930
 6603SOL    MW426733   4.561   1.594   4.921
 6604SOL     OW26734   4.211   0.972   3.787
 6604SOL    HW226735   4.134   0.985   3.843
 6604SOL    HW326736   4.175   0.936   3.706
 6604SOL    MW426737   4.197   0.968   3.784
 6605SOL     OW26738   4.864   0.945   4.030
 6605SOL    HW226739   4.774   0.966   4.005
 6605SOL    HW326740   4.891   1.018   4.086
 6605SOL    MW426741   4.856   0.957   4.033
 6606SOL     OW26742   4.364   1.294   4.722
 6606SOL    HW226743   4.357   1.273   4.816
 6606SOL    HW326744   4.282   1.262   4.685
 6606SOL    MW426745   4.352   1.288   4.729
 6607SOL     OW26746   5.228   0.304   5.124
 6607SOL    HW226747   5.175   0.306   5.204
 6607SOL    HW326748   5.213   0.217   5.087
 6607SOL    MW426749   5.220   0.294   5.129
 6608SOL     OW26750   5.564   0.228   4.997
 6608SOL    HW226751   5.545   0.295   4.932
 6608SOL    HW326752   5.621   0.166   4.952
 6608SOL    MW426753   5.568   0.229   4.983
 6609SOL     OW26754   3.810   1.386   5.385
 6609SOL    HW226755   3.854   1.319   5.331
 6609SOL    HW326756   3.725   1.348   5.405
 6609SOL    MW426757   3.805   1.372   5.381
 6610SOL     OW26758   4.493   0.061   4.437
 6610SOL    HW226759   4.422   0.122   4.419
 6610SOL    HW326760   4.544   0.058   4.356
 6610SOL    MW426761   4.489   0.067   4.424
 6611SOL     OW26762   4.251   1.301   4.186
 6611SOL    HW226763   4.244   1.333   4.276
 6611SOL    HW326764   4.161   1.285   4.158
 6611SOL    MW426765   4.239   1.303   4.193
 6612SOL     OW26766   4.846   1.694   5.095
 6612SOL    HW226767   4.766   1.679   5.045
 6612SOL    HW326768   4.853   1.789   5.102
 6612SOL    MW426769   4.837   1.705   5.089
 6613SOL     OW26770   4.960   1.659   4.585
 6613SOL    HW226771   5.007   1.732   4.544
 6613SOL    HW326772   4.881   1.698   4.621
 6613SOL    MW426773   4.955   1.674   4.584
 6614SOL     OW26774   5.368   1.754   4.860
 6614SOL    HW226775   5.411   1.724   4.940
 6614SOL    HW326776   5.287   1.702   4.857
 6614SOL    MW426777   5.363   1.743   4.870
 6615SOL     OW26778   4.453   0.718   5.567
 6615SOL    HW226779   4.523   0.660   5.539
 6615SOL    HW326780   4.396   0.663   5.622
 6615SOL    MW426781   4.455   0.705   5.571
 6616SOL     OW26782   5.240   0.930   5.200
 6616SOL    HW226783   5.245   0.983   5.280
 6616SOL    HW326784   5.202   0.847   5.228
 6616SOL    MW426785   5.236   0.925   5.215
 6617SOL     OW26786   4.880   0.065   5.446
 6617SOL    HW226787   4.875  -0.028   5.427
 6617SOL    HW326788   4.963   0.076   5.492
 6617SOL    MW426789   4.888   0.054   5.450
 6618SOL     OW26790   4.254   0.585   3.900
 6618SOL    HW226791   4.220   0.641   3.970
 6618SOL    HW326792   4.325   0.535   3.940
 6618SOL    MW426793   4.260   0.586   3.914
 6619SOL     OW26794   5.350   1.336   4.722
 6619SOL    HW226795   5.385   1.318   4.635
 6619SOL    HW326796   5.255   1.337   4.709
 6619SOL    MW426797   5.342   1.333   4.709
 6620SOL     OW26798   4.779   0.984   5.091
 6620SOL    HW226799   4.822   1.019   5.169
 6620SOL    HW326800   4.762   1.061   5.037
 6620SOL    MW426801   4.782   0.999   5.094
 6621SOL     OW26802   5.310   0.471   3.964
 6621SOL    HW226803   5.302   0.542   3.901
 6621SOL    HW326804   5.328   0.515   4.047
 6621SOL    MW426805   5.311   0.485   3.966
 6622SOL     OW26806   4.170   0.126   4.393
 6622SOL    HW226807   4.220   0.169   4.324
 6622SOL    HW326808   4.085   0.170   4.393
 6622SOL    MW426809   4.167   0.139   4.384
 6623SOL     OW26810   3.929   1.188   5.253
 6623SOL    HW226811   3.957   1.141   5.331
 6623SOL    HW326812   3.850   1.143   5.224
 6623SOL    MW426813   3.922   1.177   5.259
 6624SOL     OW26814   4.437   0.515   5.220
 6624SOL    HW226815   4.409   0.603   5.244
 6624SOL    HW326816   4.406   0.459   5.291
 6624SOL    MW426817   4.429   0.518   5.232
 6625SOL     OW26818   4.979   0.733   3.939
 6625SOL    HW226819   5.026   0.751   3.858
 6625SOL    HW326820   4.945   0.817   3.967
 6625SOL    MW426821   4.981   0.747   3.932
 6626SOL     OW26822   4.092   0.911   4.433
 6626SOL    HW226823   4.150   0.967   4.381
 6626SOL    HW326824   4.136   0.826   4.435
 6626SOL    MW426825   4.105   0.908   4.426
 6627SOL     OW26826   5.232   0.263   4.270
 6627SOL    HW226827   5.154   0.213   4.295
 6627SOL    HW326828   5.203   0.354   4.270
 6627SOL    MW426829   5.218   0.267   4.273
 6628SOL     OW26830   4.818   0.225   4.429
 6628SOL    HW226831   4.838   0.300   4.373
 6628SOL    HW326832   4.798   0.264   4.514
 6628SOL    MW426833   4.819   0.241   4.433
 6629SOL     OW26834   4.714   1.475   3.761
 6629SOL    HW226835   4.741   1.553   3.713
 6629SOL    HW326836   4.621   1.490   3.780
 6629SOL    MW426837   4.705   1.488   3.757
 6630SOL     OW26838   5.578   0.998   5.448
 6630SOL    HW226839   5.491   0.978   5.484
 6630SOL    HW326840   5.632   0.924   5.473
 6630SOL    MW426841   5.573   0.987   5.456
 6631SOL     OW26842   3.799   1.511   4.605
 6631SOL    HW226843   3.831   1.515   4.696
 6631SOL    HW326844   3.704   1.519   4.613
 6631SOL    MW426845   3.791   1.514   4.618
 6632SOL     OW26846   3.754   0.637   4.152
 6632SOL    HW226847   3.694   0.609   4.222
 6632SOL    HW326848   3.828   0.577   4.158
 6632SOL    MW426849   3.756   0.626   4.161
 6633SOL     OW26850   5.322   1.849   5.586
 6633SOL    HW226851   5.367   1.773   5.551
 6633SOL    HW326852   5.360   1.862   5.673
 6633SOL    MW426853   5.332   1.842   5.592
 6634SOL     OW26854   4.922   1.368   4.312
 6634SOL    HW226855   4.945   1.319   4.390
 6634SOL    HW326856   5.003   1.410   4.284
 6634SOL    MW426857   4.935   1.368   4.319
 6635SOL     OW26858   4.180   0.376   5.041
 6635SOL    HW226859   4.213   0.457   5.081
 6635SOL    HW326860   4.153   0.402   4.953
 6635SOL    MW426861   4.179   0.390   5.035
 6636SOL     OW26862   4.134   0.343   4.777
 6636SOL    HW226863   4.164   0.257   4.748
 6636SOL    HW326864   4.039   0.336   4.780
 6636SOL    MW426865   4.126   0.332   4.775
 6637SOL     OW26866   4.963   0.552   5.468
 6637SOL    HW226867   5.015   0.487   5.421
 6637SOL    HW326868   4.921   0.603   5.398
 6637SOL    MW426869   4.964   0.549   5.451
 6638SOL     OW26870   5.062   0.347   5.329
 6638SOL    HW226871   4.969   0.331   5.316
 6638SOL    HW326872   5.088   0.285   5.397
 6638SOL    MW426873   5.052   0.337   5.336
 6639SOL     OW26874   4.277   0.121   4.668
 6639SOL    HW226875   4.287   0.030   4.694
 6639SOL    HW326876   4.233   0.117   4.583
 6639SOL    MW426877   4.273   0.109   4.660
 6640SOL     OW26878   4.371   1.736   5.214
 6640SOL    HW226879   4.288   1.721   5.259
 6640SOL    HW326880   4.430   1.669   5.249
 6640SOL    MW426881   4.369   1.726   5.224
 6641SOL     OW26882   5.428   0.443   4.839
 6641SOL    HW226883   5.361   0.476   4.899
 6641SOL    HW326884   5.471   0.521   4.805
 6641SOL    MW426885   5.426   0.458   4.843
 6642SOL     OW26886   5.606   1.163   4.809
 6642SOL    HW226887   5.599   1.103   4.734
 6642SOL    HW326888   5.532   1.223   4.798
 6642SOL    MW426889   5.596   1.163   4.798
 6643SOL     OW26890   4.988   1.025   4.727
 6643SOL    HW226891   5.002   0.997   4.818
 6643SOL    HW326892   5.074   1.056   4.699
 6643SOL    MW426893   5.001   1.026   4.736
 6644SOL     OW26894   5.071   0.520   5.006
 6644SOL    HW226895   5.092   0.521   4.913
 6644SOL    HW326896   5.116   0.442   5.039
 6644SOL    MW426897   5.078   0.510   4.998
 6645SOL     OW26898   5.564   0.651   5.548
 6645SOL    HW226899   5.601   0.596   5.617
 6645SOL    HW326900   5.589   0.608   5.466
 6645SOL    MW426901   5.571   0.639   5.547
 6646SOL     OW26902   5.111   0.949   5.600
 6646SOL    HW226903   5.177   0.897   5.554
 6646SOL    HW326904   5.131   0.936   5.693
 6646SOL    MW426905   5.122   0.940   5.607
 6647SOL     OW26906   5.062   0.035   3.948
 6647SOL    HW226907   5.136   0.079   3.991
 6647SOL    HW326908   4.986   0.089   3.970
 6647SOL    MW426909   5.062   0.047   3.956
 6648SOL     OW26910   5.122   0.810   4.226
 6648SOL    HW226911   5.037   0.780   4.196
 6648SOL    HW326912   5.114   0.817   4.321
 6648SOL    MW426913   5.110   0.808   4.235
 6649SOL     OW26914   4.198   1.273   4.957
 6649SOL    HW226915   4.210   1.300   5.048
 6649SOL    HW326916   4.179   1.354   4.910
 6649SOL    MW426917   4.197   1.288   4.962
 6650SOL     OW26918   4.482   0.253   4.780
 6650SOL    HW226919   4.455   0.255   4.871
 6650SOL    HW326920   4.412   0.205   4.735
 6650SOL    MW426921   4.470   0.249   4.787
 6651SOL     OW26922   4.336   1.745   4.942
 6651SOL    HW226923   4.388   1.822   4.919
 6651SOL    HW326924   4.345   1.737   5.037
 6651SOL    MW426925   4.345   1.752   4.953
 6652SOL     OW26926   5.238   1.330   5.174
 6652SOL    HW226927   5.223   1.259   5.237
 6652SOL    HW326928   5.284   1.288   5.102
 6652SOL    MW426929   5.244   1.314   5.174
 6653SOL     OW26930   4.312   1.061   5.291
 6653SOL    HW226931   4.349   1.066   5.203
 6653SOL    HW326932   4.351   1.134   5.338
 6653SOL    MW426933   4.322   1.071   5.286
 6654SOL     OW26934   4.492   1.104   5.103
 6654SOL    HW226935   4.551   1.050   5.156
 6654SOL    HW326936   4.507   1.076   5.013
 6654SOL    MW426937   4.502   1.093   5.099
 6655SOL     OW26938   4.495   0.476   3.952
 6655SOL    HW226939   4.568   0.525   3.915
 6655SOL    HW326940   4.511   0.385   3.926
 6655SOL    MW426941   4.507   0.471   3.945
 6656SOL     OW26942   5.303   1.593   5.275
 6656SOL    HW226943   5.345   1.578   5.360
 6656SOL    HW326944   5.294   1.506   5.237
 6656SOL    MW426945   5.307   1.581   5.282
 6657SOL     OW26946   4.963   0.072   4.866
 6657SOL    HW226947   5.018   0.081   4.788
 6657SOL    HW326948   5.018   0.106   4.937
 6657SOL    MW426949   4.977   0.077   4.865
 6658SOL     OW26950   3.970   0.985   4.050
 6658SOL    HW226951   3.907   1.001   3.979
 6658SOL    HW326952   3.917   0.948   4.121
 6658SOL    MW426953   3.955   0.982   4.050
 6659SOL     OW26954   4.326   1.339   3.909
 6659SOL    HW226955   4.341   1.315   4.001
 6659SOL    HW326956   4.234   1.317   3.893
 6659SOL    MW426957   4.316   1.332   3.919
 6660SOL     OW26958   4.865   1.570   4.061
 6660SOL    HW226959   4.873   1.488   4.012
 6660SOL    HW326960   4.784   1.609   4.028
 6660SOL    MW426961   4.855   1.565   4.051
 6661SOL     OW26962   4.124   1.728   4.630
 6661SOL    HW226963   4.128   1.639   4.665
 6661SOL    HW326964   4.150   1.719   4.539
 6661SOL    MW426965   4.127   1.716   4.622
 6662SOL     OW26966   4.741   1.206   4.873
 6662SOL    HW226967   4.673   1.140   4.889
 6662SOL    HW326968   4.759   1.200   4.780
 6662SOL    MW426969   4.734   1.197   4.864
 6663SOL     OW26970   3.830   1.481   5.124
 6663SOL    HW226971   3.820   1.439   5.210
 6663SOL    HW326972   3.751   1.534   5.114
 6663SOL    MW426973   3.819   1.482   5.135
 6664SOL     OW26974   4.734   0.345   4.694
 6664SOL    HW226975   4.664   0.297   4.739
 6664SOL    HW326976   4.766   0.408   4.758
 6664SOL    MW426977   4.729   0.347   4.708
 6665SOL     OW26978   4.385   0.781   5.314
 6665SOL    HW226979   4.378   0.876   5.302
 6665SOL    HW326980   4.394   0.770   5.409
 6665SOL    MW426981   4.386   0.793   5.324
 6666SOL     OW26982   4.106   1.296   5.572
 6666SOL    HW226983   4.178   1.298   5.509
 6666SOL    HW326984   4.076   1.205   5.571
 6666SOL    MW426985   4.111   1.285   5.564
 6667SOL     OW26986   5.190   0.059   5.039
 6667SOL    HW226987   5.261   0.005   5.003
 6667SOL    HW326988   5.189   0.038   5.132
 6667SOL    MW426989   5.199   0.050   5.047
 6668SOL     OW26990   5.390   1.589   5.523
 6668SOL    HW226991   5.363   1.586   5.614
 6668SOL    HW326992   5.486   1.593   5.526
 6668SOL    MW426993   5.400   1.589   5.535
 6669SOL     OW26994   4.201   0.451   4.507
 6669SOL    HW226995   4.272   0.399   4.470
 6669SOL    HW326996   4.187   0.416   4.594
 6669SOL    MW426997   4.209   0.440   4.514
 6670SOL     OW26998   3.756   1.786   5.579
 6670SOL    HW226999   3.806   1.764   5.501
 6670SOL    HW327000   3.764   1.881   5.587
 6670SOL    MW427001   3.764   1.795   5.570
 6671SOL     OW27002   4.517   1.544   4.583
 6671SOL    HW227003   4.445   1.481   4.596
 6671SOL    HW327004   4.478   1.629   4.601
 6671SOL    MW427005   4.501   1.547   4.586
 6672SOL     OW27006   4.837   0.392   4.231
 6672SOL    HW227007   4.859   0.329   4.163
 6672SOL    HW327008   4.742   0.384   4.242
 6672SOL    MW427009   4.827   0.383   4.223
 6673SOL     OW27010   3.922   0.082   4.163
 6673SOL    HW227011   3.993   0.103   4.102
 6673SOL    HW327012   3.876   0.010   4.121
 6673SOL    MW427013   3.926   0.076   4.149
 6674SOL     OW27014   3.753   0.549   5.306
 6674SOL    HW227015   3.817   0.615   5.281
 6674SOL    HW327016   3.672   0.576   5.263
 6674SOL    MW427017   3.751   0.561   5.298
 6675SOL     OW27018   5.491   1.456   4.263
 6675SOL    HW227019   5.461   1.389   4.324
 6675SOL    HW327020   5.585   1.462   4.277
 6675SOL    MW427021   5.499   1.448   4.273
 6676SOL     OW27022   5.047   1.133   4.193
 6676SOL    HW227023   5.019   1.219   4.226
 6676SOL    HW327024   5.075   1.149   4.103
 6676SOL    MW427025   5.047   1.147   4.185
 6677SOL     OW27026   4.709   0.053   4.246
 6677SOL    HW227027   4.746   0.112   4.311
 6677SOL    HW327028   4.686   0.109   4.172
 6677SOL    MW427029   4.710   0.068   4.245
 6678SOL     OW27030   5.562   0.935   4.668
 6678SOL    HW227031   5.553   0.967   4.579
 6678SOL    HW327032   5.515   0.851   4.668
 6678SOL    MW427033   5.555   0.928   4.658
 6679SOL     OW27034   3.938   0.775   5.247
 6679SOL    HW227035   3.959   0.844   5.185
 6679SOL    HW327036   4.018   0.722   5.252
 6679SOL    MW427037   3.951   0.776   5.241
 6680SOL     OW27038   5.474   0.866   4.369
 6680SOL    HW227039   5.568   0.855   4.357
 6680SOL    HW327040   5.450   0.938   4.310
 6680SOL    MW427041   5.484   0.874   4.360
 6681SOL     OW27042   3.923   0.790   5.514
 6681SOL    HW227043   3.849   0.734   5.540
 6681SOL    HW327044   3.918   0.793   5.419
 6681SOL    MW427045   3.912   0.783   5.504
 6682SOL     OW27046   4.089   0.077   4.964
 6682SOL    HW227047   4.132   0.161   4.984
 6682SOL    HW327048   4.162   0.015   4.957
 6682SOL    MW427049   4.104   0.080   4.965
 6683SOL     OW27050   4.130   0.744   4.142
 6683SOL    HW227051   4.130   0.839   4.127
 6683SOL    HW327052   4.207   0.728   4.196
 6683SOL    MW427053   4.140   0.755   4.147
 6684SOL     OW27054   4.906   0.603   5.206
 6684SOL    HW227055   4.942   0.576   5.122
 6684SOL    HW327056   4.819   0.637   5.185
 6684SOL    MW427057   4.900   0.604   5.193
 6685SOL     OW27058   3.889   0.475   4.431
 6685SOL    HW227059   3.951   0.482   4.504
 6685SOL    HW327060   3.889   0.382   4.408
 6685SOL    MW427061   3.897   0.464   4.438
 6686SOL     OW27062   5.436   1.815   3.963
 6686SOL    HW227063   5.503   1.848   3.903
 6686SOL    HW327064   5.393   1.894   3.997
 6686SOL    MW427065   5.438   1.830   3.959
 6687SOL     OW27066   4.571   0.736   4.915
 6687SOL    HW227067   4.529   0.654   4.891
 6687SOL    HW327068   4.572   0.735   5.011
 6687SOL    MW427069   4.564   0.725   4.924
 6688SOL     OW27070   5.242   1.869   5.314
 6688SOL    HW227071   5.245   1.775   5.297
 6688SOL    HW327072   5.265   1.877   5.406
 6688SOL    MW427073   5.245   1.857   5.324
 6689SOL     OW27074   4.375   0.206   5.020
 6689SOL    HW227075   4.306   0.269   5.041
 6689SOL    HW327076   4.402   0.170   5.105
 6689SOL    MW427077   4.369   0.209   5.033
 6690SOL     OW27078   3.758   1.047   3.889
 6690SOL    HW227079   3.727   1.112   3.952
 6690SOL    HW327080   3.707   0.969   3.908
 6690SOL    MW427081   3.748   1.044   3.899
 6691SOL     OW27082   5.170   0.059   4.637
 6691SOL    HW227083   5.258   0.068   4.674
 6691SOL    HW327084   5.180   0.000   4.563
 6691SOL    MW427085   5.184   0.053   4.631
 6692SOL     OW27086   5.202   0.798   4.481
 6692SOL    HW227087   5.282   0.813   4.430
 6692SOL    HW327088   5.195   0.703   4.487
 6692SOL    MW427089   5.211   0.787   4.476
 6693SOL     OW27090   4.342   1.847   3.831
 6693SOL    HW227091   4.247   1.847   3.823
 6693SOL    HW327092   4.358   1.793   3.909
 6693SOL    MW427093   4.332   1.841   3.840
 6694SOL     OW27094   4.652   0.724   5.178
 6694SOL    HW227095   4.721   0.791   5.175
 6694SOL    HW327096   4.585   0.762   5.234
 6694SOL    MW427097   4.653   0.737   5.185
 6695SOL     OW27098   4.070   1.024   5.426
 6695SOL    HW227099   4.024   0.940   5.428
 6695SOL    HW327100   4.127   1.018   5.350
 6695SOL    MW427101   4.072   1.012   5.418
 6696SOL     OW27102   5.187   0.667   3.747
 6696SOL    HW227103   5.115   0.643   3.689
 6696SOL    HW327104   5.253   0.704   3.689
 6696SOL    MW427105   5.186   0.669   3.732
 6697SOL     OW27106   4.321   1.399   4.427
 6697SOL    HW227107   4.386   1.332   4.448
 6697SOL    HW327108   4.373   1.476   4.404
 6697SOL    MW427109   4.336   1.401   4.426
 6698SOL     OW27110   4.582   0.564   4.557
 6698SOL    HW227111   4.522   0.582   4.629
 6698SOL    HW327112   4.616   0.476   4.576
 6698SOL    MW427113   4.578   0.554   4.570
 6699SOL     OW27114   5.523   0.063   5.226
 6699SOL    HW227115   5.444   0.109   5.254
 6699SOL    HW327116   5.558   0.117   5.155
 6699SOL    MW427117   5.517   0.076   5.220
 6700SOL     OW27118   4.807   1.147   4.576
 6700SOL    HW227119   4.899   1.128   4.594
 6700SOL    HW327120   4.780   1.077   4.516
 6700SOL    MW427121   4.815   1.135   4.570
 6701SOL     OW27122   4.600   0.967   3.931
 6701SOL    HW227123   4.586   0.879   3.896
 6701SOL    HW327124   4.551   1.024   3.872
 6701SOL    MW427125   4.592   0.962   3.919
 6702SOL     OW27126   5.081   1.385   4.672
 6702SOL    HW227127   5.054   1.469   4.637
 6702SOL    HW327128   5.041   1.380   4.759
 6702SOL    MW427129   5.074   1.394   4.678
 6703SOL     OW27130   5.000   1.333   4.940
 6703SOL    HW227131   5.011   1.300   5.029
 6703SOL    HW327132   4.919   1.292   4.909
 6703SOL    MW427133   4.990   1.325   4.946
 6704SOL     OW27134   4.013   0.691   4.710
 6704SOL    HW227135   3.963   0.690   4.791
 6704SOL    HW327136   4.033   0.783   4.694
 6704SOL    MW427137   4.009   0.703   4.718
 6705SOL     OW27138   5.080   1.455   5.472
 6705SOL    HW227139   5.080   1.549   5.488
 6705SOL    HW327140   5.125   1.445   5.388
 6705SOL    MW427141   5.086   1.465   5.463
 6706SOL     OW27142   5.319   0.173   4.033
 6706SOL    HW227143   5.312   0.177   4.128
 6706SOL    HW327144   5.331   0.264   4.006
 6706SOL    MW427145   5.320   0.186   4.041
 6707SOL     OW27146   4.608   0.736   4.147
 6707SOL    HW227147   4.588   0.722   4.054
 6707SOL    HW327148   4.701   0.715   4.154
 6707SOL    MW427149   4.618   0.731   4.136
 6708SOL     OW27150   3.935   0.359   5.451
 6708SOL    HW227151   3.892   0.418   5.388
 6708SOL    HW327152   4.003   0.414   5.491
 6708SOL    MW427153   3.939   0.374   5.448
 6709SOL     OW27154   5.047   0.979   4.996
 6709SOL    HW227155   5.110   0.976   5.069
 6709SOL    HW327156   4.963   0.997   5.038
 6709SOL    MW427157   5.043   0.981   5.011
 6710SOL     OW27158   4.591   1.694   4.185
 6710SOL    HW227159   4.649   1.765   4.212
 6710SOL    HW327160   4.614   1.622   4.243
 6710SOL    MW427161   4.602   1.694   4.196
 6711SOL     OW27162   5.386   0.156   4.775
 6711SOL    HW227163   5.431   0.074   4.794
 6711SOL    HW327164   5.406   0.212   4.851
 6711SOL    MW427165   5.396   0.152   4.787
 6712SOL     OW27166   3.834  -0.001   4.874
 6712SOL    HW227167   3.825   0.000   4.779
 6712SOL    HW327168   3.928   0.011   4.889
 6712SOL    MW427169   3.846   0.002   4.865
 6713SOL     OW27170   5.471   1.192   4.494
 6713SOL    HW227171   5.450   1.138   4.417
 6713SOL    HW327172   5.567   1.190   4.498
 6713SOL    MW427173   5.480   1.185   4.483
 6714SOL     OW27174   4.163   1.337   5.237
 6714SOL    HW227175   4.084   1.287   5.260
 6714SOL    HW327176   4.233   1.296   5.287
 6714SOL    MW427177   4.161   1.325   5.247
 6715SOL     OW27178   4.047   0.126   3.920
 6715SOL    HW227179   3.976   0.181   3.888
 6715SOL    HW327180   4.089   0.092   3.841
 6715SOL    MW427181   4.043   0.128   3.906
 6716SOL     OW27182   5.171   0.623   4.756
 6716SOL    HW227183   5.094   0.669   4.722
 6716SOL    HW327184   5.228   0.692   4.790
 6716SOL    MW427185   5.168   0.638   4.756
 6717SOL     OW27186   3.803   0.225   3.769
 6717SOL    HW227187   3.770   0.304   3.813
 6717SOL    HW327188   3.858   0.258   3.698
 6717SOL    MW427189   3.806   0.239   3.766
 6718SOL     OW27190   3.837   1.482   3.958
 6718SOL    HW227191   3.854   1.566   4.000
 6718SOL    HW327192   3.872   1.491   3.870
 6718SOL    MW427193   3.842   1.495   3.952
 6719SOL     OW27194   5.109   1.571   4.175
 6719SOL    HW227195   5.172   1.561   4.104
 6719SOL    HW327196   5.026   1.591   4.130
 6719SOL    MW427197   5.106   1.572   4.160
 6720SOL     OW27198   5.472   0.839   5.862
 6720SOL    HW227199   5.513   0.781   5.927
 6720SOL    HW327200   5.379   0.831   5.879
 6720SOL    MW427201   5.466   0.831   5.872
 6721SOL     OW27202   4.266   1.022   6.091
 6721SOL    HW227203   4.356   0.997   6.075
 6721SOL    HW327204   4.262   1.115   6.068
 6721SOL    MW427205   4.278   1.031   6.086
 6722SOL     OW27206   5.382   1.725   6.233
 6722SOL    HW227207   5.394   1.671   6.311
 6722SOL    HW327208   5.419   1.673   6.162
 6722SOL    MW427209   5.388   1.710   6.234
 6723SOL     OW27210   4.550   0.478   6.104
 6723SOL    HW227211   4.525   0.566   6.132
 6723SOL    HW327212   4.547   0.481   6.008
 6723SOL    MW427213   4.546   0.490   6.096
 6724SOL     OW27214   3.992   0.506   6.032
 6724SOL    HW227215   4.024   0.594   6.014
 6724SOL    HW327216   3.980   0.504   6.127
 6724SOL    MW427217   3.995   0.518   6.044
 6725SOL     OW27218   4.391   0.261   6.119
 6725SOL    HW227219   4.449   0.337   6.121
 6725SOL    HW327220   4.326   0.282   6.052
 6725SOL    MW427221   4.390   0.273   6.110
 6726SOL     OW27222   4.478   1.188   6.294
 6726SOL    HW227223   4.558   1.191   6.346
 6726SOL    HW327224   4.506   1.155   6.208
 6726SOL    MW427225   4.492   1.184   6.289
 6727SOL     OW27226   4.255   0.692   6.285
 6727SOL    HW227227   4.240   0.612   6.336
 6727SOL    HW327228   4.337   0.727   6.319
 6727SOL    MW427229   4.263   0.684   6.297
 6728SOL     OW27230   4.143   0.932   6.566
 6728SOL    HW227231   4.098   0.939   6.482
 6728SOL    HW327232   4.123   1.015   6.610
 6728SOL    MW427233   4.135   0.944   6.560
 6729SOL     OW27234   3.840   1.778   6.441
 6729SOL    HW227235   3.929   1.770   6.476
 6729SOL    HW327236   3.804   1.690   6.446
 6729SOL    MW427237   3.847   1.765   6.446
 6730SOL     OW27238   5.105   1.170   5.810
 6730SOL    HW227239   5.023   1.206   5.776
 6730SOL    HW327240   5.173   1.213   5.759
 6730SOL    MW427241   5.103   1.180   5.798
 6731SOL     OW27242   4.666   0.949   6.286
 6731SOL    HW227243   4.580   0.936   6.326
 6731SOL    HW327244   4.719   0.876   6.318
 6731SOL    MW427245   4.662   0.938   6.295
 6732SOL     OW27246   4.657   1.311   6.003
 6732SOL    HW227247   4.634   1.373   6.071
 6732SOL    HW327248   4.614   1.229   6.029
 6732SOL    MW427249   4.649   1.307   6.014
 6733SOL     OW27250   5.530   0.312   6.459
 6733SOL    HW227251   5.467   0.292   6.528
 6733SOL    HW327252   5.520   0.241   6.396
 6733SOL    MW427253   5.520   0.299   6.460
 6734SOL     OW27254   4.154   0.284   5.971
 6734SOL    HW227255   4.128   0.246   5.887
 6734SOL    HW327256   4.091   0.354   5.987
 6734SOL    MW427257   4.143   0.287   5.962
 6735SOL     OW27258   3.989   1.245   6.008
 6735SOL    HW227259   3.937   1.313   5.964
 6735SOL    HW327260   3.986   1.171   5.948
 6735SOL    MW427261   3.981   1.244   5.995
 6736SOL     OW27262   4.651   1.708   5.786
 6736SOL    HW227263   4.606   1.724   5.869
 6736SOL    HW327264   4.582   1.673   5.728
 6736SOL    MW427265   4.637   1.705   5.788
 6737SOL     OW27266   5.586   0.481   5.761
 6737SOL    HW227267   5.495   0.483   5.789
 6737SOL    HW327268   5.631   0.543   5.819
 6737SOL    MW427269   5.579   0.489   5.771
 6738SOL     OW27270   5.331   1.084   6.111
 6738SOL    HW227271   5.241   1.084   6.146
 6738SOL    HW327272   5.324   1.130   6.028
 6738SOL    MW427273   5.318   1.090   6.105
 6739SOL     OW27274   4.858   0.665   6.072
 6739SOL    HW227275   4.884   0.689   5.983
 6739SOL    HW327276   4.840   0.572   6.068
 6739SOL    MW427277   4.860   0.657   6.059
 6740SOL     OW27278   5.523   1.285   5.923
 6740SOL    HW227279   5.479   1.326   5.998
 6740SOL    HW327280   5.580   1.353   5.888
 6740SOL    MW427281   5.525   1.299   5.928
 6741SOL     OW27282   4.179   1.701   6.241
 6741SOL    HW227283   4.211   1.789   6.219
 6741SOL    HW327284   4.132   1.673   6.163
 6741SOL    MW427285   4.178   1.709   6.228
 6742SOL     OW27286   5.563   0.063   6.290
 6742SOL    HW227287   5.617   0.014   6.352
 6742SOL    HW327288   5.506  -0.003   6.251
 6742SOL    MW427289   5.563   0.047   6.292
 6743SOL     OW27290   3.895   1.761   5.818
 6743SOL    HW227291   3.924   1.851   5.810
 6743SOL    HW327292   3.845   1.744   5.739
 6743SOL    MW427293   3.893   1.769   5.807
 6744SOL     OW27294   5.299   1.569   5.789
 6744SOL    HW227295   5.347   1.638   5.835
 6744SOL    HW327296   5.220   1.613   5.758
 6744SOL    MW427297   5.294   1.583   5.792
 6745SOL     OW27298   4.697   0.694   5.733
 6745SOL    HW227299   4.699   0.641   5.654
 6745SOL    HW327300   4.785   0.731   5.739
 6745SOL    MW427301   4.709   0.693   5.722
 6746SOL     OW27302   5.311   0.620   6.069
 6746SOL    HW227303   5.350   0.620   6.156
 6746SOL    HW327304   5.252   0.696   6.069
 6746SOL    MW427305   5.308   0.631   6.080
 6747SOL     OW27306   5.498   0.506   6.235
 6747SOL    HW227307   5.587   0.475   6.252
 6747SOL    HW327308   5.441   0.446   6.283
 6747SOL    MW427309   5.501   0.494   6.244
 6748SOL     OW27310   3.924   0.220   6.264
 6748SOL    HW227311   3.915   0.160   6.190
 6748SOL    HW327312   3.857   0.191   6.327
 6748SOL    MW427313   3.914   0.207   6.262
 6749SOL     OW27314   4.867   1.313   5.825
 6749SOL    HW227315   4.817   1.315   5.907
 6749SOL    HW327316   4.801   1.331   5.757
 6749SOL    MW427317   4.853   1.315   5.827
 6750SOL     OW27318   4.330   1.731   5.933
 6750SOL    HW227319   4.251   1.689   5.966
 6750SOL    HW327320   4.396   1.714   6.000
 6750SOL    MW427321   4.329   1.723   5.946
 6751SOL     OW27322   4.466   1.146   5.640
 6751SOL    HW227323   4.388   1.092   5.627
 6751SOL    HW327324   4.437   1.219   5.693
 6751SOL    MW427325   4.452   1.148   5.645
 6752SOL     OW27326   5.047   1.662   5.708
 6752SOL    HW227327   4.973   1.625   5.758
 6752SOL    HW327328   5.055   1.752   5.741
 6752SOL    MW427329   5.038   1.669   5.720
 6753SOL     OW27330   5.271   1.336   5.650
 6753SOL    HW227331   5.218   1.385   5.586
 6753SOL    HW327332   5.302   1.402   5.711
 6753SOL    MW427333   5.269   1.350   5.648
 6754SOL     OW27334   4.496   0.225   5.705
 6754SOL    HW227335   4.444   0.145   5.693
 6754SOL    HW327336   4.583   0.202   5.673
 6754SOL    MW427337   4.499   0.211   5.699
 6755SOL     OW27338   3.857   0.865   6.162
 6755SOL    HW227339   3.948   0.880   6.189
 6755SOL    HW327340   3.860   0.786   6.108
 6755SOL    MW427341   3.869   0.857   6.160
 6756SOL     OW27342   4.484   1.797   6.536
 6756SOL    HW227343   4.573   1.812   6.566
 6756SOL    HW327344   4.479   1.844   6.452
 6756SOL    MW427345   4.494   1.805   6.529
 6757SOL     OW27346   3.865   1.477   6.201
 6757SOL    HW227347   3.837   1.516   6.283
 6757SOL    HW327348   3.885   1.386   6.223
 6757SOL    MW427349   3.863   1.469   6.214
 6758SOL     OW27350   4.698   1.520   6.236
 6758SOL    HW227351   4.781   1.474   6.220
 6758SOL    HW327352   4.688   1.519   6.332
 6758SOL    MW427353   4.708   1.513   6.246
 6759SOL     OW27354   4.431   1.577   5.641
 6759SOL    HW227355   4.371   1.646   5.611
 6759SOL    HW327356   4.376   1.519   5.694
 6759SOL    MW427357   4.415   1.579   5.643
 6760SOL     OW27358   4.869   0.222   5.864
 6760SOL    HW227359   4.802   0.198   5.801
 6760SOL    HW327360   4.934   0.271   5.813
 6760SOL    MW427361   4.869   0.224   5.849
 6761SOL     OW27362   4.388   0.939   6.376
 6761SOL    HW227363   4.299   0.930   6.409
 6761SOL    HW327364   4.392   1.029   6.344
 6761SOL    MW427365   4.377   0.950   6.376
 6762SOL     OW27366   5.187   0.522   6.371
 6762SOL    HW227367   5.132   0.443   6.370
 6762SOL    HW327368   5.169   0.563   6.455
 6762SOL    MW427369   5.177   0.517   6.380
 6763SOL     OW27370   4.806   0.726   6.328
 6763SOL    HW227371   4.743   0.658   6.352
 6763SOL    HW327372   4.826   0.707   6.236
 6763SOL    MW427373   4.800   0.713   6.320
 6764SOL     OW27374   4.062   1.621   6.030
 6764SOL    HW227375   4.023   1.668   5.956
 6764SOL    HW327376   3.996   1.556   6.055
 6764SOL    MW427377   4.049   1.619   6.024
 6765SOL     OW27378   4.554   1.030   6.054
 6765SOL    HW227379   4.556   1.004   5.961
 6765SOL    HW327380   4.612   0.967   6.097
 6765SOL    MW427381   4.562   1.019   6.048
 6766SOL     OW27382   5.111   1.798   6.256
 6766SOL    HW227383   5.054   1.751   6.195
 6766SOL    HW327384   5.197   1.759   6.243
 6766SOL    MW427385   5.114   1.789   6.246
 6767SOL     OW27386   5.064   0.274   6.387
 6767SOL    HW227387   5.092   0.206   6.448
 6767SOL    HW327388   4.978   0.245   6.357
 6767SOL    MW427389   5.057   0.261   6.391
 6768SOL     OW27390   3.869   1.208   6.321
 6768SOL    HW227391   3.933   1.240   6.384
 6768SOL    HW327392   3.918   1.144   6.269
 6768SOL    MW427393   3.884   1.204   6.322
 6769SOL     OW27394   5.044   0.378   5.722
 6769SOL    HW227395   5.017   0.444   5.658
 6769SOL    HW327396   5.114   0.421   5.772
 6769SOL    MW427397   5.049   0.391   5.719
 6770SOL     OW27398   4.712   0.083   5.659
 6770SOL    HW227399   4.768   0.075   5.581
 6770SOL    HW327400   4.689  -0.007   5.681
 6770SOL    MW427401   4.717   0.070   5.652
 6771SOL     OW27402   5.217   0.934   5.864
 6771SOL    HW227403   5.184   1.023   5.854
 6771SOL    HW327404   5.182   0.905   5.949
 6771SOL    MW427405   5.207   0.943   5.875
 6772SOL     OW27406   4.211   0.972   5.656
 6772SOL    HW227407   4.134   0.985   5.712
 6772SOL    HW327408   4.175   0.936   5.575
 6772SOL    MW427409   4.197   0.968   5.653
 6773SOL     OW27410   4.864   0.945   5.899
 6773SOL    HW227411   4.774   0.966   5.874
 6773SOL    HW327412   4.891   1.018   5.955
 6773SOL    MW427413   4.856   0.957   5.902
 6774SOL     OW27414   4.493   0.061   6.306
 6774SOL    HW227415   4.422   0.122   6.288
 6774SOL    HW327416   4.544   0.058   6.225
 6774SOL    MW427417   4.489   0.067   6.293
 6775SOL     OW27418   4.251   1.301   6.055
 6775SOL    HW227419   4.244   1.333   6.145
 6775SOL    HW327420   4.161   1.285   6.027
 6775SOL    MW427421   4.239   1.303   6.062
 6776SOL     OW27422   4.960   1.659   6.454
 6776SOL    HW227423   5.007   1.732   6.413
 6776SOL    HW327424   4.881   1.698   6.490
 6776SOL    MW427425   4.955   1.674   6.453
 6777SOL     OW27426   4.254   0.585   5.769
 6777SOL    HW227427   4.220   0.641   5.839
 6777SOL    HW327428   4.325   0.535   5.809
 6777SOL    MW427429   4.260   0.586   5.783
 6778SOL     OW27430   5.310   0.471   5.833
 6778SOL    HW227431   5.302   0.542   5.770
 6778SOL    HW327432   5.328   0.515   5.916
 6778SOL    MW427433   5.311   0.485   5.835
 6779SOL     OW27434   4.170   0.126   6.262
 6779SOL    HW227435   4.220   0.169   6.193
 6779SOL    HW327436   4.085   0.170   6.262
 6779SOL    MW427437   4.167   0.139   6.253
 6780SOL     OW27438   4.979   0.733   5.808
 6780SOL    HW227439   5.026   0.751   5.727
 6780SOL    HW327440   4.945   0.817   5.836
 6780SOL    MW427441   4.981   0.747   5.801
 6781SOL     OW27442   4.092   0.911   6.302
 6781SOL    HW227443   4.150   0.967   6.250
 6781SOL    HW327444   4.136   0.826   6.304
 6781SOL    MW427445   4.105   0.908   6.295
 6782SOL     OW27446   5.232   0.263   6.139
 6782SOL    HW227447   5.154   0.213   6.164
 6782SOL    HW327448   5.203   0.354   6.139
 6782SOL    MW427449   5.218   0.267   6.142
 6783SOL     OW27450   4.818   0.225   6.298
 6783SOL    HW227451   4.838   0.300   6.242
 6783SOL    HW327452   4.798   0.264   6.383
 6783SOL    MW427453   4.819   0.241   6.302
 6784SOL     OW27454   4.714   1.475   5.630
 6784SOL    HW227455   4.741   1.553   5.582
 6784SOL    HW327456   4.621   1.490   5.649
 6784SOL    MW427457   4.705   1.488   5.626
 6785SOL     OW27458   3.754   0.637   6.021
 6785SOL    HW227459   3.694   0.609   6.091
 6785SOL    HW327460   3.828   0.577   6.027
 6785SOL    MW427461   3.756   0.626   6.030
 6786SOL     OW27462   4.922   1.368   6.181
 6786SOL    HW227463   4.945   1.319   6.259
 6786SOL    HW327464   5.003   1.410   6.153
 6786SOL    MW427465   4.935   1.368   6.188
 6787SOL     OW27466   4.277   0.121   6.537
 6787SOL    HW227467   4.287   0.030   6.563
 6787SOL    HW327468   4.233   0.117   6.452
 6787SOL    MW427469   4.273   0.109   6.529
 6788SOL     OW27470   5.062   0.035   5.817
 6788SOL    HW227471   5.136   0.079   5.860
 6788SOL    HW327472   4.986   0.089   5.839
 6788SOL    MW427473   5.062   0.047   5.825
 6789SOL     OW27474   5.122   0.810   6.095
 6789SOL    HW227475   5.037   0.780   6.065
 6789SOL    HW327476   5.114   0.817   6.190
 6789SOL    MW427477   5.110   0.808   6.104
 6790SOL     OW27478   4.495   0.476   5.821
 6790SOL    HW227479   4.568   0.525   5.784
 6790SOL    HW327480   4.511   0.385   5.795
 6790SOL    MW427481   4.507   0.471   5.814
 6791SOL     OW27482   3.970   0.985   5.919
 6791SOL    HW227483   3.907   1.001   5.848
 6791SOL    HW327484   3.917   0.948   5.990
 6791SOL    MW427485   3.955   0.982   5.919
 6792SOL     OW27486   4.326   1.339   5.778
 6792SOL    HW227487   4.341   1.315   5.870
 6792SOL    HW327488   4.234   1.317   5.762
 6792SOL    MW427489   4.316   1.332   5.788
 6793SOL     OW27490   4.865   1.570   5.930
 6793SOL    HW227491   4.873   1.488   5.881
 6793SOL    HW327492   4.784   1.609   5.897
 6793SOL    MW427493   4.855   1.565   5.920
 6794SOL     OW27494   4.124   1.728   6.499
 6794SOL    HW227495   4.128   1.639   6.534
 6794SOL    HW327496   4.150   1.719   6.408
 6794SOL    MW427497   4.127   1.716   6.491
 6795SOL     OW27498   4.201   0.451   6.376
 6795SOL    HW227499   4.272   0.399   6.339
 6795SOL    HW327500   4.187   0.416   6.463
 6795SOL    MW427501   4.209   0.440   6.383
 6796SOL     OW27502   4.517   1.544   6.452
 6796SOL    HW227503   4.445   1.481   6.465
 6796SOL    HW327504   4.478   1.629   6.470
 6796SOL    MW427505   4.501   1.547   6.455
 6797SOL     OW27506   4.837   0.392   6.100
 6797SOL    HW227507   4.859   0.329   6.032
 6797SOL    HW327508   4.742   0.384   6.111
 6797SOL    MW427509   4.827   0.383   6.092
 6798SOL     OW27510   3.922   0.082   6.032
 6798SOL    HW227511   3.993   0.103   5.971
 6798SOL    HW327512   3.876   0.010   5.990
 6798SOL    MW427513   3.926   0.076   6.018
 6799SOL     OW27514   5.491   1.456   6.132
 6799SOL    HW227515   5.461   1.389   6.193
 6799SOL    HW327516   5.585   1.462   6.146
 6799SOL    MW427517   5.499   1.448   6.142
 6800SOL     OW27518   5.047   1.133   6.062
 6800SOL    HW227519   5.019   1.219   6.095
 6800SOL    HW327520   5.075   1.149   5.972
 6800SOL    MW427521   5.047   1.147   6.054
 6801SOL     OW27522   4.709   0.053   6.115
 6801SOL    HW227523   4.746   0.112   6.180
 6801SOL    HW327524   4.686   0.109   6.041
 6801SOL    MW427525   4.710   0.068   6.114
 6802SOL     OW27526   5.562   0.935   6.537
 6802SOL    HW227527   5.553   0.967   6.448
 6802SOL    HW327528   5.515   0.851   6.537
 6802SOL    MW427529   5.555   0.928   6.527
 6803SOL     OW27530   5.474   0.866   6.238
 6803SOL    HW227531   5.568   0.855   6.226
 6803SOL    HW327532   5.450   0.938   6.179
 6803SOL    MW427533   5.484   0.874   6.229
 6804SOL     OW27534   4.130   0.744   6.011
 6804SOL    HW227535   4.130   0.839   5.996
 6804SOL    HW327536   4.207   0.728   6.065
 6804SOL    MW427537   4.140   0.755   6.016
 6805SOL     OW27538   3.889   0.475   6.300
 6805SOL    HW227539   3.951   0.482   6.373
 6805SOL    HW327540   3.889   0.382   6.277
 6805SOL    MW427541   3.897   0.464   6.307
 6806SOL     OW27542   5.436   1.815   5.832
 6806SOL    HW227543   5.503   1.848   5.772
 6806SOL    HW327544   5.393   1.894   5.866
 6806SOL    MW427545   5.438   1.830   5.828
 6807SOL     OW27546   3.758   1.047   5.758
 6807SOL    HW227547   3.727   1.112   5.821
 6807SOL    HW327548   3.707   0.969   5.777
 6807SOL    MW427549   3.748   1.044   5.768
 6808SOL     OW27550   5.202   0.798   6.350
 6808SOL    HW227551   5.282   0.813   6.299
 6808SOL    HW327552   5.195   0.703   6.356
 6808SOL    MW427553   5.211   0.787   6.345
 6809SOL     OW27554   4.342   1.847   5.700
 6809SOL    HW227555   4.247   1.847   5.692
 6809SOL    HW327556   4.358   1.793   5.778
 6809SOL    MW427557   4.332   1.841   5.709
 6810SOL     OW27558   5.187   0.667   5.615
 6810SOL    HW227559   5.115   0.643   5.557
 6810SOL    HW327560   5.253   0.704   5.557
 6810SOL    MW427561   5.186   0.669   5.600
 6811SOL     OW27562   4.321   1.399   6.296
 6811SOL    HW227563   4.386   1.332   6.317
 6811SOL    HW327564   4.373   1.476   6.273
 6811SOL    MW427565   4.336   1.401   6.295
 6812SOL     OW27566   4.582   0.564   6.426
 6812SOL    HW227567   4.522   0.582   6.498
 6812SOL    HW327568   4.616   0.476   6.445
 6812SOL    MW427569   4.578   0.554   6.439
 6813SOL     OW27570   4.807   1.147   6.445
 6813SOL    HW227571   4.899   1.128   6.463
 6813SOL    HW327572   4.780   1.077   6.385
 6813SOL    MW427573   4.815   1.135   6.439
 6814SOL     OW27574   4.600   0.967   5.800
 6814SOL    HW227575   4.586   0.879   5.765
 6814SOL    HW327576   4.551   1.024   5.741
 6814SOL    MW427577   4.592   0.962   5.788
 6815SOL     OW27578   5.319   0.173   5.902
 6815SOL    HW227579   5.312   0.177   5.997
 6815SOL    HW327580   5.331   0.264   5.875
 6815SOL    MW427581   5.320   0.186   5.910
 6816SOL     OW27582   4.608   0.736   6.016
 6816SOL    HW227583   4.588   0.722   5.923
 6816SOL    HW327584   4.701   0.715   6.023
 6816SOL    MW427585   4.618   0.731   6.005
 6817SOL     OW27586   4.591   1.694   6.054
 6817SOL    HW227587   4.649   1.765   6.081
 6817SOL    HW327588   4.614   1.622   6.112
 6817SOL    MW427589   4.602   1.694   6.065
 6818SOL     OW27590   5.471   1.192   6.363
 6818SOL    HW227591   5.450   1.138   6.286
 6818SOL    HW327592   5.567   1.190   6.367
 6818SOL    MW427593   5.480   1.185   6.352
 6819SOL     OW27594   4.047   0.126   5.789
 6819SOL    HW227595   3.976   0.181   5.757
 6819SOL    HW327596   4.089   0.092   5.710
 6819SOL    MW427597   4.043   0.128   5.775
 6820SOL     OW27598   3.803   0.225   5.638
 6820SOL    HW227599   3.770   0.304   5.682
 6820SOL    HW327600   3.858   0.258   5.567
 6820SOL    MW427601   3.806   0.239   5.635
 6821SOL     OW27602   3.837   1.482   5.827
 6821SOL    HW227603   3.854   1.566   5.869
 6821SOL    HW327604   3.872   1.491   5.739
 6821SOL    MW427605   3.842   1.495   5.821
 6822SOL     OW27606   5.109   1.571   6.044
 6822SOL    HW227607   5.172   1.561   5.973
 6822SOL    HW327608   5.026   1.591   5.999
 6822SOL    MW427609   5.106   1.572   6.029
 6823SOL     OW27610   5.338   2.639   1.252
 6823SOL    HW227611   5.293   2.706   1.303
 6823SOL    HW327612   5.426   2.675   1.238
 6823SOL    MW427613   5.344   2.652   1.256
 6824SOL     OW27614   4.266   2.890   0.486
 6824SOL    HW227615   4.356   2.865   0.470
 6824SOL    HW327616   4.262   2.983   0.463
 6824SOL    MW427617   4.278   2.899   0.481
 6825SOL     OW27618   5.382   3.593   0.628
 6825SOL    HW227619   5.394   3.539   0.706
 6825SOL    HW327620   5.419   3.541   0.557
 6825SOL    MW427621   5.388   3.578   0.629
 6826SOL     OW27622   4.761   3.478   1.629
 6826SOL    HW227623   4.802   3.514   1.550
 6826SOL    HW327624   4.796   3.389   1.636
 6826SOL    MW427625   4.772   3.471   1.620
 6827SOL     OW27626   5.318   3.033   1.233
 6827SOL    HW227627   5.239   2.998   1.191
 6827SOL    HW327628   5.345   3.105   1.177
 6827SOL    MW427629   5.311   3.038   1.220
 6828SOL     OW27630   4.550   2.346   0.499
 6828SOL    HW227631   4.525   2.434   0.527
 6828SOL    HW327632   4.547   2.349   0.403
 6828SOL    MW427633   4.546   2.358   0.491
 6829SOL     OW27634   3.992   2.374   0.427
 6829SOL    HW227635   4.024   2.462   0.409
 6829SOL    HW327636   3.980   2.372   0.522
 6829SOL    MW427637   3.995   2.386   0.439
 6830SOL     OW27638   4.070   2.787   1.328
 6830SOL    HW227639   4.133   2.734   1.279
 6830SOL    HW327640   4.051   2.861   1.271
 6830SOL    MW427641   4.076   2.789   1.315
 6831SOL     OW27642   4.391   2.129   0.514
 6831SOL    HW227643   4.449   2.205   0.516
 6831SOL    HW327644   4.326   2.150   0.447
 6831SOL    MW427645   4.390   2.141   0.505
 6832SOL     OW27646   4.478   3.056   0.689
 6832SOL    HW227647   4.558   3.059   0.741
 6832SOL    HW327648   4.506   3.023   0.603
 6832SOL    MW427649   4.492   3.052   0.684
 6833SOL     OW27650   4.503   3.397   1.592
 6833SOL    HW227651   4.587   3.423   1.631
 6833SOL    HW327652   4.527   3.341   1.518
 6833SOL    MW427653   4.517   3.393   1.587
 6834SOL     OW27654   4.255   2.560   0.680
 6834SOL    HW227655   4.240   2.480   0.731
 6834SOL    HW327656   4.337   2.595   0.714
 6834SOL    MW427657   4.263   2.552   0.692
 6835SOL     OW27658   4.592   3.246   1.365
 6835SOL    HW227659   4.556   3.312   1.305
 6835SOL    HW327660   4.520   3.184   1.378
 6835SOL    MW427661   4.578   3.246   1.359
 6836SOL     OW27662   4.397   2.386   1.057
 6836SOL    HW227663   4.303   2.382   1.075
 6836SOL    HW327664   4.427   2.295   1.066
 6836SOL    MW427665   4.388   2.374   1.060
 6837SOL     OW27666   4.143   2.800   0.961
 6837SOL    HW227667   4.098   2.807   0.877
 6837SOL    HW327668   4.123   2.883   1.005
 6837SOL    MW427669   4.135   2.812   0.955
 6838SOL     OW27670   3.840   3.646   0.836
 6838SOL    HW227671   3.929   3.638   0.871
 6838SOL    HW327672   3.804   3.558   0.841
 6838SOL    MW427673   3.847   3.633   0.841
 6839SOL     OW27674   4.104   3.173   0.871
 6839SOL    HW227675   4.080   3.226   0.947
 6839SOL    HW327676   4.160   3.231   0.819
 6839SOL    MW427677   4.108   3.188   0.874
 6840SOL     OW27678   4.666   2.817   0.681
 6840SOL    HW227679   4.580   2.804   0.721
 6840SOL    HW327680   4.719   2.744   0.713
 6840SOL    MW427681   4.662   2.806   0.690
 6841SOL     OW27682   4.074   3.469   1.466
 6841SOL    HW227683   3.982   3.445   1.451
 6841SOL    HW327684   4.118   3.386   1.483
 6841SOL    MW427685   4.068   3.454   1.465
 6842SOL     OW27686   4.657   3.179   0.398
 6842SOL    HW227687   4.634   3.241   0.466
 6842SOL    HW327688   4.614   3.097   0.424
 6842SOL    MW427689   4.649   3.175   0.409
 6843SOL     OW27690   5.530   2.180   0.854
 6843SOL    HW227691   5.467   2.160   0.923
 6843SOL    HW327692   5.520   2.109   0.791
 6843SOL    MW427693   5.520   2.167   0.855
 6844SOL     OW27694   4.154   2.152   0.366
 6844SOL    HW227695   4.128   2.114   0.282
 6844SOL    HW327696   4.091   2.222   0.382
 6844SOL    MW427697   4.143   2.155   0.357
 6845SOL     OW27698   3.989   3.113   0.403
 6845SOL    HW227699   3.937   3.181   0.359
 6845SOL    HW327700   3.986   3.039   0.343
 6845SOL    MW427701   3.981   3.112   0.390
 6846SOL     OW27702   5.331   2.952   0.506
 6846SOL    HW227703   5.241   2.952   0.541
 6846SOL    HW327704   5.324   2.998   0.423
 6846SOL    MW427705   5.318   2.958   0.500
 6847SOL     OW27706   5.131   2.587   1.578
 6847SOL    HW227707   5.200   2.525   1.555
 6847SOL    HW327708   5.056   2.561   1.525
 6847SOL    MW427709   5.131   2.574   1.569
 6848SOL     OW27710   3.872   3.467   1.130
 6848SOL    HW227711   3.855   3.413   1.207
 6848SOL    HW327712   3.860   3.557   1.160
 6848SOL    MW427713   3.869   3.471   1.144
 6849SOL     OW27714   4.867   2.974   1.570
 6849SOL    HW227715   4.852   3.067   1.555
 6849SOL    HW327716   4.962   2.964   1.570
 6849SOL    MW427717   4.876   2.984   1.567
 6850SOL     OW27718   4.663   2.398   1.771
 6850SOL    HW227719   4.753   2.399   1.738
 6850SOL    HW327720   4.622   2.323   1.729
 6850SOL    MW427721   4.669   2.388   1.762
 6851SOL     OW27722   5.238   2.930   0.898
 6851SOL    HW227723   5.241   2.864   0.829
 6851SOL    HW327724   5.323   2.973   0.894
 6851SOL    MW427725   5.250   2.926   0.889
 6852SOL     OW27726   4.858   2.533   0.467
 6852SOL    HW227727   4.884   2.557   0.378
 6852SOL    HW327728   4.840   2.440   0.463
 6852SOL    MW427729   4.860   2.525   0.454
 6853SOL     OW27730   4.443   2.202   1.721
 6853SOL    HW227731   4.453   2.128   1.661
 6853SOL    HW327732   4.479   2.171   1.804
 6853SOL    MW427733   4.449   2.188   1.723
 6854SOL     OW27734   4.179   3.569   0.636
 6854SOL    HW227735   4.211   3.657   0.614
 6854SOL    HW327736   4.132   3.541   0.558
 6854SOL    MW427737   4.178   3.577   0.623
 6855SOL     OW27738   5.563   1.931   0.685
 6855SOL    HW227739   5.617   1.882   0.747
 6855SOL    HW327740   5.506   1.865   0.646
 6855SOL    MW427741   5.563   1.915   0.687
 6856SOL     OW27742   3.895   3.629   0.213
 6856SOL    HW227743   3.924   3.719   0.205
 6856SOL    HW327744   3.845   3.612   0.134
 6856SOL    MW427745   3.893   3.637   0.202
 6857SOL     OW27746   4.682   1.884   1.098
 6857SOL    HW227747   4.641   1.962   1.060
 6857SOL    HW327748   4.776   1.902   1.093
 6857SOL    MW427749   4.688   1.896   1.093
 6858SOL     OW27750   4.628   2.855   1.593
 6858SOL    HW227751   4.605   2.835   1.683
 6858SOL    HW327752   4.713   2.899   1.598
 6858SOL    MW427753   4.635   2.858   1.605
 6859SOL     OW27754   4.708   1.992   1.353
 6859SOL    HW227755   4.714   1.954   1.266
 6859SOL    HW327756   4.697   2.086   1.338
 6859SOL    MW427757   4.709   2.000   1.341
 6860SOL     OW27758   4.797   2.481   1.187
 6860SOL    HW227759   4.872   2.510   1.134
 6860SOL    HW327760   4.729   2.546   1.171
 6860SOL    MW427761   4.798   2.493   1.177
 6861SOL     OW27762   5.347   2.449   1.464
 6861SOL    HW227763   5.328   2.358   1.443
 6861SOL    HW327764   5.325   2.498   1.385
 6861SOL    MW427765   5.342   2.442   1.451
 6862SOL     OW27766   5.489   3.543   1.368
 6862SOL    HW227767   5.417   3.505   1.419
 6862SOL    HW327768   5.506   3.628   1.409
 6862SOL    MW427769   5.483   3.548   1.380
 6863SOL     OW27770   4.794   2.187   1.570
 6863SOL    HW227771   4.760   2.226   1.489
 6863SOL    HW327772   4.772   2.095   1.563
 6863SOL    MW427773   4.787   2.180   1.560
 6864SOL     OW27774   5.203   3.001   1.646
 6864SOL    HW227775   5.285   3.042   1.676
 6864SOL    HW327776   5.166   2.963   1.726
 6864SOL    MW427777   5.209   3.002   1.661
 6865SOL     OW27778   5.498   2.374   0.630
 6865SOL    HW227779   5.587   2.343   0.647
 6865SOL    HW327780   5.441   2.314   0.678
 6865SOL    MW427781   5.501   2.362   0.639
 6866SOL     OW27782   3.924   2.088   0.659
 6866SOL    HW227783   3.915   2.028   0.585
 6866SOL    HW327784   3.857   2.059   0.722
 6866SOL    MW427785   3.914   2.075   0.657
 6867SOL     OW27786   4.867   3.181   0.220
 6867SOL    HW227787   4.817   3.183   0.302
 6867SOL    HW327788   4.801   3.199   0.152
 6867SOL    MW427789   4.853   3.183   0.222
 6868SOL     OW27790   3.871   2.261   1.022
 6868SOL    HW227791   3.843   2.352   1.031
 6868SOL    HW327792   3.808   2.222   0.961
 6868SOL    MW427793   3.858   2.267   1.016
 6869SOL     OW27794   5.458   3.119   1.725
 6869SOL    HW227795   5.508   3.045   1.757
 6869SOL    HW327796   5.404   3.146   1.800
 6869SOL    MW427797   5.458   3.113   1.738
 6870SOL     OW27798   5.592   2.754   1.227
 6870SOL    HW227799   5.608   2.792   1.140
 6870SOL    HW327800   5.626   2.820   1.288
 6870SOL    MW427801   5.599   2.767   1.223
 6871SOL     OW27802   5.384   3.463   0.896
 6871SOL    HW227803   5.413   3.530   0.957
 6871SOL    HW327804   5.365   3.387   0.951
 6871SOL    MW427805   5.386   3.463   0.911
 6872SOL     OW27806   3.855   2.536   1.192
 6872SOL    HW227807   3.917   2.566   1.258
 6872SOL    HW327808   3.789   2.605   1.186
 6872SOL    MW427809   3.854   2.549   1.199
 6873SOL     OW27810   3.950   3.645   1.644
 6873SOL    HW227811   3.924   3.713   1.582
 6873SOL    HW327812   3.998   3.582   1.592
 6873SOL    MW427813   3.952   3.645   1.630
 6874SOL     OW27814   4.002   2.964   1.151
 6874SOL    HW227815   4.055   3.039   1.176
 6874SOL    HW327816   3.921   3.002   1.117
 6874SOL    MW427817   3.998   2.979   1.151
 6875SOL     OW27818   4.542   2.868   1.139
 6875SOL    HW227819   4.570   2.777   1.151
 6875SOL    HW327820   4.471   2.862   1.075
 6875SOL    MW427821   4.535   2.856   1.134
 6876SOL     OW27822   3.857   2.733   0.557
 6876SOL    HW227823   3.948   2.748   0.584
 6876SOL    HW327824   3.860   2.654   0.503
 6876SOL    MW427825   3.869   2.725   0.555
 6877SOL     OW27826   4.093   2.441   1.811
 6877SOL    HW227827   4.040   2.521   1.818
 6877SOL    HW327828   4.163   2.453   1.876
 6877SOL    MW427829   4.095   2.454   1.819
 6878SOL     OW27830   4.479   1.991   1.518
 6878SOL    HW227831   4.456   1.899   1.520
 6878SOL    HW327832   4.565   1.993   1.475
 6878SOL    MW427833   4.486   1.981   1.514
 6879SOL     OW27834   4.163   2.515   1.557
 6879SOL    HW227835   4.243   2.565   1.543
 6879SOL    HW327836   4.154   2.509   1.652
 6879SOL    MW427837   4.172   2.521   1.567
 6880SOL     OW27838   4.484   3.665   0.931
 6880SOL    HW227839   4.573   3.680   0.961
 6880SOL    HW327840   4.479   3.712   0.847
 6880SOL    MW427841   4.494   3.673   0.924
 6881SOL     OW27842   5.140   2.040   1.828
 6881SOL    HW227843   5.196   1.967   1.854
 6881SOL    HW327844   5.110   2.078   1.910
 6881SOL    MW427845   5.144   2.035   1.841
 6882SOL     OW27846   3.865   3.345   0.596
 6882SOL    HW227847   3.837   3.384   0.678
 6882SOL    HW327848   3.885   3.254   0.618
 6882SOL    MW427849   3.863   3.337   0.609
 6883SOL     OW27850   4.698   3.388   0.631
 6883SOL    HW227851   4.781   3.342   0.615
 6883SOL    HW327852   4.688   3.387   0.727
 6883SOL    MW427853   4.708   3.381   0.641
 6884SOL     OW27854   5.530   2.533   0.945
 6884SOL    HW227855   5.619   2.563   0.927
 6884SOL    HW327856   5.510   2.473   0.874
 6884SOL    MW427857   5.539   2.530   0.934
 6885SOL     OW27858   5.381   2.712   1.825
 6885SOL    HW227859   5.436   2.636   1.806
 6885SOL    HW327860   5.383   2.720   1.920
 6885SOL    MW427861   5.389   2.703   1.833
 6886SOL     OW27862   4.676   2.274   1.344
 6886SOL    HW227863   4.595   2.315   1.372
 6886SOL    HW327864   4.723   2.342   1.296
 6886SOL    MW427865   4.671   2.289   1.342
 6887SOL     OW27866   4.936   2.612   0.967
 6887SOL    HW227867   4.949   2.706   0.977
 6887SOL    HW327868   4.897   2.602   0.881
 6887SOL    MW427869   4.932   2.623   0.957
 6888SOL     OW27870   4.388   2.807   0.771
 6888SOL    HW227871   4.299   2.798   0.804
 6888SOL    HW327872   4.392   2.897   0.739
 6888SOL    MW427873   4.377   2.818   0.771
 6889SOL     OW27874   5.187   2.390   0.766
 6889SOL    HW227875   5.132   2.311   0.765
 6889SOL    HW327876   5.169   2.431   0.850
 6889SOL    MW427877   5.177   2.385   0.775
 6890SOL     OW27878   4.158   2.077   1.583
 6890SOL    HW227879   4.079   2.095   1.635
 6890SOL    HW327880   4.153   2.139   1.510
 6890SOL    MW427881   4.148   2.087   1.580
 6891SOL     OW27882   4.806   2.594   0.723
 6891SOL    HW227883   4.743   2.526   0.747
 6891SOL    HW327884   4.826   2.575   0.631
 6891SOL    MW427885   4.800   2.581   0.715
 6892SOL     OW27886   4.062   3.489   0.425
 6892SOL    HW227887   4.023   3.536   0.351
 6892SOL    HW327888   3.996   3.424   0.450
 6892SOL    MW427889   4.049   3.487   0.419
 6893SOL     OW27890   5.107   3.458   1.221
 6893SOL    HW227891   5.032   3.504   1.259
 6893SOL    HW327892   5.089   3.365   1.238
 6893SOL    MW427893   5.096   3.452   1.229
 6894SOL     OW27894   5.111   3.666   0.651
 6894SOL    HW227895   5.054   3.619   0.590
 6894SOL    HW327896   5.197   3.627   0.638
 6894SOL    MW427897   5.114   3.657   0.641
 6895SOL     OW27898   5.064   2.142   0.782
 6895SOL    HW227899   5.092   2.074   0.843
 6895SOL    HW327900   4.978   2.113   0.752
 6895SOL    MW427901   5.057   2.129   0.786
 6896SOL     OW27902   3.869   3.076   0.716
 6896SOL    HW227903   3.933   3.108   0.779
 6896SOL    HW327904   3.918   3.012   0.664
 6896SOL    MW427905   3.884   3.072   0.717
 6897SOL     OW27906   4.369   3.152   1.698
 6897SOL    HW227907   4.417   3.235   1.685
 6897SOL    HW327908   4.426   3.100   1.754
 6897SOL    MW427909   4.383   3.156   1.704
 6898SOL     OW27910   3.945   3.394   1.838
 6898SOL    HW227911   4.001   3.318   1.853
 6898SOL    HW327912   3.894   3.372   1.760
 6898SOL    MW427913   3.945   3.381   1.829
 6899SOL     OW27914   4.830   3.231   1.447
 6899SOL    HW227915   4.741   3.237   1.415
 6899SOL    HW327916   4.874   3.310   1.415
 6899SOL    MW427917   4.825   3.241   1.439
 6900SOL     OW27918   4.123   1.899   1.789
 6900SOL    HW227919   4.051   1.864   1.737
 6900SOL    HW327920   4.181   1.940   1.724
 6900SOL    MW427921   4.121   1.900   1.774
 6901SOL     OW27922   4.147   3.389   1.088
 6901SOL    HW227923   4.192   3.451   1.145
 6901SOL    HW327924   4.054   3.408   1.101
 6901SOL    MW427925   4.140   3.399   1.095
 6902SOL     OW27926   5.587   2.918   1.442
 6902SOL    HW227927   5.502   2.931   1.401
 6902SOL    HW327928   5.567   2.882   1.529
 6902SOL    MW427929   5.574   2.914   1.447
 6903SOL     OW27930   4.569   3.457   1.196
 6903SOL    HW227931   4.593   3.446   1.105
 6903SOL    HW327932   4.492   3.514   1.194
 6903SOL    MW427933   4.561   3.462   1.185
 6904SOL     OW27934   4.364   3.162   0.986
 6904SOL    HW227935   4.357   3.141   1.080
 6904SOL    HW327936   4.282   3.130   0.949
 6904SOL    MW427937   4.352   3.156   0.993
 6905SOL     OW27938   5.228   2.172   1.388
 6905SOL    HW227939   5.175   2.174   1.468
 6905SOL    HW327940   5.213   2.085   1.351
 6905SOL    MW427941   5.220   2.162   1.393
 6906SOL     OW27942   5.564   2.096   1.261
 6906SOL    HW227943   5.545   2.163   1.196
 6906SOL    HW327944   5.621   2.034   1.216
 6906SOL    MW427945   5.568   2.097   1.247
 6907SOL     OW27946   3.810   3.254   1.649
 6907SOL    HW227947   3.854   3.187   1.595
 6907SOL    HW327948   3.725   3.216   1.669
 6907SOL    MW427949   3.805   3.240   1.645
 6908SOL     OW27950   4.493   1.929   0.701
 6908SOL    HW227951   4.422   1.990   0.683
 6908SOL    HW327952   4.544   1.926   0.620
 6908SOL    MW427953   4.489   1.935   0.688
 6909SOL     OW27954   4.251   3.169   0.450
 6909SOL    HW227955   4.244   3.201   0.540
 6909SOL    HW327956   4.161   3.153   0.422
 6909SOL    MW427957   4.239   3.171   0.457
 6910SOL     OW27958   4.846   3.562   1.359
 6910SOL    HW227959   4.766   3.547   1.309
 6910SOL    HW327960   4.853   3.657   1.366
 6910SOL    MW427961   4.837   3.573   1.353
 6911SOL     OW27962   4.960   3.527   0.849
 6911SOL    HW227963   5.007   3.600   0.808
 6911SOL    HW327964   4.881   3.566   0.885
 6911SOL    MW427965   4.955   3.542   0.848
 6912SOL     OW27966   5.368   3.622   1.124
 6912SOL    HW227967   5.411   3.592   1.204
 6912SOL    HW327968   5.287   3.570   1.121
 6912SOL    MW427969   5.363   3.611   1.134
 6913SOL     OW27970   4.453   2.586   1.831
 6913SOL    HW227971   4.523   2.528   1.803
 6913SOL    HW327972   4.396   2.531   1.886
 6913SOL    MW427973   4.455   2.573   1.835
 6914SOL     OW27974   5.240   2.798   1.464
 6914SOL    HW227975   5.245   2.851   1.544
 6914SOL    HW327976   5.202   2.715   1.492
 6914SOL    MW427977   5.236   2.793   1.479
 6915SOL     OW27978   4.880   1.933   1.710
 6915SOL    HW227979   4.875   1.840   1.691
 6915SOL    HW327980   4.963   1.944   1.756
 6915SOL    MW427981   4.888   1.922   1.714
 6916SOL     OW27982   5.350   3.204   0.986
 6916SOL    HW227983   5.385   3.186   0.899
 6916SOL    HW327984   5.255   3.205   0.973
 6916SOL    MW427985   5.342   3.201   0.973
 6917SOL     OW27986   4.779   2.852   1.355
 6917SOL    HW227987   4.822   2.887   1.433
 6917SOL    HW327988   4.762   2.929   1.301
 6917SOL    MW427989   4.782   2.867   1.358
 6918SOL     OW27990   4.170   1.994   0.657
 6918SOL    HW227991   4.220   2.037   0.588
 6918SOL    HW327992   4.085   2.038   0.657
 6918SOL    MW427993   4.167   2.007   0.648
 6919SOL     OW27994   3.929   3.056   1.517
 6919SOL    HW227995   3.957   3.009   1.595
 6919SOL    HW327996   3.850   3.011   1.488
 6919SOL    MW427997   3.922   3.045   1.523
 6920SOL     OW27998   4.437   2.383   1.484
 6920SOL    HW227999   4.409   2.471   1.508
 6920SOL    HW328000   4.406   2.327   1.555
 6920SOL    MW428001   4.429   2.386   1.496
 6921SOL     OW28002   4.979   2.601   0.203
 6921SOL    HW228003   5.026   2.619   0.122
 6921SOL    HW328004   4.945   2.685   0.231
 6921SOL    MW428005   4.981   2.615   0.196
 6922SOL     OW28006   4.092   2.779   0.697
 6922SOL    HW228007   4.150   2.835   0.645
 6922SOL    HW328008   4.136   2.694   0.699
 6922SOL    MW428009   4.105   2.776   0.690
 6923SOL     OW28010   5.232   2.131   0.534
 6923SOL    HW228011   5.154   2.081   0.559
 6923SOL    HW328012   5.203   2.222   0.534
 6923SOL    MW428013   5.218   2.135   0.537
 6924SOL     OW28014   4.818   2.093   0.693
 6924SOL    HW228015   4.838   2.168   0.637
 6924SOL    HW328016   4.798   2.132   0.778
 6924SOL    MW428017   4.819   2.109   0.697
 6925SOL     OW28018   5.578   2.866   1.712
 6925SOL    HW228019   5.491   2.846   1.748
 6925SOL    HW328020   5.632   2.792   1.737
 6925SOL    MW428021   5.573   2.855   1.720
 6926SOL     OW28022   3.799   3.379   0.869
 6926SOL    HW228023   3.831   3.383   0.960
 6926SOL    HW328024   3.704   3.387   0.877
 6926SOL    MW428025   3.791   3.382   0.882
 6927SOL     OW28026   5.322   3.717   1.850
 6927SOL    HW228027   5.367   3.641   1.815
 6927SOL    HW328028   5.360   3.730   1.937
 6927SOL    MW428029   5.332   3.710   1.856
 6928SOL     OW28030   4.922   3.236   0.576
 6928SOL    HW228031   4.945   3.187   0.654
 6928SOL    HW328032   5.003   3.278   0.548
 6928SOL    MW428033   4.935   3.236   0.583
 6929SOL     OW28034   4.180   2.244   1.305
 6929SOL    HW228035   4.213   2.325   1.345
 6929SOL    HW328036   4.153   2.270   1.217
 6929SOL    MW428037   4.179   2.258   1.299
 6930SOL     OW28038   4.134   2.211   1.041
 6930SOL    HW228039   4.164   2.125   1.012
 6930SOL    HW328040   4.039   2.204   1.044
 6930SOL    MW428041   4.126   2.200   1.039
 6931SOL     OW28042   4.963   2.420   1.732
 6931SOL    HW228043   5.015   2.355   1.685
 6931SOL    HW328044   4.921   2.471   1.662
 6931SOL    MW428045   4.964   2.417   1.715
 6932SOL     OW28046   5.062   2.215   1.593
 6932SOL    HW228047   4.969   2.199   1.580
 6932SOL    HW328048   5.088   2.153   1.661
 6932SOL    MW428049   5.052   2.205   1.600
 6933SOL     OW28050   4.277   1.989   0.932
 6933SOL    HW228051   4.287   1.898   0.958
 6933SOL    HW328052   4.233   1.985   0.847
 6933SOL    MW428053   4.273   1.977   0.924
 6934SOL     OW28054   4.371   3.604   1.478
 6934SOL    HW228055   4.288   3.589   1.523
 6934SOL    HW328056   4.430   3.537   1.513
 6934SOL    MW428057   4.369   3.594   1.488
 6935SOL     OW28058   5.428   2.311   1.103
 6935SOL    HW228059   5.361   2.344   1.163
 6935SOL    HW328060   5.471   2.389   1.069
 6935SOL    MW428061   5.426   2.326   1.107
 6936SOL     OW28062   5.606   3.031   1.073
 6936SOL    HW228063   5.599   2.971   0.998
 6936SOL    HW328064   5.532   3.091   1.062
 6936SOL    MW428065   5.596   3.031   1.062
 6937SOL     OW28066   4.988   2.893   0.991
 6937SOL    HW228067   5.002   2.865   1.082
 6937SOL    HW328068   5.074   2.924   0.963
 6937SOL    MW428069   5.001   2.894   1.000
 6938SOL     OW28070   5.071   2.388   1.270
 6938SOL    HW228071   5.092   2.389   1.177
 6938SOL    HW328072   5.116   2.310   1.303
 6938SOL    MW428073   5.078   2.378   1.262
 6939SOL     OW28074   5.564   2.519   1.812
 6939SOL    HW228075   5.601   2.464   1.881
 6939SOL    HW328076   5.589   2.476   1.730
 6939SOL    MW428077   5.571   2.507   1.811
 6940SOL     OW28078   5.111   2.817   1.863
 6940SOL    HW228079   5.177   2.765   1.817
 6940SOL    HW328080   5.131   2.804   1.956
 6940SOL    MW428081   5.122   2.808   1.870
 6941SOL     OW28082   5.062   1.903   0.212
 6941SOL    HW228083   5.136   1.947   0.255
 6941SOL    HW328084   4.986   1.957   0.234
 6941SOL    MW428085   5.062   1.915   0.220
 6942SOL     OW28086   5.122   2.678   0.490
 6942SOL    HW228087   5.037   2.648   0.460
 6942SOL    HW328088   5.114   2.685   0.585
 6942SOL    MW428089   5.110   2.676   0.499
 6943SOL     OW28090   4.198   3.141   1.221
 6943SOL    HW228091   4.210   3.168   1.312
 6943SOL    HW328092   4.179   3.222   1.174
 6943SOL    MW428093   4.197   3.156   1.226
 6944SOL     OW28094   4.482   2.121   1.044
 6944SOL    HW228095   4.455   2.123   1.135
 6944SOL    HW328096   4.412   2.073   0.999
 6944SOL    MW428097   4.470   2.117   1.051
 6945SOL     OW28098   4.336   3.613   1.206
 6945SOL    HW228099   4.388   3.690   1.183
 6945SOL    HW328100   4.345   3.605   1.301
 6945SOL    MW428101   4.345   3.620   1.217
 6946SOL     OW28102   5.238   3.198   1.438
 6946SOL    HW228103   5.223   3.127   1.501
 6946SOL    HW328104   5.284   3.156   1.366
 6946SOL    MW428105   5.244   3.182   1.438
 6947SOL     OW28106   4.312   2.929   1.555
 6947SOL    HW228107   4.349   2.934   1.467
 6947SOL    HW328108   4.351   3.002   1.602
 6947SOL    MW428109   4.322   2.939   1.550
 6948SOL     OW28110   4.492   2.972   1.367
 6948SOL    HW228111   4.551   2.918   1.420
 6948SOL    HW328112   4.507   2.944   1.277
 6948SOL    MW428113   4.502   2.961   1.363
 6949SOL     OW28114   5.303   3.461   1.539
 6949SOL    HW228115   5.345   3.446   1.624
 6949SOL    HW328116   5.294   3.374   1.501
 6949SOL    MW428117   5.307   3.449   1.546
 6950SOL     OW28118   4.963   1.940   1.130
 6950SOL    HW228119   5.018   1.949   1.052
 6950SOL    HW328120   5.018   1.974   1.201
 6950SOL    MW428121   4.977   1.945   1.129
 6951SOL     OW28122   4.124   3.596   0.894
 6951SOL    HW228123   4.128   3.507   0.929
 6951SOL    HW328124   4.150   3.587   0.803
 6951SOL    MW428125   4.127   3.584   0.886
 6952SOL     OW28126   4.741   3.074   1.137
 6952SOL    HW228127   4.673   3.008   1.153
 6952SOL    HW328128   4.759   3.068   1.044
 6952SOL    MW428129   4.734   3.065   1.128
 6953SOL     OW28130   3.830   3.349   1.388
 6953SOL    HW228131   3.820   3.307   1.474
 6953SOL    HW328132   3.751   3.402   1.378
 6953SOL    MW428133   3.819   3.350   1.399
 6954SOL     OW28134   4.734   2.213   0.958
 6954SOL    HW228135   4.664   2.165   1.003
 6954SOL    HW328136   4.766   2.276   1.022
 6954SOL    MW428137   4.729   2.215   0.972
 6955SOL     OW28138   4.385   2.649   1.578
 6955SOL    HW228139   4.378   2.744   1.566
 6955SOL    HW328140   4.394   2.638   1.673
 6955SOL    MW428141   4.386   2.661   1.588
 6956SOL     OW28142   4.106   3.164   1.836
 6956SOL    HW228143   4.178   3.166   1.773
 6956SOL    HW328144   4.076   3.073   1.835
 6956SOL    MW428145   4.111   3.153   1.828
 6957SOL     OW28146   5.190   1.927   1.303
 6957SOL    HW228147   5.261   1.873   1.267
 6957SOL    HW328148   5.189   1.906   1.396
 6957SOL    MW428149   5.199   1.918   1.311
 6958SOL     OW28150   5.390   3.457   1.787
 6958SOL    HW228151   5.363   3.454   1.878
 6958SOL    HW328152   5.486   3.461   1.790
 6958SOL    MW428153   5.400   3.457   1.799
 6959SOL     OW28154   4.201   2.319   0.771
 6959SOL    HW228155   4.272   2.267   0.734
 6959SOL    HW328156   4.187   2.284   0.858
 6959SOL    MW428157   4.209   2.308   0.778
 6960SOL     OW28158   3.756   3.654   1.843
 6960SOL    HW228159   3.806   3.632   1.765
 6960SOL    HW328160   3.764   3.749   1.851
 6960SOL    MW428161   3.764   3.663   1.834
 6961SOL     OW28162   4.517   3.412   0.847
 6961SOL    HW228163   4.445   3.349   0.860
 6961SOL    HW328164   4.478   3.497   0.865
 6961SOL    MW428165   4.501   3.415   0.850
 6962SOL     OW28166   4.837   2.260   0.495
 6962SOL    HW228167   4.859   2.197   0.427
 6962SOL    HW328168   4.742   2.252   0.506
 6962SOL    MW428169   4.827   2.251   0.487
 6963SOL     OW28170   3.753   2.417   1.570
 6963SOL    HW228171   3.817   2.483   1.545
 6963SOL    HW328172   3.672   2.444   1.527
 6963SOL    MW428173   3.751   2.429   1.562
 6964SOL     OW28174   5.491   3.324   0.527
 6964SOL    HW228175   5.461   3.257   0.588
 6964SOL    HW328176   5.585   3.330   0.541
 6964SOL    MW428177   5.499   3.316   0.537
 6965SOL     OW28178   5.047   3.001   0.457
 6965SOL    HW228179   5.019   3.087   0.490
 6965SOL    HW328180   5.075   3.017   0.367
 6965SOL    MW428181   5.047   3.015   0.449
 6966SOL     OW28182   4.709   1.921   0.510
 6966SOL    HW228183   4.746   1.980   0.575
 6966SOL    HW328184   4.686   1.977   0.436
 6966SOL    MW428185   4.710   1.936   0.509
 6967SOL     OW28186   5.562   2.803   0.932
 6967SOL    HW228187   5.553   2.835   0.843
 6967SOL    HW328188   5.515   2.719   0.932
 6967SOL    MW428189   5.555   2.796   0.922
 6968SOL     OW28190   3.938   2.643   1.511
 6968SOL    HW228191   3.959   2.712   1.449
 6968SOL    HW328192   4.018   2.590   1.516
 6968SOL    MW428193   3.951   2.644   1.505
 6969SOL     OW28194   5.474   2.734   0.633
 6969SOL    HW228195   5.568   2.723   0.621
 6969SOL    HW328196   5.450   2.806   0.574
 6969SOL    MW428197   5.484   2.742   0.624
 6970SOL     OW28198   3.923   2.658   1.778
 6970SOL    HW228199   3.849   2.602   1.804
 6970SOL    HW328200   3.918   2.661   1.683
 6970SOL    MW428201   3.912   2.651   1.768
 6971SOL     OW28202   4.089   1.945   1.228
 6971SOL    HW228203   4.132   2.029   1.248
 6971SOL    HW328204   4.162   1.883   1.221
 6971SOL    MW428205   4.104   1.948   1.229
 6972SOL     OW28206   4.130   2.612   0.406
 6972SOL    HW228207   4.130   2.707   0.391
 6972SOL    HW328208   4.207   2.596   0.460
 6972SOL    MW428209   4.140   2.623   0.411
 6973SOL     OW28210   4.906   2.471   1.470
 6973SOL    HW228211   4.942   2.444   1.386
 6973SOL    HW328212   4.819   2.505   1.449
 6973SOL    MW428213   4.900   2.472   1.457
 6974SOL     OW28214   3.889   2.343   0.695
 6974SOL    HW228215   3.951   2.350   0.768
 6974SOL    HW328216   3.889   2.250   0.672
 6974SOL    MW428217   3.897   2.332   0.702
 6975SOL     OW28218   4.571   2.604   1.179
 6975SOL    HW228219   4.529   2.522   1.155
 6975SOL    HW328220   4.572   2.603   1.275
 6975SOL    MW428221   4.564   2.593   1.188
 6976SOL     OW28222   5.242   3.737   1.578
 6976SOL    HW228223   5.245   3.643   1.561
 6976SOL    HW328224   5.265   3.745   1.670
 6976SOL    MW428225   5.245   3.725   1.588
 6977SOL     OW28226   4.375   2.074   1.284
 6977SOL    HW228227   4.306   2.137   1.305
 6977SOL    HW328228   4.402   2.038   1.369
 6977SOL    MW428229   4.369   2.077   1.297
 6978SOL     OW28230   5.170   1.927   0.901
 6978SOL    HW228231   5.258   1.936   0.938
 6978SOL    HW328232   5.180   1.868   0.827
 6978SOL    MW428233   5.184   1.921   0.895
 6979SOL     OW28234   5.202   2.666   0.745
 6979SOL    HW228235   5.282   2.681   0.694
 6979SOL    HW328236   5.195   2.571   0.751
 6979SOL    MW428237   5.211   2.655   0.740
 6980SOL     OW28238   4.652   2.592   1.442
 6980SOL    HW228239   4.721   2.659   1.439
 6980SOL    HW328240   4.585   2.630   1.498
 6980SOL    MW428241   4.653   2.605   1.449
 6981SOL     OW28242   4.070   2.892   1.690
 6981SOL    HW228243   4.024   2.808   1.692
 6981SOL    HW328244   4.127   2.886   1.614
 6981SOL    MW428245   4.072   2.880   1.682
 6982SOL     OW28246   5.187   2.535   0.011
 6982SOL    HW228247   5.115   2.511  -0.047
 6982SOL    HW328248   5.253   2.572  -0.047
 6982SOL    MW428249   5.186   2.537  -0.004
 6983SOL     OW28250   4.321   3.267   0.691
 6983SOL    HW228251   4.386   3.200   0.712
 6983SOL    HW328252   4.373   3.344   0.668
 6983SOL    MW428253   4.336   3.269   0.690
 6984SOL     OW28254   4.582   2.432   0.821
 6984SOL    HW228255   4.522   2.450   0.893
 6984SOL    HW328256   4.616   2.344   0.840
 6984SOL    MW428257   4.578   2.422   0.834
 6985SOL     OW28258   5.523   1.931   1.490
 6985SOL    HW228259   5.444   1.977   1.518
 6985SOL    HW328260   5.558   1.985   1.419
 6985SOL    MW428261   5.517   1.944   1.484
 6986SOL     OW28262   4.807   3.015   0.840
 6986SOL    HW228263   4.899   2.996   0.858
 6986SOL    HW328264   4.780   2.945   0.780
 6986SOL    MW428265   4.815   3.003   0.834
 6987SOL     OW28266   5.081   3.253   0.936
 6987SOL    HW228267   5.054   3.337   0.901
 6987SOL    HW328268   5.041   3.248   1.023
 6987SOL    MW428269   5.074   3.262   0.942
 6988SOL     OW28270   5.000   3.201   1.204
 6988SOL    HW228271   5.011   3.168   1.293
 6988SOL    HW328272   4.919   3.160   1.173
 6988SOL    MW428273   4.990   3.193   1.210
 6989SOL     OW28274   4.013   2.559   0.974
 6989SOL    HW228275   3.963   2.558   1.055
 6989SOL    HW328276   4.033   2.651   0.958
 6989SOL    MW428277   4.009   2.571   0.982
 6990SOL     OW28278   5.080   3.323   1.736
 6990SOL    HW228279   5.080   3.417   1.752
 6990SOL    HW328280   5.125   3.313   1.652
 6990SOL    MW428281   5.086   3.333   1.727
 6991SOL     OW28282   4.608   2.604   0.411
 6991SOL    HW228283   4.588   2.590   0.318
 6991SOL    HW328284   4.701   2.583   0.418
 6991SOL    MW428285   4.618   2.599   0.400
 6992SOL     OW28286   3.935   2.227   1.715
 6992SOL    HW228287   3.892   2.286   1.652
 6992SOL    HW328288   4.003   2.282   1.755
 6992SOL    MW428289   3.939   2.242   1.712
 6993SOL     OW28290   5.047   2.847   1.260
 6993SOL    HW228291   5.110   2.844   1.333
 6993SOL    HW328292   4.963   2.865   1.302
 6993SOL    MW428293   5.043   2.849   1.275
 6994SOL     OW28294   4.591   3.562   0.449
 6994SOL    HW228295   4.649   3.633   0.476
 6994SOL    HW328296   4.614   3.490   0.507
 6994SOL    MW428297   4.602   3.562   0.460
 6995SOL     OW28298   5.386   2.024   1.039
 6995SOL    HW228299   5.431   1.942   1.058
 6995SOL    HW328300   5.406   2.080   1.115
 6995SOL    MW428301   5.396   2.020   1.051
 6996SOL     OW28302   3.834   1.867   1.138
 6996SOL    HW228303   3.825   1.868   1.043
 6996SOL    HW328304   3.928   1.879   1.153
 6996SOL    MW428305   3.846   1.870   1.129
 6997SOL     OW28306   5.471   3.060   0.758
 6997SOL    HW228307   5.450   3.006   0.681
 6997SOL    HW328308   5.567   3.058   0.762
 6997SOL    MW428309   5.480   3.053   0.747
 6998SOL     OW28310   4.163   3.205   1.501
 6998SOL    HW228311   4.084   3.155   1.524
 6998SOL    HW328312   4.233   3.164   1.551
 6998SOL    MW428313   4.161   3.193   1.511
 6999SOL     OW28314   5.171   2.491   1.020
 6999SOL    HW228315   5.094   2.537   0.986
 6999SOL    HW328316   5.228   2.560   1.054
 6999SOL    MW428317   5.168   2.506   1.020
 7000SOL     OW28318   3.837   3.350   0.222
 7000SOL    HW228319   3.854   3.434   0.264
 7000SOL    HW328320   3.872   3.359   0.134
 7000SOL    MW428321   3.842   3.363   0.216
 7001SOL     OW28322   5.109   3.439   0.439
 7001SOL    HW228323   5.172   3.429   0.368
 7001SOL    HW328324   5.026   3.459   0.394
 7001SOL    MW428325   5.106   3.440   0.424
 7002SOL     OW28326   5.472   2.707   2.125
 7002SOL    HW228327   5.513   2.649   2.190
 7002SOL    HW328328   5.379   2.699   2.142
 7002SOL    MW428329   5.466   2.699   2.135
 7003SOL     OW28330   5.338   2.639   3.120
 7003SOL    HW228331   5.293   2.706   3.171
 7003SOL    HW328332   5.426   2.675   3.106
 7003SOL    MW428333   5.344   2.652   3.124
 7004SOL     OW28334   4.266   2.890   2.354
 7004SOL    HW228335   4.356   2.865   2.338
 7004SOL    HW328336   4.262   2.983   2.331
 7004SOL    MW428337   4.278   2.899   2.349
 7005SOL     OW28338   5.382   3.593   2.496
 7005SOL    HW228339   5.394   3.539   2.574
 7005SOL    HW328340   5.419   3.541   2.425
 7005SOL    MW428341   5.388   3.578   2.497
 7006SOL     OW28342   4.761   3.478   3.497
 7006SOL    HW228343   4.802   3.514   3.418
 7006SOL    HW328344   4.796   3.389   3.504
 7006SOL    MW428345   4.772   3.471   3.488
 7007SOL     OW28346   5.318   3.033   3.101
 7007SOL    HW228347   5.239   2.998   3.059
 7007SOL    HW328348   5.345   3.105   3.045
 7007SOL    MW428349   5.311   3.038   3.088
 7008SOL     OW28350   4.550   2.346   2.367
 7008SOL    HW228351   4.525   2.434   2.395
 7008SOL    HW328352   4.547   2.349   2.271
 7008SOL    MW428353   4.546   2.358   2.359
 7009SOL     OW28354   3.992   2.374   2.295
 7009SOL    HW228355   4.024   2.462   2.277
 7009SOL    HW328356   3.980   2.372   2.390
 7009SOL    MW428357   3.995   2.386   2.307
 7010SOL     OW28358   4.070   2.787   3.196
 7010SOL    HW228359   4.133   2.734   3.147
 7010SOL    HW328360   4.051   2.861   3.139
 7010SOL    MW428361   4.076   2.789   3.183
 7011SOL     OW28362   4.391   2.129   2.382
 7011SOL    HW228363   4.449   2.205   2.384
 7011SOL    HW328364   4.326   2.150   2.315
 7011SOL    MW428365   4.390   2.141   2.373
 7012SOL     OW28366   4.478   3.056   2.557
 7012SOL    HW228367   4.558   3.059   2.609
 7012SOL    HW328368   4.506   3.023   2.471
 7012SOL    MW428369   4.492   3.052   2.552
 7013SOL     OW28370   4.503   3.397   3.460
 7013SOL    HW228371   4.587   3.423   3.499
 7013SOL    HW328372   4.527   3.341   3.386
 7013SOL    MW428373   4.517   3.393   3.455
 7014SOL     OW28374   4.255   2.560   2.548
 7014SOL    HW228375   4.240   2.480   2.599
 7014SOL    HW328376   4.337   2.595   2.582
 7014SOL    MW428377   4.263   2.552   2.560
 7015SOL     OW28378   4.592   3.246   3.233
 7015SOL    HW228379   4.556   3.312   3.173
 7015SOL    HW328380   4.520   3.184   3.246
 7015SOL    MW428381   4.578   3.246   3.227
 7016SOL     OW28382   4.397   2.386   2.925
 7016SOL    HW228383   4.303   2.382   2.943
 7016SOL    HW328384   4.427   2.295   2.934
 7016SOL    MW428385   4.388   2.374   2.928
 7017SOL     OW28386   4.143   2.800   2.829
 7017SOL    HW228387   4.098   2.807   2.745
 7017SOL    HW328388   4.123   2.883   2.873
 7017SOL    MW428389   4.135   2.812   2.823
 7018SOL     OW28390   3.840   3.646   2.704
 7018SOL    HW228391   3.929   3.638   2.739
 7018SOL    HW328392   3.804   3.558   2.709
 7018SOL    MW428393   3.847   3.633   2.709
 7019SOL     OW28394   5.105   3.038   2.073
 7019SOL    HW228395   5.023   3.074   2.039
 7019SOL    HW328396   5.173   3.081   2.022
 7019SOL    MW428397   5.103   3.048   2.061
 7020SOL     OW28398   4.104   3.173   2.739
 7020SOL    HW228399   4.080   3.226   2.815
 7020SOL    HW328400   4.160   3.231   2.687
 7020SOL    MW428401   4.108   3.188   2.742
 7021SOL     OW28402   4.666   2.817   2.549
 7021SOL    HW228403   4.580   2.804   2.589
 7021SOL    HW328404   4.719   2.744   2.581
 7021SOL    MW428405   4.662   2.806   2.558
 7022SOL     OW28406   4.074   3.469   3.334
 7022SOL    HW228407   3.982   3.445   3.319
 7022SOL    HW328408   4.118   3.386   3.351
 7022SOL    MW428409   4.068   3.454   3.333
 7023SOL     OW28410   4.657   3.179   2.266
 7023SOL    HW228411   4.634   3.241   2.334
 7023SOL    HW328412   4.614   3.097   2.292
 7023SOL    MW428413   4.649   3.175   2.277
 7024SOL     OW28414   5.530   2.180   2.722
 7024SOL    HW228415   5.467   2.160   2.791
 7024SOL    HW328416   5.520   2.109   2.659
 7024SOL    MW428417   5.520   2.167   2.723
 7025SOL     OW28418   4.154   2.152   2.234
 7025SOL    HW228419   4.128   2.114   2.150
 7025SOL    HW328420   4.091   2.222   2.250
 7025SOL    MW428421   4.143   2.155   2.225
 7026SOL     OW28422   3.989   3.113   2.271
 7026SOL    HW228423   3.937   3.181   2.227
 7026SOL    HW328424   3.986   3.039   2.211
 7026SOL    MW428425   3.981   3.112   2.258
 7027SOL     OW28426   4.651   3.576   2.049
 7027SOL    HW228427   4.606   3.592   2.132
 7027SOL    HW328428   4.582   3.541   1.991
 7027SOL    MW428429   4.637   3.573   2.051
 7028SOL     OW28430   5.586   2.349   2.024
 7028SOL    HW228431   5.495   2.351   2.052
 7028SOL    HW328432   5.631   2.411   2.082
 7028SOL    MW428433   5.579   2.357   2.034
 7029SOL     OW28434   5.331   2.952   2.374
 7029SOL    HW228435   5.241   2.952   2.409
 7029SOL    HW328436   5.324   2.998   2.291
 7029SOL    MW428437   5.318   2.958   2.368
 7030SOL     OW28438   5.131   2.587   3.446
 7030SOL    HW228439   5.200   2.525   3.423
 7030SOL    HW328440   5.056   2.561   3.393
 7030SOL    MW428441   5.131   2.574   3.437
 7031SOL     OW28442   3.872   3.467   2.998
 7031SOL    HW228443   3.855   3.413   3.075
 7031SOL    HW328444   3.860   3.557   3.028
 7031SOL    MW428445   3.869   3.471   3.012
 7032SOL     OW28446   4.867   2.974   3.438
 7032SOL    HW228447   4.852   3.067   3.423
 7032SOL    HW328448   4.962   2.964   3.438
 7032SOL    MW428449   4.876   2.984   3.435
 7033SOL     OW28450   4.663   2.398   3.639
 7033SOL    HW228451   4.753   2.399   3.606
 7033SOL    HW328452   4.622   2.323   3.597
 7033SOL    MW428453   4.669   2.388   3.630
 7034SOL     OW28454   5.238   2.930   2.766
 7034SOL    HW228455   5.241   2.864   2.697
 7034SOL    HW328456   5.323   2.973   2.762
 7034SOL    MW428457   5.250   2.926   2.757
 7035SOL     OW28458   4.858   2.533   2.335
 7035SOL    HW228459   4.884   2.557   2.246
 7035SOL    HW328460   4.840   2.440   2.331
 7035SOL    MW428461   4.860   2.525   2.322
 7036SOL     OW28462   5.523   3.153   2.186
 7036SOL    HW228463   5.479   3.194   2.261
 7036SOL    HW328464   5.580   3.221   2.151
 7036SOL    MW428465   5.525   3.167   2.191
 7037SOL     OW28466   4.443   2.202   3.589
 7037SOL    HW228467   4.453   2.128   3.529
 7037SOL    HW328468   4.479   2.171   3.672
 7037SOL    MW428469   4.449   2.188   3.591
 7038SOL     OW28470   4.179   3.569   2.504
 7038SOL    HW228471   4.211   3.657   2.482
 7038SOL    HW328472   4.132   3.541   2.426
 7038SOL    MW428473   4.178   3.577   2.491
 7039SOL     OW28474   5.563   1.931   2.553
 7039SOL    HW228475   5.617   1.882   2.615
 7039SOL    HW328476   5.506   1.865   2.514
 7039SOL    MW428477   5.563   1.915   2.555
 7040SOL     OW28478   3.895   3.629   2.081
 7040SOL    HW228479   3.924   3.719   2.073
 7040SOL    HW328480   3.845   3.612   2.002
 7040SOL    MW428481   3.893   3.637   2.070
 7041SOL     OW28482   4.682   1.884   2.966
 7041SOL    HW228483   4.641   1.962   2.928
 7041SOL    HW328484   4.776   1.902   2.961
 7041SOL    MW428485   4.688   1.896   2.961
 7042SOL     OW28486   5.299   3.437   2.052
 7042SOL    HW228487   5.347   3.506   2.098
 7042SOL    HW328488   5.220   3.481   2.021
 7042SOL    MW428489   5.294   3.451   2.055
 7043SOL     OW28490   4.697   2.562   1.996
 7043SOL    HW228491   4.699   2.509   1.917
 7043SOL    HW328492   4.785   2.599   2.002
 7043SOL    MW428493   4.709   2.561   1.985
 7044SOL     OW28494   5.311   2.488   2.332
 7044SOL    HW228495   5.350   2.488   2.419
 7044SOL    HW328496   5.252   2.564   2.332
 7044SOL    MW428497   5.308   2.499   2.343
 7045SOL     OW28498   4.628   2.855   3.461
 7045SOL    HW228499   4.605   2.835   3.551
 7045SOL    HW328500   4.713   2.899   3.466
 7045SOL    MW428501   4.635   2.858   3.473
 7046SOL     OW28502   4.708   1.992   3.221
 7046SOL    HW228503   4.714   1.954   3.134
 7046SOL    HW328504   4.697   2.086   3.206
 7046SOL    MW428505   4.709   2.000   3.209
 7047SOL     OW28506   4.797   2.481   3.055
 7047SOL    HW228507   4.872   2.510   3.002
 7047SOL    HW328508   4.729   2.546   3.039
 7047SOL    MW428509   4.798   2.493   3.045
 7048SOL     OW28510   5.347   2.449   3.332
 7048SOL    HW228511   5.328   2.358   3.311
 7048SOL    HW328512   5.325   2.498   3.253
 7048SOL    MW428513   5.342   2.442   3.319
 7049SOL     OW28514   5.489   3.543   3.236
 7049SOL    HW228515   5.417   3.505   3.287
 7049SOL    HW328516   5.506   3.628   3.277
 7049SOL    MW428517   5.483   3.548   3.248
 7050SOL     OW28518   4.794   2.187   3.438
 7050SOL    HW228519   4.760   2.226   3.357
 7050SOL    HW328520   4.772   2.095   3.431
 7050SOL    MW428521   4.787   2.180   3.428
 7051SOL     OW28522   5.203   3.001   3.514
 7051SOL    HW228523   5.285   3.042   3.544
 7051SOL    HW328524   5.166   2.963   3.594
 7051SOL    MW428525   5.209   3.002   3.529
 7052SOL     OW28526   5.498   2.374   2.498
 7052SOL    HW228527   5.587   2.343   2.515
 7052SOL    HW328528   5.441   2.314   2.546
 7052SOL    MW428529   5.501   2.362   2.507
 7053SOL     OW28530   3.924   2.088   2.527
 7053SOL    HW228531   3.915   2.028   2.453
 7053SOL    HW328532   3.857   2.059   2.590
 7053SOL    MW428533   3.914   2.075   2.525
 7054SOL     OW28534   4.867   3.181   2.088
 7054SOL    HW228535   4.817   3.183   2.170
 7054SOL    HW328536   4.801   3.199   2.020
 7054SOL    MW428537   4.853   3.183   2.090
 7055SOL     OW28538   3.871   2.261   2.890
 7055SOL    HW228539   3.843   2.352   2.899
 7055SOL    HW328540   3.808   2.222   2.829
 7055SOL    MW428541   3.858   2.267   2.884
 7056SOL     OW28542   4.330   3.599   2.196
 7056SOL    HW228543   4.251   3.557   2.229
 7056SOL    HW328544   4.396   3.582   2.263
 7056SOL    MW428545   4.329   3.591   2.209
 7057SOL     OW28546   5.458   3.119   3.593
 7057SOL    HW228547   5.508   3.045   3.625
 7057SOL    HW328548   5.404   3.146   3.668
 7057SOL    MW428549   5.458   3.113   3.606
 7058SOL     OW28550   4.466   3.014   1.903
 7058SOL    HW228551   4.388   2.960   1.890
 7058SOL    HW328552   4.437   3.087   1.956
 7058SOL    MW428553   4.452   3.016   1.908
 7059SOL     OW28554   5.592   2.754   3.095
 7059SOL    HW228555   5.608   2.792   3.008
 7059SOL    HW328556   5.626   2.820   3.156
 7059SOL    MW428557   5.599   2.767   3.091
 7060SOL     OW28558   5.384   3.463   2.764
 7060SOL    HW228559   5.413   3.530   2.825
 7060SOL    HW328560   5.365   3.387   2.819
 7060SOL    MW428561   5.386   3.463   2.779
 7061SOL     OW28562   5.047   3.530   1.971
 7061SOL    HW228563   4.973   3.493   2.021
 7061SOL    HW328564   5.055   3.620   2.004
 7061SOL    MW428565   5.038   3.537   1.983
 7062SOL     OW28566   3.855   2.536   3.060
 7062SOL    HW228567   3.917   2.566   3.126
 7062SOL    HW328568   3.789   2.605   3.054
 7062SOL    MW428569   3.854   2.549   3.067
 7063SOL     OW28570   5.271   3.204   1.913
 7063SOL    HW228571   5.218   3.253   1.849
 7063SOL    HW328572   5.302   3.270   1.974
 7063SOL    MW428573   5.269   3.218   1.911
 7064SOL     OW28574   4.496   2.093   1.968
 7064SOL    HW228575   4.444   2.013   1.956
 7064SOL    HW328576   4.583   2.070   1.936
 7064SOL    MW428577   4.499   2.079   1.962
 7065SOL     OW28578   3.950   3.645   3.512
 7065SOL    HW228579   3.924   3.713   3.450
 7065SOL    HW328580   3.998   3.582   3.460
 7065SOL    MW428581   3.952   3.645   3.498
 7066SOL     OW28582   4.002   2.964   3.019
 7066SOL    HW228583   4.055   3.039   3.044
 7066SOL    HW328584   3.921   3.002   2.985
 7066SOL    MW428585   3.998   2.979   3.019
 7067SOL     OW28586   4.542   2.868   3.007
 7067SOL    HW228587   4.570   2.777   3.019
 7067SOL    HW328588   4.471   2.862   2.943
 7067SOL    MW428589   4.535   2.856   3.002
 7068SOL     OW28590   3.857   2.733   2.425
 7068SOL    HW228591   3.948   2.748   2.452
 7068SOL    HW328592   3.860   2.654   2.371
 7068SOL    MW428593   3.869   2.725   2.423
 7069SOL     OW28594   4.093   2.441   3.679
 7069SOL    HW228595   4.040   2.521   3.686
 7069SOL    HW328596   4.163   2.453   3.744
 7069SOL    MW428597   4.095   2.454   3.687
 7070SOL     OW28598   4.479   1.991   3.386
 7070SOL    HW228599   4.456   1.899   3.388
 7070SOL    HW328600   4.565   1.993   3.343
 7070SOL    MW428601   4.486   1.981   3.382
 7071SOL     OW28602   4.163   2.515   3.425
 7071SOL    HW228603   4.243   2.565   3.411
 7071SOL    HW328604   4.154   2.509   3.520
 7071SOL    MW428605   4.172   2.521   3.435
 7072SOL     OW28606   4.484   3.665   2.799
 7072SOL    HW228607   4.573   3.680   2.829
 7072SOL    HW328608   4.479   3.712   2.715
 7072SOL    MW428609   4.494   3.673   2.792
 7073SOL     OW28610   5.140   2.040   3.696
 7073SOL    HW228611   5.196   1.967   3.722
 7073SOL    HW328612   5.110   2.078   3.778
 7073SOL    MW428613   5.144   2.035   3.709
 7074SOL     OW28614   3.865   3.345   2.464
 7074SOL    HW228615   3.837   3.384   2.546
 7074SOL    HW328616   3.885   3.254   2.486
 7074SOL    MW428617   3.863   3.337   2.477
 7075SOL     OW28618   4.698   3.388   2.499
 7075SOL    HW228619   4.781   3.342   2.483
 7075SOL    HW328620   4.688   3.387   2.595
 7075SOL    MW428621   4.708   3.381   2.509
 7076SOL     OW28622   5.530   2.533   2.813
 7076SOL    HW228623   5.619   2.563   2.795
 7076SOL    HW328624   5.510   2.473   2.742
 7076SOL    MW428625   5.539   2.530   2.802
 7077SOL     OW28626   5.381   2.712   3.693
 7077SOL    HW228627   5.436   2.636   3.674
 7077SOL    HW328628   5.383   2.720   3.788
 7077SOL    MW428629   5.389   2.703   3.701
 7078SOL     OW28630   4.431   3.445   1.904
 7078SOL    HW228631   4.371   3.514   1.874
 7078SOL    HW328632   4.376   3.387   1.957
 7078SOL    MW428633   4.415   3.447   1.906
 7079SOL     OW28634   4.869   2.090   2.127
 7079SOL    HW228635   4.802   2.066   2.064
 7079SOL    HW328636   4.934   2.139   2.076
 7079SOL    MW428637   4.869   2.092   2.112
 7080SOL     OW28638   4.676   2.274   3.212
 7080SOL    HW228639   4.595   2.315   3.240
 7080SOL    HW328640   4.723   2.342   3.164
 7080SOL    MW428641   4.671   2.289   3.210
 7081SOL     OW28642   4.936   2.612   2.835
 7081SOL    HW228643   4.949   2.706   2.845
 7081SOL    HW328644   4.897   2.602   2.749
 7081SOL    MW428645   4.932   2.623   2.825
 7082SOL     OW28646   4.388   2.807   2.639
 7082SOL    HW228647   4.299   2.798   2.672
 7082SOL    HW328648   4.392   2.897   2.607
 7082SOL    MW428649   4.377   2.818   2.639
 7083SOL     OW28650   5.187   2.390   2.634
 7083SOL    HW228651   5.132   2.311   2.633
 7083SOL    HW328652   5.169   2.431   2.718
 7083SOL    MW428653   5.177   2.385   2.643
 7084SOL     OW28654   4.158   2.077   3.451
 7084SOL    HW228655   4.079   2.095   3.503
 7084SOL    HW328656   4.153   2.139   3.378
 7084SOL    MW428657   4.148   2.087   3.448
 7085SOL     OW28658   4.806   2.594   2.591
 7085SOL    HW228659   4.743   2.526   2.615
 7085SOL    HW328660   4.826   2.575   2.499
 7085SOL    MW428661   4.800   2.581   2.583
 7086SOL     OW28662   4.062   3.489   2.293
 7086SOL    HW228663   4.023   3.536   2.219
 7086SOL    HW328664   3.996   3.424   2.318
 7086SOL    MW428665   4.049   3.487   2.287
 7087SOL     OW28666   4.554   2.898   2.317
 7087SOL    HW228667   4.556   2.872   2.224
 7087SOL    HW328668   4.612   2.835   2.360
 7087SOL    MW428669   4.562   2.887   2.311
 7088SOL     OW28670   5.107   3.458   3.089
 7088SOL    HW228671   5.032   3.504   3.127
 7088SOL    HW328672   5.089   3.365   3.106
 7088SOL    MW428673   5.096   3.452   3.097
 7089SOL     OW28674   5.111   3.666   2.519
 7089SOL    HW228675   5.054   3.619   2.458
 7089SOL    HW328676   5.197   3.627   2.506
 7089SOL    MW428677   5.114   3.657   2.509
 7090SOL     OW28678   5.064   2.142   2.650
 7090SOL    HW228679   5.092   2.074   2.711
 7090SOL    HW328680   4.978   2.113   2.620
 7090SOL    MW428681   5.057   2.129   2.654
 7091SOL     OW28682   3.869   3.076   2.584
 7091SOL    HW228683   3.933   3.108   2.647
 7091SOL    HW328684   3.918   3.012   2.532
 7091SOL    MW428685   3.884   3.072   2.585
 7092SOL     OW28686   4.369   3.152   3.566
 7092SOL    HW228687   4.417   3.235   3.553
 7092SOL    HW328688   4.426   3.100   3.622
 7092SOL    MW428689   4.383   3.156   3.572
 7093SOL     OW28690   3.945   3.394   3.706
 7093SOL    HW228691   4.001   3.318   3.721
 7093SOL    HW328692   3.894   3.372   3.628
 7093SOL    MW428693   3.945   3.381   3.697
 7094SOL     OW28694   5.044   2.246   1.985
 7094SOL    HW228695   5.017   2.312   1.921
 7094SOL    HW328696   5.114   2.289   2.035
 7094SOL    MW428697   5.049   2.259   1.982
 7095SOL     OW28698   4.712   1.951   1.922
 7095SOL    HW228699   4.768   1.943   1.844
 7095SOL    HW328700   4.689   1.861   1.944
 7095SOL    MW428701   4.717   1.938   1.915
 7096SOL     OW28702   5.217   2.802   2.127
 7096SOL    HW228703   5.184   2.891   2.117
 7096SOL    HW328704   5.182   2.773   2.212
 7096SOL    MW428705   5.207   2.811   2.138
 7097SOL     OW28706   4.830   3.231   3.315
 7097SOL    HW228707   4.741   3.237   3.283
 7097SOL    HW328708   4.874   3.310   3.283
 7097SOL    MW428709   4.825   3.241   3.307
 7098SOL     OW28710   4.123   1.899   3.657
 7098SOL    HW228711   4.051   1.864   3.605
 7098SOL    HW328712   4.181   1.940   3.592
 7098SOL    MW428713   4.121   1.900   3.642
 7099SOL     OW28714   4.147   3.389   2.956
 7099SOL    HW228715   4.192   3.451   3.013
 7099SOL    HW328716   4.054   3.408   2.969
 7099SOL    MW428717   4.140   3.399   2.963
 7100SOL     OW28718   5.587   2.918   3.310
 7100SOL    HW228719   5.502   2.931   3.269
 7100SOL    HW328720   5.567   2.882   3.397
 7100SOL    MW428721   5.574   2.914   3.315
 7101SOL     OW28722   4.569   3.457   3.064
 7101SOL    HW228723   4.593   3.446   2.973
 7101SOL    HW328724   4.492   3.514   3.062
 7101SOL    MW428725   4.561   3.462   3.053
 7102SOL     OW28726   4.211   2.840   1.919
 7102SOL    HW228727   4.134   2.853   1.975
 7102SOL    HW328728   4.175   2.804   1.838
 7102SOL    MW428729   4.197   2.836   1.916
 7103SOL     OW28730   4.864   2.813   2.162
 7103SOL    HW228731   4.774   2.834   2.137
 7103SOL    HW328732   4.891   2.886   2.218
 7103SOL    MW428733   4.856   2.825   2.165
 7104SOL     OW28734   4.364   3.162   2.854
 7104SOL    HW228735   4.357   3.141   2.948
 7104SOL    HW328736   4.282   3.130   2.817
 7104SOL    MW428737   4.352   3.156   2.861
 7105SOL     OW28738   5.228   2.172   3.256
 7105SOL    HW228739   5.175   2.174   3.336
 7105SOL    HW328740   5.213   2.085   3.219
 7105SOL    MW428741   5.220   2.162   3.261
 7106SOL     OW28742   5.564   2.096   3.129
 7106SOL    HW228743   5.545   2.163   3.064
 7106SOL    HW328744   5.621   2.034   3.084
 7106SOL    MW428745   5.568   2.097   3.115
 7107SOL     OW28746   3.810   3.254   3.517
 7107SOL    HW228747   3.854   3.187   3.463
 7107SOL    HW328748   3.725   3.216   3.537
 7107SOL    MW428749   3.805   3.240   3.513
 7108SOL     OW28750   4.493   1.929   2.569
 7108SOL    HW228751   4.422   1.990   2.551
 7108SOL    HW328752   4.544   1.926   2.488
 7108SOL    MW428753   4.489   1.935   2.556
 7109SOL     OW28754   4.251   3.169   2.318
 7109SOL    HW228755   4.244   3.201   2.408
 7109SOL    HW328756   4.161   3.153   2.290
 7109SOL    MW428757   4.239   3.171   2.325
 7110SOL     OW28758   4.846   3.562   3.227
 7110SOL    HW228759   4.766   3.547   3.177
 7110SOL    HW328760   4.853   3.657   3.234
 7110SOL    MW428761   4.837   3.573   3.221
 7111SOL     OW28762   4.960   3.527   2.717
 7111SOL    HW228763   5.007   3.600   2.676
 7111SOL    HW328764   4.881   3.566   2.753
 7111SOL    MW428765   4.955   3.542   2.716
 7112SOL     OW28766   5.368   3.622   2.992
 7112SOL    HW228767   5.411   3.592   3.072
 7112SOL    HW328768   5.287   3.570   2.989
 7112SOL    MW428769   5.363   3.611   3.002
 7113SOL     OW28770   4.453   2.586   3.699
 7113SOL    HW228771   4.523   2.528   3.671
 7113SOL    HW328772   4.396   2.531   3.754
 7113SOL    MW428773   4.455   2.573   3.703
 7114SOL     OW28774   5.240   2.798   3.332
 7114SOL    HW228775   5.245   2.851   3.412
 7114SOL    HW328776   5.202   2.715   3.360
 7114SOL    MW428777   5.236   2.793   3.347
 7115SOL     OW28778   4.880   1.933   3.578
 7115SOL    HW228779   4.875   1.840   3.559
 7115SOL    HW328780   4.963   1.944   3.624
 7115SOL    MW428781   4.888   1.922   3.582
 7116SOL     OW28782   4.254   2.453   2.032
 7116SOL    HW228783   4.220   2.509   2.102
 7116SOL    HW328784   4.325   2.403   2.072
 7116SOL    MW428785   4.260   2.454   2.046
 7117SOL     OW28786   5.350   3.204   2.854
 7117SOL    HW228787   5.385   3.186   2.767
 7117SOL    HW328788   5.255   3.205   2.841
 7117SOL    MW428789   5.342   3.201   2.841
 7118SOL     OW28790   4.779   2.852   3.223
 7118SOL    HW228791   4.822   2.887   3.301
 7118SOL    HW328792   4.762   2.929   3.169
 7118SOL    MW428793   4.782   2.867   3.226
 7119SOL     OW28794   5.310   2.339   2.096
 7119SOL    HW228795   5.302   2.410   2.033
 7119SOL    HW328796   5.328   2.383   2.179
 7119SOL    MW428797   5.311   2.353   2.098
 7120SOL     OW28798   4.170   1.994   2.525
 7120SOL    HW228799   4.220   2.037   2.456
 7120SOL    HW328800   4.085   2.038   2.525
 7120SOL    MW428801   4.167   2.007   2.516
 7121SOL     OW28802   3.929   3.056   3.385
 7121SOL    HW228803   3.957   3.009   3.463
 7121SOL    HW328804   3.850   3.011   3.356
 7121SOL    MW428805   3.922   3.045   3.391
 7122SOL     OW28806   4.437   2.383   3.352
 7122SOL    HW228807   4.409   2.471   3.376
 7122SOL    HW328808   4.406   2.327   3.423
 7122SOL    MW428809   4.429   2.386   3.364
 7123SOL     OW28810   4.979   2.601   2.071
 7123SOL    HW228811   5.026   2.619   1.990
 7123SOL    HW328812   4.945   2.685   2.099
 7123SOL    MW428813   4.981   2.615   2.064
 7124SOL     OW28814   4.092   2.779   2.565
 7124SOL    HW228815   4.150   2.835   2.513
 7124SOL    HW328816   4.136   2.694   2.567
 7124SOL    MW428817   4.105   2.776   2.558
 7125SOL     OW28818   5.232   2.131   2.402
 7125SOL    HW228819   5.154   2.081   2.427
 7125SOL    HW328820   5.203   2.222   2.402
 7125SOL    MW428821   5.218   2.135   2.405
 7126SOL     OW28822   4.818   2.093   2.561
 7126SOL    HW228823   4.838   2.168   2.505
 7126SOL    HW328824   4.798   2.132   2.646
 7126SOL    MW428825   4.819   2.109   2.565
 7127SOL     OW28826   4.714   3.343   1.893
 7127SOL    HW228827   4.741   3.421   1.845
 7127SOL    HW328828   4.621   3.358   1.912
 7127SOL    MW428829   4.705   3.356   1.889
 7128SOL     OW28830   5.578   2.866   3.580
 7128SOL    HW228831   5.491   2.846   3.616
 7128SOL    HW328832   5.632   2.792   3.605
 7128SOL    MW428833   5.573   2.855   3.588
 7129SOL     OW28834   3.799   3.379   2.737
 7129SOL    HW228835   3.831   3.383   2.828
 7129SOL    HW328836   3.704   3.387   2.745
 7129SOL    MW428837   3.791   3.382   2.750
 7130SOL     OW28838   3.754   2.505   2.284
 7130SOL    HW228839   3.694   2.477   2.354
 7130SOL    HW328840   3.828   2.445   2.290
 7130SOL    MW428841   3.756   2.494   2.293
 7131SOL     OW28842   5.322   3.717   3.718
 7131SOL    HW228843   5.367   3.641   3.683
 7131SOL    HW328844   5.360   3.730   3.805
 7131SOL    MW428845   5.332   3.710   3.724
 7132SOL     OW28846   4.922   3.236   2.444
 7132SOL    HW228847   4.945   3.187   2.522
 7132SOL    HW328848   5.003   3.278   2.416
 7132SOL    MW428849   4.935   3.236   2.451
 7133SOL     OW28850   4.180   2.244   3.173
 7133SOL    HW228851   4.213   2.325   3.213
 7133SOL    HW328852   4.153   2.270   3.085
 7133SOL    MW428853   4.179   2.258   3.167
 7134SOL     OW28854   4.134   2.211   2.909
 7134SOL    HW228855   4.164   2.125   2.880
 7134SOL    HW328856   4.039   2.204   2.912
 7134SOL    MW428857   4.126   2.200   2.907
 7135SOL     OW28858   4.963   2.420   3.600
 7135SOL    HW228859   5.015   2.355   3.553
 7135SOL    HW328860   4.921   2.471   3.530
 7135SOL    MW428861   4.964   2.417   3.583
 7136SOL     OW28862   5.062   2.215   3.461
 7136SOL    HW228863   4.969   2.199   3.448
 7136SOL    HW328864   5.088   2.153   3.529
 7136SOL    MW428865   5.052   2.205   3.468
 7137SOL     OW28866   4.277   1.989   2.800
 7137SOL    HW228867   4.287   1.898   2.826
 7137SOL    HW328868   4.233   1.985   2.715
 7137SOL    MW428869   4.273   1.977   2.792
 7138SOL     OW28870   4.371   3.604   3.346
 7138SOL    HW228871   4.288   3.589   3.391
 7138SOL    HW328872   4.430   3.537   3.381
 7138SOL    MW428873   4.369   3.594   3.356
 7139SOL     OW28874   5.428   2.311   2.971
 7139SOL    HW228875   5.361   2.344   3.031
 7139SOL    HW328876   5.471   2.389   2.937
 7139SOL    MW428877   5.426   2.326   2.975
 7140SOL     OW28878   5.606   3.031   2.941
 7140SOL    HW228879   5.599   2.971   2.866
 7140SOL    HW328880   5.532   3.091   2.930
 7140SOL    MW428881   5.596   3.031   2.930
 7141SOL     OW28882   4.988   2.893   2.859
 7141SOL    HW228883   5.002   2.865   2.950
 7141SOL    HW328884   5.074   2.924   2.831
 7141SOL    MW428885   5.001   2.894   2.868
 7142SOL     OW28886   5.071   2.388   3.138
 7142SOL    HW228887   5.092   2.389   3.045
 7142SOL    HW328888   5.116   2.310   3.171
 7142SOL    MW428889   5.078   2.378   3.130
 7143SOL     OW28890   5.564   2.519   3.680
 7143SOL    HW228891   5.601   2.464   3.749
 7143SOL    HW328892   5.589   2.476   3.598
 7143SOL    MW428893   5.571   2.507   3.679
 7144SOL     OW28894   5.111   2.817   3.731
 7144SOL    HW228895   5.177   2.765   3.685
 7144SOL    HW328896   5.131   2.804   3.824
 7144SOL    MW428897   5.122   2.808   3.738
 7145SOL     OW28898   5.062   1.903   2.080
 7145SOL    HW228899   5.136   1.947   2.123
 7145SOL    HW328900   4.986   1.957   2.102
 7145SOL    MW428901   5.062   1.915   2.088
 7146SOL     OW28902   5.122   2.678   2.358
 7146SOL    HW228903   5.037   2.648   2.328
 7146SOL    HW328904   5.114   2.685   2.453
 7146SOL    MW428905   5.110   2.676   2.367
 7147SOL     OW28906   4.198   3.141   3.089
 7147SOL    HW228907   4.210   3.168   3.180
 7147SOL    HW328908   4.179   3.222   3.042
 7147SOL    MW428909   4.197   3.156   3.094
 7148SOL     OW28910   4.482   2.121   2.912
 7148SOL    HW228911   4.455   2.123   3.003
 7148SOL    HW328912   4.412   2.073   2.867
 7148SOL    MW428913   4.470   2.117   2.919
 7149SOL     OW28914   4.336   3.613   3.074
 7149SOL    HW228915   4.388   3.690   3.051
 7149SOL    HW328916   4.345   3.605   3.169
 7149SOL    MW428917   4.345   3.620   3.085
 7150SOL     OW28918   5.238   3.198   3.306
 7150SOL    HW228919   5.223   3.127   3.369
 7150SOL    HW328920   5.284   3.156   3.234
 7150SOL    MW428921   5.244   3.182   3.306
 7151SOL     OW28922   4.492   2.972   3.235
 7151SOL    HW228923   4.551   2.918   3.288
 7151SOL    HW328924   4.507   2.944   3.145
 7151SOL    MW428925   4.502   2.961   3.231
 7152SOL     OW28926   4.495   2.344   2.084
 7152SOL    HW228927   4.568   2.393   2.047
 7152SOL    HW328928   4.511   2.253   2.058
 7152SOL    MW428929   4.507   2.339   2.077
 7153SOL     OW28930   5.303   3.461   3.407
 7153SOL    HW228931   5.345   3.446   3.492
 7153SOL    HW328932   5.294   3.374   3.369
 7153SOL    MW428933   5.307   3.449   3.414
 7154SOL     OW28934   4.963   1.940   2.998
 7154SOL    HW228935   5.018   1.949   2.920
 7154SOL    HW328936   5.018   1.974   3.069
 7154SOL    MW428937   4.977   1.945   2.997
 7155SOL     OW28938   3.970   2.853   2.182
 7155SOL    HW228939   3.907   2.869   2.111
 7155SOL    HW328940   3.917   2.816   2.253
 7155SOL    MW428941   3.955   2.850   2.182
 7156SOL     OW28942   4.326   3.207   2.041
 7156SOL    HW228943   4.341   3.183   2.133
 7156SOL    HW328944   4.234   3.185   2.025
 7156SOL    MW428945   4.316   3.200   2.051
 7157SOL     OW28946   4.865   3.438   2.193
 7157SOL    HW228947   4.873   3.356   2.144
 7157SOL    HW328948   4.784   3.477   2.160
 7157SOL    MW428949   4.855   3.433   2.183
 7158SOL     OW28950   4.124   3.596   2.762
 7158SOL    HW228951   4.128   3.507   2.797
 7158SOL    HW328952   4.150   3.587   2.671
 7158SOL    MW428953   4.127   3.584   2.754
 7159SOL     OW28954   4.741   3.074   3.005
 7159SOL    HW228955   4.673   3.008   3.021
 7159SOL    HW328956   4.759   3.068   2.912
 7159SOL    MW428957   4.734   3.065   2.996
 7160SOL     OW28958   3.830   3.349   3.256
 7160SOL    HW228959   3.820   3.307   3.342
 7160SOL    HW328960   3.751   3.402   3.246
 7160SOL    MW428961   3.819   3.350   3.267
 7161SOL     OW28962   4.734   2.213   2.826
 7161SOL    HW228963   4.664   2.165   2.871
 7161SOL    HW328964   4.766   2.276   2.890
 7161SOL    MW428965   4.729   2.215   2.840
 7162SOL     OW28966   4.385   2.649   3.446
 7162SOL    HW228967   4.378   2.744   3.434
 7162SOL    HW328968   4.394   2.638   3.541
 7162SOL    MW428969   4.386   2.661   3.456
 7163SOL     OW28970   4.106   3.164   3.704
 7163SOL    HW228971   4.178   3.166   3.641
 7163SOL    HW328972   4.076   3.073   3.703
 7163SOL    MW428973   4.111   3.153   3.696
 7164SOL     OW28974   5.190   1.927   3.171
 7164SOL    HW228975   5.261   1.873   3.135
 7164SOL    HW328976   5.189   1.906   3.264
 7164SOL    MW428977   5.199   1.918   3.179
 7165SOL     OW28978   5.390   3.457   3.655
 7165SOL    HW228979   5.363   3.454   3.746
 7165SOL    HW328980   5.486   3.461   3.658
 7165SOL    MW428981   5.400   3.457   3.667
 7166SOL     OW28982   4.201   2.319   2.639
 7166SOL    HW228983   4.272   2.267   2.602
 7166SOL    HW328984   4.187   2.284   2.726
 7166SOL    MW428985   4.209   2.308   2.646
 7167SOL     OW28986   3.756   3.654   3.711
 7167SOL    HW228987   3.806   3.632   3.633
 7167SOL    HW328988   3.764   3.749   3.719
 7167SOL    MW428989   3.764   3.663   3.702
 7168SOL     OW28990   4.517   3.412   2.715
 7168SOL    HW228991   4.445   3.349   2.728
 7168SOL    HW328992   4.478   3.497   2.733
 7168SOL    MW428993   4.501   3.415   2.718
 7169SOL     OW28994   4.837   2.260   2.363
 7169SOL    HW228995   4.859   2.197   2.295
 7169SOL    HW328996   4.742   2.252   2.374
 7169SOL    MW428997   4.827   2.251   2.355
 7170SOL     OW28998   3.922   1.950   2.295
 7170SOL    HW228999   3.993   1.971   2.234
 7170SOL    HW329000   3.876   1.878   2.253
 7170SOL    MW429001   3.926   1.944   2.281
 7171SOL     OW29002   3.753   2.417   3.438
 7171SOL    HW229003   3.817   2.483   3.413
 7171SOL    HW329004   3.672   2.444   3.395
 7171SOL    MW429005   3.751   2.429   3.430
 7172SOL     OW29006   5.491   3.324   2.395
 7172SOL    HW229007   5.461   3.257   2.456
 7172SOL    HW329008   5.585   3.330   2.409
 7172SOL    MW429009   5.499   3.316   2.405
 7173SOL     OW29010   5.047   3.001   2.325
 7173SOL    HW229011   5.019   3.087   2.358
 7173SOL    HW329012   5.075   3.017   2.235
 7173SOL    MW429013   5.047   3.015   2.317
 7174SOL     OW29014   4.709   1.921   2.378
 7174SOL    HW229015   4.746   1.980   2.443
 7174SOL    HW329016   4.686   1.977   2.304
 7174SOL    MW429017   4.710   1.936   2.377
 7175SOL     OW29018   5.562   2.803   2.800
 7175SOL    HW229019   5.553   2.835   2.711
 7175SOL    HW329020   5.515   2.719   2.800
 7175SOL    MW429021   5.555   2.796   2.790
 7176SOL     OW29022   3.938   2.643   3.379
 7176SOL    HW229023   3.959   2.712   3.317
 7176SOL    HW329024   4.018   2.590   3.384
 7176SOL    MW429025   3.951   2.644   3.373
 7177SOL     OW29026   5.474   2.734   2.501
 7177SOL    HW229027   5.568   2.723   2.489
 7177SOL    HW329028   5.450   2.806   2.442
 7177SOL    MW429029   5.484   2.742   2.492
 7178SOL     OW29030   3.923   2.658   3.646
 7178SOL    HW229031   3.849   2.602   3.672
 7178SOL    HW329032   3.918   2.661   3.551
 7178SOL    MW429033   3.912   2.651   3.636
 7179SOL     OW29034   4.089   1.945   3.096
 7179SOL    HW229035   4.132   2.029   3.116
 7179SOL    HW329036   4.162   1.883   3.089
 7179SOL    MW429037   4.104   1.948   3.097
 7180SOL     OW29038   4.130   2.612   2.274
 7180SOL    HW229039   4.130   2.707   2.259
 7180SOL    HW329040   4.207   2.596   2.328
 7180SOL    MW429041   4.140   2.623   2.279
 7181SOL     OW29042   4.906   2.471   3.338
 7181SOL    HW229043   4.942   2.444   3.254
 7181SOL    HW329044   4.819   2.505   3.317
 7181SOL    MW429045   4.900   2.472   3.325
 7182SOL     OW29046   3.889   2.343   2.563
 7182SOL    HW229047   3.951   2.350   2.636
 7182SOL    HW329048   3.889   2.250   2.540
 7182SOL    MW429049   3.897   2.332   2.570
 7183SOL     OW29050   5.436   3.683   2.095
 7183SOL    HW229051   5.503   3.716   2.035
 7183SOL    HW329052   5.393   3.762   2.129
 7183SOL    MW429053   5.438   3.698   2.091
 7184SOL     OW29054   4.571   2.604   3.047
 7184SOL    HW229055   4.529   2.522   3.023
 7184SOL    HW329056   4.572   2.603   3.143
 7184SOL    MW429057   4.564   2.593   3.056
 7185SOL     OW29058   5.242   3.737   3.446
 7185SOL    HW229059   5.245   3.643   3.429
 7185SOL    HW329060   5.265   3.745   3.538
 7185SOL    MW429061   5.245   3.725   3.456
 7186SOL     OW29062   4.375   2.074   3.152
 7186SOL    HW229063   4.306   2.137   3.173
 7186SOL    HW329064   4.402   2.038   3.237
 7186SOL    MW429065   4.369   2.077   3.165
 7187SOL     OW29066   3.758   2.915   2.021
 7187SOL    HW229067   3.727   2.980   2.084
 7187SOL    HW329068   3.707   2.837   2.040
 7187SOL    MW429069   3.748   2.912   2.031
 7188SOL     OW29070   5.170   1.927   2.769
 7188SOL    HW229071   5.258   1.936   2.806
 7188SOL    HW329072   5.180   1.868   2.695
 7188SOL    MW429073   5.184   1.921   2.763
 7189SOL     OW29074   5.202   2.666   2.613
 7189SOL    HW229075   5.282   2.681   2.562
 7189SOL    HW329076   5.195   2.571   2.619
 7189SOL    MW429077   5.211   2.655   2.608
 7190SOL     OW29078   4.342   3.715   1.963
 7190SOL    HW229079   4.247   3.715   1.955
 7190SOL    HW329080   4.358   3.661   2.041
 7190SOL    MW429081   4.332   3.709   1.972
 7191SOL     OW29082   4.652   2.592   3.310
 7191SOL    HW229083   4.721   2.659   3.307
 7191SOL    HW329084   4.585   2.630   3.366
 7191SOL    MW429085   4.653   2.605   3.317
 7192SOL     OW29086   4.070   2.892   3.558
 7192SOL    HW229087   4.024   2.808   3.560
 7192SOL    HW329088   4.127   2.886   3.482
 7192SOL    MW429089   4.072   2.880   3.550
 7193SOL     OW29090   5.187   2.535   1.879
 7193SOL    HW229091   5.115   2.511   1.821
 7193SOL    HW329092   5.253   2.572   1.821
 7193SOL    MW429093   5.186   2.537   1.864
 7194SOL     OW29094   4.321   3.267   2.559
 7194SOL    HW229095   4.386   3.200   2.580
 7194SOL    HW329096   4.373   3.344   2.536
 7194SOL    MW429097   4.336   3.269   2.558
 7195SOL     OW29098   4.582   2.432   2.689
 7195SOL    HW229099   4.522   2.450   2.761
 7195SOL    HW329100   4.616   2.344   2.708
 7195SOL    MW429101   4.578   2.422   2.702
 7196SOL     OW29102   5.523   1.931   3.358
 7196SOL    HW229103   5.444   1.977   3.386
 7196SOL    HW329104   5.558   1.985   3.287
 7196SOL    MW429105   5.517   1.944   3.352
 7197SOL     OW29106   4.807   3.015   2.708
 7197SOL    HW229107   4.899   2.996   2.726
 7197SOL    HW329108   4.780   2.945   2.648
 7197SOL    MW429109   4.815   3.003   2.702
 7198SOL     OW29110   4.600   2.835   2.063
 7198SOL    HW229111   4.586   2.747   2.028
 7198SOL    HW329112   4.551   2.892   2.004
 7198SOL    MW429113   4.592   2.830   2.051
 7199SOL     OW29114   5.081   3.253   2.804
 7199SOL    HW229115   5.054   3.337   2.769
 7199SOL    HW329116   5.041   3.248   2.891
 7199SOL    MW429117   5.074   3.262   2.810
 7200SOL     OW29118   5.000   3.201   3.072
 7200SOL    HW229119   5.011   3.168   3.161
 7200SOL    HW329120   4.919   3.160   3.041
 7200SOL    MW429121   4.990   3.193   3.078
 7201SOL     OW29122   4.013   2.559   2.842
 7201SOL    HW229123   3.963   2.558   2.923
 7201SOL    HW329124   4.033   2.651   2.826
 7201SOL    MW429125   4.009   2.571   2.850
 7202SOL     OW29126   5.080   3.323   3.604
 7202SOL    HW229127   5.080   3.417   3.620
 7202SOL    HW329128   5.125   3.313   3.520
 7202SOL    MW429129   5.086   3.333   3.595
 7203SOL     OW29130   5.319   2.041   2.165
 7203SOL    HW229131   5.312   2.045   2.260
 7203SOL    HW329132   5.331   2.132   2.138
 7203SOL    MW429133   5.320   2.054   2.173
 7204SOL     OW29134   4.608   2.604   2.279
 7204SOL    HW229135   4.588   2.590   2.186
 7204SOL    HW329136   4.701   2.583   2.286
 7204SOL    MW429137   4.618   2.599   2.268
 7205SOL     OW29138   3.935   2.227   3.583
 7205SOL    HW229139   3.892   2.286   3.520
 7205SOL    HW329140   4.003   2.282   3.623
 7205SOL    MW429141   3.939   2.242   3.580
 7206SOL     OW29142   5.047   2.847   3.128
 7206SOL    HW229143   5.110   2.844   3.201
 7206SOL    HW329144   4.963   2.865   3.170
 7206SOL    MW429145   5.043   2.849   3.143
 7207SOL     OW29146   4.591   3.562   2.317
 7207SOL    HW229147   4.649   3.633   2.344
 7207SOL    HW329148   4.614   3.490   2.375
 7207SOL    MW429149   4.602   3.562   2.328
 7208SOL     OW29150   5.386   2.024   2.907
 7208SOL    HW229151   5.431   1.942   2.926
 7208SOL    HW329152   5.406   2.080   2.983
 7208SOL    MW429153   5.396   2.020   2.919
 7209SOL     OW29154   3.834   1.867   3.006
 7209SOL    HW229155   3.825   1.868   2.911
 7209SOL    HW329156   3.928   1.879   3.021
 7209SOL    MW429157   3.846   1.870   2.997
 7210SOL     OW29158   5.471   3.060   2.626
 7210SOL    HW229159   5.450   3.006   2.549
 7210SOL    HW329160   5.567   3.058   2.630
 7210SOL    MW429161   5.480   3.053   2.615
 7211SOL     OW29162   4.163   3.205   3.369
 7211SOL    HW229163   4.084   3.155   3.392
 7211SOL    HW329164   4.233   3.164   3.419
 7211SOL    MW429165   4.161   3.193   3.379
 7212SOL     OW29166   4.047   1.994   2.052
 7212SOL    HW229167   3.976   2.049   2.020
 7212SOL    HW329168   4.089   1.960   1.973
 7212SOL    MW429169   4.043   1.996   2.038
 7213SOL     OW29170   5.171   2.491   2.888
 7213SOL    HW229171   5.094   2.537   2.854
 7213SOL    HW329172   5.228   2.560   2.922
 7213SOL    MW429173   5.168   2.506   2.888
 7214SOL     OW29174   3.803   2.093   1.901
 7214SOL    HW229175   3.770   2.172   1.945
 7214SOL    HW329176   3.858   2.126   1.830
 7214SOL    MW429177   3.806   2.107   1.898
 7215SOL     OW29178   3.837   3.350   2.090
 7215SOL    HW229179   3.854   3.434   2.132
 7215SOL    HW329180   3.872   3.359   2.002
 7215SOL    MW429181   3.842   3.363   2.084
 7216SOL     OW29182   5.109   3.439   2.307
 7216SOL    HW229183   5.172   3.429   2.236
 7216SOL    HW329184   5.026   3.459   2.262
 7216SOL    MW429185   5.106   3.440   2.292
 7217SOL     OW29186   5.472   2.707   3.993
 7217SOL    HW229187   5.513   2.649   4.058
 7217SOL    HW329188   5.379   2.699   4.010
 7217SOL    MW429189   5.466   2.699   4.003
 7218SOL     OW29190   5.338   2.639   4.988
 7218SOL    HW229191   5.293   2.706   5.039
 7218SOL    HW329192   5.426   2.675   4.974
 7218SOL    MW429193   5.344   2.652   4.992
 7219SOL     OW29194   4.266   2.890   4.222
 7219SOL    HW229195   4.356   2.865   4.206
 7219SOL    HW329196   4.262   2.983   4.199
 7219SOL    MW429197   4.278   2.899   4.217
 7220SOL     OW29198   5.382   3.593   4.364
 7220SOL    HW229199   5.394   3.539   4.442
 7220SOL    HW329200   5.419   3.541   4.293
 7220SOL    MW429201   5.388   3.578   4.365
 7221SOL     OW29202   4.761   3.478   5.365
 7221SOL    HW229203   4.802   3.514   5.286
 7221SOL    HW329204   4.796   3.389   5.372
 7221SOL    MW429205   4.772   3.471   5.356
 7222SOL     OW29206   5.318   3.033   4.969
 7222SOL    HW229207   5.239   2.998   4.927
 7222SOL    HW329208   5.345   3.105   4.913
 7222SOL    MW429209   5.311   3.038   4.956
 7223SOL     OW29210   4.550   2.346   4.235
 7223SOL    HW229211   4.525   2.434   4.263
 7223SOL    HW329212   4.547   2.349   4.139
 7223SOL    MW429213   4.546   2.358   4.227
 7224SOL     OW29214   3.992   2.374   4.163
 7224SOL    HW229215   4.024   2.462   4.145
 7224SOL    HW329216   3.980   2.372   4.258
 7224SOL    MW429217   3.995   2.386   4.175
 7225SOL     OW29218   4.070   2.787   5.064
 7225SOL    HW229219   4.133   2.734   5.015
 7225SOL    HW329220   4.051   2.861   5.007
 7225SOL    MW429221   4.076   2.789   5.051
 7226SOL     OW29222   4.391   2.129   4.250
 7226SOL    HW229223   4.449   2.205   4.252
 7226SOL    HW329224   4.326   2.150   4.183
 7226SOL    MW429225   4.390   2.141   4.241
 7227SOL     OW29226   4.478   3.056   4.425
 7227SOL    HW229227   4.558   3.059   4.477
 7227SOL    HW329228   4.506   3.023   4.339
 7227SOL    MW429229   4.492   3.052   4.420
 7228SOL     OW29230   4.503   3.397   5.328
 7228SOL    HW229231   4.587   3.423   5.367
 7228SOL    HW329232   4.527   3.341   5.254
 7228SOL    MW429233   4.517   3.393   5.323
 7229SOL     OW29234   4.255   2.560   4.416
 7229SOL    HW229235   4.240   2.480   4.467
 7229SOL    HW329236   4.337   2.595   4.450
 7229SOL    MW429237   4.263   2.552   4.428
 7230SOL     OW29238   4.592   3.246   5.101
 7230SOL    HW229239   4.556   3.312   5.041
 7230SOL    HW329240   4.520   3.184   5.114
 7230SOL    MW429241   4.578   3.246   5.095
 7231SOL     OW29242   4.397   2.386   4.793
 7231SOL    HW229243   4.303   2.382   4.811
 7231SOL    HW329244   4.427   2.295   4.802
 7231SOL    MW429245   4.388   2.374   4.796
 7232SOL     OW29246   4.143   2.800   4.697
 7232SOL    HW229247   4.098   2.807   4.613
 7232SOL    HW329248   4.123   2.883   4.741
 7232SOL    MW429249   4.135   2.812   4.691
 7233SOL     OW29250   3.840   3.646   4.572
 7233SOL    HW229251   3.929   3.638   4.607
 7233SOL    HW329252   3.804   3.558   4.577
 7233SOL    MW429253   3.847   3.633   4.577
 7234SOL     OW29254   5.105   3.038   3.941
 7234SOL    HW229255   5.023   3.074   3.907
 7234SOL    HW329256   5.173   3.081   3.890
 7234SOL    MW429257   5.103   3.048   3.929
 7235SOL     OW29258   4.104   3.173   4.607
 7235SOL    HW229259   4.080   3.226   4.683
 7235SOL    HW329260   4.160   3.231   4.555
 7235SOL    MW429261   4.108   3.188   4.610
 7236SOL     OW29262   4.666   2.817   4.417
 7236SOL    HW229263   4.580   2.804   4.457
 7236SOL    HW329264   4.719   2.744   4.449
 7236SOL    MW429265   4.662   2.806   4.426
 7237SOL     OW29266   4.074   3.469   5.202
 7237SOL    HW229267   3.982   3.445   5.187
 7237SOL    HW329268   4.118   3.386   5.219
 7237SOL    MW429269   4.068   3.454   5.201
 7238SOL     OW29270   4.657   3.179   4.134
 7238SOL    HW229271   4.634   3.241   4.202
 7238SOL    HW329272   4.614   3.097   4.160
 7238SOL    MW429273   4.649   3.175   4.145
 7239SOL     OW29274   5.530   2.180   4.590
 7239SOL    HW229275   5.467   2.160   4.659
 7239SOL    HW329276   5.520   2.109   4.527
 7239SOL    MW429277   5.520   2.167   4.591
 7240SOL     OW29278   4.154   2.152   4.102
 7240SOL    HW229279   4.128   2.114   4.018
 7240SOL    HW329280   4.091   2.222   4.118
 7240SOL    MW429281   4.143   2.155   4.093
 7241SOL     OW29282   3.989   3.113   4.139
 7241SOL    HW229283   3.937   3.181   4.095
 7241SOL    HW329284   3.986   3.039   4.079
 7241SOL    MW429285   3.981   3.112   4.126
 7242SOL     OW29286   4.651   3.576   3.917
 7242SOL    HW229287   4.606   3.592   4.000
 7242SOL    HW329288   4.582   3.541   3.859
 7242SOL    MW429289   4.637   3.573   3.919
 7243SOL     OW29290   5.586   2.349   3.892
 7243SOL    HW229291   5.495   2.351   3.920
 7243SOL    HW329292   5.631   2.411   3.950
 7243SOL    MW429293   5.579   2.357   3.902
 7244SOL     OW29294   5.331   2.952   4.242
 7244SOL    HW229295   5.241   2.952   4.277
 7244SOL    HW329296   5.324   2.998   4.159
 7244SOL    MW429297   5.318   2.958   4.236
 7245SOL     OW29298   5.131   2.587   5.314
 7245SOL    HW229299   5.200   2.525   5.291
 7245SOL    HW329300   5.056   2.561   5.261
 7245SOL    MW429301   5.131   2.574   5.305
 7246SOL     OW29302   4.867   2.974   5.306
 7246SOL    HW229303   4.852   3.067   5.291
 7246SOL    HW329304   4.962   2.964   5.306
 7246SOL    MW429305   4.876   2.984   5.303
 7247SOL     OW29306   4.663   2.398   5.507
 7247SOL    HW229307   4.753   2.399   5.474
 7247SOL    HW329308   4.622   2.323   5.465
 7247SOL    MW429309   4.669   2.388   5.498
 7248SOL     OW29310   5.238   2.930   4.634
 7248SOL    HW229311   5.241   2.864   4.565
 7248SOL    HW329312   5.323   2.973   4.630
 7248SOL    MW429313   5.250   2.926   4.625
 7249SOL     OW29314   4.858   2.533   4.203
 7249SOL    HW229315   4.884   2.557   4.114
 7249SOL    HW329316   4.840   2.440   4.199
 7249SOL    MW429317   4.860   2.525   4.190
 7250SOL     OW29318   5.523   3.153   4.054
 7250SOL    HW229319   5.479   3.194   4.129
 7250SOL    HW329320   5.580   3.221   4.019
 7250SOL    MW429321   5.525   3.167   4.059
 7251SOL     OW29322   4.443   2.202   5.457
 7251SOL    HW229323   4.453   2.128   5.397
 7251SOL    HW329324   4.479   2.171   5.540
 7251SOL    MW429325   4.449   2.188   5.459
 7252SOL     OW29326   4.179   3.569   4.372
 7252SOL    HW229327   4.211   3.657   4.350
 7252SOL    HW329328   4.132   3.541   4.294
 7252SOL    MW429329   4.178   3.577   4.359
 7253SOL     OW29330   5.563   1.931   4.421
 7253SOL    HW229331   5.617   1.882   4.483
 7253SOL    HW329332   5.506   1.865   4.382
 7253SOL    MW429333   5.563   1.915   4.423
 7254SOL     OW29334   3.895   3.629   3.949
 7254SOL    HW229335   3.924   3.719   3.941
 7254SOL    HW329336   3.845   3.612   3.870
 7254SOL    MW429337   3.893   3.637   3.938
 7255SOL     OW29338   4.682   1.884   4.834
 7255SOL    HW229339   4.641   1.962   4.796
 7255SOL    HW329340   4.776   1.902   4.829
 7255SOL    MW429341   4.688   1.896   4.829
 7256SOL     OW29342   5.299   3.437   3.920
 7256SOL    HW229343   5.347   3.506   3.966
 7256SOL    HW329344   5.220   3.481   3.889
 7256SOL    MW429345   5.294   3.451   3.923
 7257SOL     OW29346   4.697   2.562   3.864
 7257SOL    HW229347   4.699   2.509   3.785
 7257SOL    HW329348   4.785   2.599   3.870
 7257SOL    MW429349   4.709   2.561   3.853
 7258SOL     OW29350   5.311   2.488   4.200
 7258SOL    HW229351   5.350   2.488   4.287
 7258SOL    HW329352   5.252   2.564   4.200
 7258SOL    MW429353   5.308   2.499   4.211
 7259SOL     OW29354   4.628   2.855   5.329
 7259SOL    HW229355   4.605   2.835   5.419
 7259SOL    HW329356   4.713   2.899   5.334
 7259SOL    MW429357   4.635   2.858   5.341
 7260SOL     OW29358   4.708   1.992   5.089
 7260SOL    HW229359   4.714   1.954   5.002
 7260SOL    HW329360   4.697   2.086   5.074
 7260SOL    MW429361   4.709   2.000   5.077
 7261SOL     OW29362   4.797   2.481   4.923
 7261SOL    HW229363   4.872   2.510   4.870
 7261SOL    HW329364   4.729   2.546   4.907
 7261SOL    MW429365   4.798   2.493   4.913
 7262SOL     OW29366   5.347   2.449   5.200
 7262SOL    HW229367   5.328   2.358   5.179
 7262SOL    HW329368   5.325   2.498   5.121
 7262SOL    MW429369   5.342   2.442   5.187
 7263SOL     OW29370   5.489   3.543   5.104
 7263SOL    HW229371   5.417   3.505   5.155
 7263SOL    HW329372   5.506   3.628   5.145
 7263SOL    MW429373   5.483   3.548   5.116
 7264SOL     OW29374   4.794   2.187   5.306
 7264SOL    HW229375   4.760   2.226   5.225
 7264SOL    HW329376   4.772   2.095   5.299
 7264SOL    MW429377   4.787   2.180   5.296
 7265SOL     OW29378   5.203   3.001   5.382
 7265SOL    HW229379   5.285   3.042   5.412
 7265SOL    HW329380   5.166   2.963   5.462
 7265SOL    MW429381   5.209   3.002   5.397
 7266SOL     OW29382   5.498   2.374   4.366
 7266SOL    HW229383   5.587   2.343   4.383
 7266SOL    HW329384   5.441   2.314   4.414
 7266SOL    MW429385   5.501   2.362   4.375
 7267SOL     OW29386   3.924   2.088   4.395
 7267SOL    HW229387   3.915   2.028   4.321
 7267SOL    HW329388   3.857   2.059   4.458
 7267SOL    MW429389   3.914   2.075   4.393
 7268SOL     OW29390   4.867   3.181   3.956
 7268SOL    HW229391   4.817   3.183   4.038
 7268SOL    HW329392   4.801   3.199   3.888
 7268SOL    MW429393   4.853   3.183   3.958
 7269SOL     OW29394   3.871   2.261   4.758
 7269SOL    HW229395   3.843   2.352   4.767
 7269SOL    HW329396   3.808   2.222   4.697
 7269SOL    MW429397   3.858   2.267   4.752
 7270SOL     OW29398   4.330   3.599   4.064
 7270SOL    HW229399   4.251   3.557   4.097
 7270SOL    HW329400   4.396   3.582   4.131
 7270SOL    MW429401   4.329   3.591   4.077
 7271SOL     OW29402   5.458   3.119   5.461
 7271SOL    HW229403   5.508   3.045   5.493
 7271SOL    HW329404   5.404   3.146   5.536
 7271SOL    MW429405   5.458   3.113   5.474
 7272SOL     OW29406   4.466   3.014   3.771
 7272SOL    HW229407   4.388   2.960   3.758
 7272SOL    HW329408   4.437   3.087   3.824
 7272SOL    MW429409   4.452   3.016   3.776
 7273SOL     OW29410   5.384   3.463   4.632
 7273SOL    HW229411   5.413   3.530   4.693
 7273SOL    HW329412   5.365   3.387   4.687
 7273SOL    MW429413   5.386   3.463   4.647
 7274SOL     OW29414   5.047   3.530   3.839
 7274SOL    HW229415   4.973   3.493   3.889
 7274SOL    HW329416   5.055   3.620   3.872
 7274SOL    MW429417   5.038   3.537   3.851
 7275SOL     OW29418   3.855   2.536   4.928
 7275SOL    HW229419   3.917   2.566   4.994
 7275SOL    HW329420   3.789   2.605   4.922
 7275SOL    MW429421   3.854   2.549   4.935
 7276SOL     OW29422   5.271   3.204   3.781
 7276SOL    HW229423   5.218   3.253   3.717
 7276SOL    HW329424   5.302   3.270   3.842
 7276SOL    MW429425   5.269   3.218   3.779
 7277SOL     OW29426   4.496   2.093   3.836
 7277SOL    HW229427   4.444   2.013   3.824
 7277SOL    HW329428   4.583   2.070   3.804
 7277SOL    MW429429   4.499   2.079   3.830
 7278SOL     OW29430   3.950   3.645   5.380
 7278SOL    HW229431   3.924   3.713   5.318
 7278SOL    HW329432   3.998   3.582   5.328
 7278SOL    MW429433   3.952   3.645   5.366
 7279SOL     OW29434   4.002   2.964   4.887
 7279SOL    HW229435   4.055   3.039   4.912
 7279SOL    HW329436   3.921   3.002   4.853
 7279SOL    MW429437   3.998   2.979   4.887
 7280SOL     OW29438   4.542   2.868   4.875
 7280SOL    HW229439   4.570   2.777   4.887
 7280SOL    HW329440   4.471   2.862   4.811
 7280SOL    MW429441   4.535   2.856   4.870
 7281SOL     OW29442   3.857   2.733   4.293
 7281SOL    HW229443   3.948   2.748   4.320
 7281SOL    HW329444   3.860   2.654   4.239
 7281SOL    MW429445   3.869   2.725   4.291
 7282SOL     OW29446   4.093   2.441   5.547
 7282SOL    HW229447   4.040   2.521   5.554
 7282SOL    HW329448   4.163   2.453   5.612
 7282SOL    MW429449   4.095   2.454   5.555
 7283SOL     OW29450   4.479   1.991   5.254
 7283SOL    HW229451   4.456   1.899   5.256
 7283SOL    HW329452   4.565   1.993   5.211
 7283SOL    MW429453   4.486   1.981   5.250
 7284SOL     OW29454   4.163   2.515   5.293
 7284SOL    HW229455   4.243   2.565   5.279
 7284SOL    HW329456   4.154   2.509   5.388
 7284SOL    MW429457   4.172   2.521   5.303
 7285SOL     OW29458   4.484   3.665   4.667
 7285SOL    HW229459   4.573   3.680   4.697
 7285SOL    HW329460   4.479   3.712   4.583
 7285SOL    MW429461   4.494   3.673   4.660
 7286SOL     OW29462   5.140   2.040   5.564
 7286SOL    HW229463   5.196   1.967   5.590
 7286SOL    HW329464   5.110   2.078   5.646
 7286SOL    MW429465   5.144   2.035   5.577
 7287SOL     OW29466   3.865   3.345   4.332
 7287SOL    HW229467   3.837   3.384   4.414
 7287SOL    HW329468   3.885   3.254   4.354
 7287SOL    MW429469   3.863   3.337   4.345
 7288SOL     OW29470   4.698   3.388   4.367
 7288SOL    HW229471   4.781   3.342   4.351
 7288SOL    HW329472   4.688   3.387   4.463
 7288SOL    MW429473   4.708   3.381   4.377
 7289SOL     OW29474   5.530   2.533   4.681
 7289SOL    HW229475   5.619   2.563   4.663
 7289SOL    HW329476   5.510   2.473   4.610
 7289SOL    MW429477   5.539   2.530   4.670
 7290SOL     OW29478   5.381   2.712   5.561
 7290SOL    HW229479   5.436   2.636   5.542
 7290SOL    HW329480   5.383   2.720   5.656
 7290SOL    MW429481   5.389   2.703   5.569
 7291SOL     OW29482   4.431   3.445   3.772
 7291SOL    HW229483   4.371   3.514   3.742
 7291SOL    HW329484   4.376   3.387   3.825
 7291SOL    MW429485   4.415   3.447   3.774
 7292SOL     OW29486   4.869   2.090   3.995
 7292SOL    HW229487   4.802   2.066   3.932
 7292SOL    HW329488   4.934   2.139   3.944
 7292SOL    MW429489   4.869   2.092   3.980
 7293SOL     OW29490   4.676   2.274   5.080
 7293SOL    HW229491   4.595   2.315   5.108
 7293SOL    HW329492   4.723   2.342   5.032
 7293SOL    MW429493   4.671   2.289   5.078
 7294SOL     OW29494   4.936   2.612   4.703
 7294SOL    HW229495   4.949   2.706   4.713
 7294SOL    HW329496   4.897   2.602   4.617
 7294SOL    MW429497   4.932   2.623   4.693
 7295SOL     OW29498   4.388   2.807   4.507
 7295SOL    HW229499   4.299   2.798   4.540
 7295SOL    HW329500   4.392   2.897   4.475
 7295SOL    MW429501   4.377   2.818   4.507
 7296SOL     OW29502   5.187   2.390   4.502
 7296SOL    HW229503   5.132   2.311   4.501
 7296SOL    HW329504   5.169   2.431   4.586
 7296SOL    MW429505   5.177   2.385   4.511
 7297SOL     OW29506   4.158   2.077   5.319
 7297SOL    HW229507   4.079   2.095   5.371
 7297SOL    HW329508   4.153   2.139   5.246
 7297SOL    MW429509   4.148   2.087   5.316
 7298SOL     OW29510   4.806   2.594   4.459
 7298SOL    HW229511   4.743   2.526   4.483
 7298SOL    HW329512   4.826   2.575   4.367
 7298SOL    MW429513   4.800   2.581   4.451
 7299SOL     OW29514   4.062   3.489   4.161
 7299SOL    HW229515   4.023   3.536   4.087
 7299SOL    HW329516   3.996   3.424   4.186
 7299SOL    MW429517   4.049   3.487   4.155
 7300SOL     OW29518   4.554   2.898   4.185
 7300SOL    HW229519   4.556   2.872   4.092
 7300SOL    HW329520   4.612   2.835   4.228
 7300SOL    MW429521   4.562   2.887   4.179
 7301SOL     OW29522   5.107   3.458   4.957
 7301SOL    HW229523   5.032   3.504   4.995
 7301SOL    HW329524   5.089   3.365   4.974
 7301SOL    MW429525   5.096   3.452   4.965
 7302SOL     OW29526   5.111   3.666   4.387
 7302SOL    HW229527   5.054   3.619   4.326
 7302SOL    HW329528   5.197   3.627   4.374
 7302SOL    MW429529   5.114   3.657   4.377
 7303SOL     OW29530   5.064   2.142   4.518
 7303SOL    HW229531   5.092   2.074   4.579
 7303SOL    HW329532   4.978   2.113   4.488
 7303SOL    MW429533   5.057   2.129   4.522
 7304SOL     OW29534   3.869   3.076   4.452
 7304SOL    HW229535   3.933   3.108   4.515
 7304SOL    HW329536   3.918   3.012   4.400
 7304SOL    MW429537   3.884   3.072   4.453
 7305SOL     OW29538   4.369   3.152   5.434
 7305SOL    HW229539   4.417   3.235   5.421
 7305SOL    HW329540   4.426   3.100   5.490
 7305SOL    MW429541   4.383   3.156   5.440
 7306SOL     OW29542   3.945   3.394   5.574
 7306SOL    HW229543   4.001   3.318   5.589
 7306SOL    HW329544   3.894   3.372   5.496
 7306SOL    MW429545   3.945   3.381   5.565
 7307SOL     OW29546   5.044   2.246   3.853
 7307SOL    HW229547   5.017   2.312   3.789
 7307SOL    HW329548   5.114   2.289   3.903
 7307SOL    MW429549   5.049   2.259   3.850
 7308SOL     OW29550   4.712   1.951   3.790
 7308SOL    HW229551   4.768   1.943   3.712
 7308SOL    HW329552   4.689   1.861   3.812
 7308SOL    MW429553   4.717   1.938   3.783
 7309SOL     OW29554   5.217   2.802   3.995
 7309SOL    HW229555   5.184   2.891   3.985
 7309SOL    HW329556   5.182   2.773   4.080
 7309SOL    MW429557   5.207   2.811   4.006
 7310SOL     OW29558   4.830   3.231   5.183
 7310SOL    HW229559   4.741   3.237   5.151
 7310SOL    HW329560   4.874   3.310   5.151
 7310SOL    MW429561   4.825   3.241   5.175
 7311SOL     OW29562   4.123   1.899   5.525
 7311SOL    HW229563   4.051   1.864   5.473
 7311SOL    HW329564   4.181   1.940   5.460
 7311SOL    MW429565   4.121   1.900   5.510
 7312SOL     OW29566   4.147   3.389   4.824
 7312SOL    HW229567   4.192   3.451   4.881
 7312SOL    HW329568   4.054   3.408   4.837
 7312SOL    MW429569   4.140   3.399   4.831
 7313SOL     OW29570   5.587   2.918   5.178
 7313SOL    HW229571   5.502   2.931   5.137
 7313SOL    HW329572   5.567   2.882   5.265
 7313SOL    MW429573   5.574   2.914   5.183
 7314SOL     OW29574   4.569   3.457   4.932
 7314SOL    HW229575   4.593   3.446   4.841
 7314SOL    HW329576   4.492   3.514   4.930
 7314SOL    MW429577   4.561   3.462   4.921
 7315SOL     OW29578   4.211   2.840   3.787
 7315SOL    HW229579   4.134   2.853   3.843
 7315SOL    HW329580   4.175   2.804   3.706
 7315SOL    MW429581   4.197   2.836   3.784
 7316SOL     OW29582   4.864   2.813   4.030
 7316SOL    HW229583   4.774   2.834   4.005
 7316SOL    HW329584   4.891   2.886   4.086
 7316SOL    MW429585   4.856   2.825   4.033
 7317SOL     OW29586   4.364   3.162   4.722
 7317SOL    HW229587   4.357   3.141   4.816
 7317SOL    HW329588   4.282   3.130   4.685
 7317SOL    MW429589   4.352   3.156   4.729
 7318SOL     OW29590   5.228   2.172   5.124
 7318SOL    HW229591   5.175   2.174   5.204
 7318SOL    HW329592   5.213   2.085   5.087
 7318SOL    MW429593   5.220   2.162   5.129
 7319SOL     OW29594   5.564   2.096   4.997
 7319SOL    HW229595   5.545   2.163   4.932
 7319SOL    HW329596   5.621   2.034   4.952
 7319SOL    MW429597   5.568   2.097   4.983
 7320SOL     OW29598   3.810   3.254   5.385
 7320SOL    HW229599   3.854   3.187   5.331
 7320SOL    HW329600   3.725   3.216   5.405
 7320SOL    MW429601   3.805   3.240   5.381
 7321SOL     OW29602   4.493   1.929   4.437
 7321SOL    HW229603   4.422   1.990   4.419
 7321SOL    HW329604   4.544   1.926   4.356
 7321SOL    MW429605   4.489   1.935   4.424
 7322SOL     OW29606   4.251   3.169   4.186
 7322SOL    HW229607   4.244   3.201   4.276
 7322SOL    HW329608   4.161   3.153   4.158
 7322SOL    MW429609   4.239   3.171   4.193
 7323SOL     OW29610   4.846   3.562   5.095
 7323SOL    HW229611   4.766   3.547   5.045
 7323SOL    HW329612   4.853   3.657   5.102
 7323SOL    MW429613   4.837   3.573   5.089
 7324SOL     OW29614   4.960   3.527   4.585
 7324SOL    HW229615   5.007   3.600   4.544
 7324SOL    HW329616   4.881   3.566   4.621
 7324SOL    MW429617   4.955   3.542   4.584
 7325SOL     OW29618   5.368   3.622   4.860
 7325SOL    HW229619   5.411   3.592   4.940
 7325SOL    HW329620   5.287   3.570   4.857
 7325SOL    MW429621   5.363   3.611   4.870
 7326SOL     OW29622   4.453   2.586   5.567
 7326SOL    HW229623   4.523   2.528   5.539
 7326SOL    HW329624   4.396   2.531   5.622
 7326SOL    MW429625   4.455   2.573   5.571
 7327SOL     OW29626   5.240   2.798   5.200
 7327SOL    HW229627   5.245   2.851   5.280
 7327SOL    HW329628   5.202   2.715   5.228
 7327SOL    MW429629   5.236   2.793   5.215
 7328SOL     OW29630   4.880   1.933   5.446
 7328SOL    HW229631   4.875   1.840   5.427
 7328SOL    HW329632   4.963   1.944   5.492
 7328SOL    MW429633   4.888   1.922   5.450
 7329SOL     OW29634   4.254   2.453   3.900
 7329SOL    HW229635   4.220   2.509   3.970
 7329SOL    HW329636   4.325   2.403   3.940
 7329SOL    MW429637   4.260   2.454   3.914
 7330SOL     OW29638   5.350   3.204   4.722
 7330SOL    HW229639   5.385   3.186   4.635
 7330SOL    HW329640   5.255   3.205   4.709
 7330SOL    MW429641   5.342   3.201   4.709
 7331SOL     OW29642   4.779   2.852   5.091
 7331SOL    HW229643   4.822   2.887   5.169
 7331SOL    HW329644   4.762   2.929   5.037
 7331SOL    MW429645   4.782   2.867   5.094
 7332SOL     OW29646   5.310   2.339   3.964
 7332SOL    HW229647   5.302   2.410   3.901
 7332SOL    HW329648   5.328   2.383   4.047
 7332SOL    MW429649   5.311   2.353   3.966
 7333SOL     OW29650   4.170   1.994   4.393
 7333SOL    HW229651   4.220   2.037   4.324
 7333SOL    HW329652   4.085   2.038   4.393
 7333SOL    MW429653   4.167   2.007   4.384
 7334SOL     OW29654   3.929   3.056   5.253
 7334SOL    HW229655   3.957   3.009   5.331
 7334SOL    HW329656   3.850   3.011   5.224
 7334SOL    MW429657   3.922   3.045   5.259
 7335SOL     OW29658   4.437   2.383   5.220
 7335SOL    HW229659   4.409   2.471   5.244
 7335SOL    HW329660   4.406   2.327   5.291
 7335SOL    MW429661   4.429   2.386   5.232
 7336SOL     OW29662   4.979   2.601   3.939
 7336SOL    HW229663   5.026   2.619   3.858
 7336SOL    HW329664   4.945   2.685   3.967
 7336SOL    MW429665   4.981   2.615   3.932
 7337SOL     OW29666   4.092   2.779   4.433
 7337SOL    HW229667   4.150   2.835   4.381
 7337SOL    HW329668   4.136   2.694   4.435
 7337SOL    MW429669   4.105   2.776   4.426
 7338SOL     OW29670   5.232   2.131   4.270
 7338SOL    HW229671   5.154   2.081   4.295
 7338SOL    HW329672   5.203   2.222   4.270
 7338SOL    MW429673   5.218   2.135   4.273
 7339SOL     OW29674   4.818   2.093   4.429
 7339SOL    HW229675   4.838   2.168   4.373
 7339SOL    HW329676   4.798   2.132   4.514
 7339SOL    MW429677   4.819   2.109   4.433
 7340SOL     OW29678   4.714   3.343   3.761
 7340SOL    HW229679   4.741   3.421   3.713
 7340SOL    HW329680   4.621   3.358   3.780
 7340SOL    MW429681   4.705   3.356   3.757
 7341SOL     OW29682   5.578   2.866   5.448
 7341SOL    HW229683   5.491   2.846   5.484
 7341SOL    HW329684   5.632   2.792   5.473
 7341SOL    MW429685   5.573   2.855   5.456
 7342SOL     OW29686   3.799   3.379   4.605
 7342SOL    HW229687   3.831   3.383   4.696
 7342SOL    HW329688   3.704   3.387   4.613
 7342SOL    MW429689   3.791   3.382   4.618
 7343SOL     OW29690   3.754   2.505   4.152
 7343SOL    HW229691   3.694   2.477   4.222
 7343SOL    HW329692   3.828   2.445   4.158
 7343SOL    MW429693   3.756   2.494   4.161
 7344SOL     OW29694   5.322   3.717   5.586
 7344SOL    HW229695   5.367   3.641   5.551
 7344SOL    HW329696   5.360   3.730   5.673
 7344SOL    MW429697   5.332   3.710   5.592
 7345SOL     OW29698   4.922   3.236   4.312
 7345SOL    HW229699   4.945   3.187   4.390
 7345SOL    HW329700   5.003   3.278   4.284
 7345SOL    MW429701   4.935   3.236   4.319
 7346SOL     OW29702   4.180   2.244   5.041
 7346SOL    HW229703   4.213   2.325   5.081
 7346SOL    HW329704   4.153   2.270   4.953
 7346SOL    MW429705   4.179   2.258   5.035
 7347SOL     OW29706   4.134   2.211   4.777
 7347SOL    HW229707   4.164   2.125   4.748
 7347SOL    HW329708   4.039   2.204   4.780
 7347SOL    MW429709   4.126   2.200   4.775
 7348SOL     OW29710   4.963   2.420   5.468
 7348SOL    HW229711   5.015   2.355   5.421
 7348SOL    HW329712   4.921   2.471   5.398
 7348SOL    MW429713   4.964   2.417   5.451
 7349SOL     OW29714   5.062   2.215   5.329
 7349SOL    HW229715   4.969   2.199   5.316
 7349SOL    HW329716   5.088   2.153   5.397
 7349SOL    MW429717   5.052   2.205   5.336
 7350SOL     OW29718   4.277   1.989   4.668
 7350SOL    HW229719   4.287   1.898   4.694
 7350SOL    HW329720   4.233   1.985   4.583
 7350SOL    MW429721   4.273   1.977   4.660
 7351SOL     OW29722   4.371   3.604   5.214
 7351SOL    HW229723   4.288   3.589   5.259
 7351SOL    HW329724   4.430   3.537   5.249
 7351SOL    MW429725   4.369   3.594   5.224
 7352SOL     OW29726   5.428   2.311   4.839
 7352SOL    HW229727   5.361   2.344   4.899
 7352SOL    HW329728   5.471   2.389   4.805
 7352SOL    MW429729   5.426   2.326   4.843
 7353SOL     OW29730   5.606   3.031   4.809
 7353SOL    HW229731   5.599   2.971   4.734
 7353SOL    HW329732   5.532   3.091   4.798
 7353SOL    MW429733   5.596   3.031   4.798
 7354SOL     OW29734   4.988   2.893   4.727
 7354SOL    HW229735   5.002   2.865   4.818
 7354SOL    HW329736   5.074   2.924   4.699
 7354SOL    MW429737   5.001   2.894   4.736
 7355SOL     OW29738   5.071   2.388   5.006
 7355SOL    HW229739   5.092   2.389   4.913
 7355SOL    HW329740   5.116   2.310   5.039
 7355SOL    MW429741   5.078   2.378   4.998
 7356SOL     OW29742   5.564   2.519   5.548
 7356SOL    HW229743   5.601   2.464   5.617
 7356SOL    HW329744   5.589   2.476   5.466
 7356SOL    MW429745   5.571   2.507   5.547
 7357SOL     OW29746   5.111   2.817   5.600
 7357SOL    HW229747   5.177   2.765   5.554
 7357SOL    HW329748   5.131   2.804   5.693
 7357SOL    MW429749   5.122   2.808   5.607
 7358SOL     OW29750   5.062   1.903   3.948
 7358SOL    HW229751   5.136   1.947   3.991
 7358SOL    HW329752   4.986   1.957   3.970
 7358SOL    MW429753   5.062   1.915   3.956
 7359SOL     OW29754   5.122   2.678   4.226
 7359SOL    HW229755   5.037   2.648   4.196
 7359SOL    HW329756   5.114   2.685   4.321
 7359SOL    MW429757   5.110   2.676   4.235
 7360SOL     OW29758   4.198   3.141   4.957
 7360SOL    HW229759   4.210   3.168   5.048
 7360SOL    HW329760   4.179   3.222   4.910
 7360SOL    MW429761   4.197   3.156   4.962
 7361SOL     OW29762   4.482   2.121   4.780
 7361SOL    HW229763   4.455   2.123   4.871
 7361SOL    HW329764   4.412   2.073   4.735
 7361SOL    MW429765   4.470   2.117   4.787
 7362SOL     OW29766   4.336   3.613   4.942
 7362SOL    HW229767   4.388   3.690   4.919
 7362SOL    HW329768   4.345   3.605   5.037
 7362SOL    MW429769   4.345   3.620   4.953
 7363SOL     OW29770   5.238   3.198   5.174
 7363SOL    HW229771   5.223   3.127   5.237
 7363SOL    HW329772   5.284   3.156   5.102
 7363SOL    MW429773   5.244   3.182   5.174
 7364SOL     OW29774   4.312   2.929   5.291
 7364SOL    HW229775   4.349   2.934   5.203
 7364SOL    HW329776   4.351   3.002   5.338
 7364SOL    MW429777   4.322   2.939   5.286
 7365SOL     OW29778   4.492   2.972   5.103
 7365SOL    HW229779   4.551   2.918   5.156
 7365SOL    HW329780   4.507   2.944   5.013
 7365SOL    MW429781   4.502   2.961   5.099
 7366SOL     OW29782   4.495   2.344   3.952
 7366SOL    HW229783   4.568   2.393   3.915
 7366SOL    HW329784   4.511   2.253   3.926
 7366SOL    MW429785   4.507   2.339   3.945
 7367SOL     OW29786   5.303   3.461   5.275
 7367SOL    HW229787   5.345   3.446   5.360
 7367SOL    HW329788   5.294   3.374   5.237
 7367SOL    MW429789   5.307   3.449   5.282
 7368SOL     OW29790   4.963   1.940   4.866
 7368SOL    HW229791   5.018   1.949   4.788
 7368SOL    HW329792   5.018   1.974   4.937
 7368SOL    MW429793   4.977   1.945   4.865
 7369SOL     OW29794   3.970   2.853   4.050
 7369SOL    HW229795   3.907   2.869   3.979
 7369SOL    HW329796   3.917   2.816   4.121
 7369SOL    MW429797   3.955   2.850   4.050
 7370SOL     OW29798   4.326   3.207   3.909
 7370SOL    HW229799   4.341   3.183   4.001
 7370SOL    HW329800   4.234   3.185   3.893
 7370SOL    MW429801   4.316   3.200   3.919
 7371SOL     OW29802   4.865   3.438   4.061
 7371SOL    HW229803   4.873   3.356   4.012
 7371SOL    HW329804   4.784   3.477   4.028
 7371SOL    MW429805   4.855   3.433   4.051
 7372SOL     OW29806   4.124   3.596   4.630
 7372SOL    HW229807   4.128   3.507   4.665
 7372SOL    HW329808   4.150   3.587   4.539
 7372SOL    MW429809   4.127   3.584   4.622
 7373SOL     OW29810   4.741   3.074   4.873
 7373SOL    HW229811   4.673   3.008   4.889
 7373SOL    HW329812   4.759   3.068   4.780
 7373SOL    MW429813   4.734   3.065   4.864
 7374SOL     OW29814   3.830   3.349   5.124
 7374SOL    HW229815   3.820   3.307   5.210
 7374SOL    HW329816   3.751   3.402   5.114
 7374SOL    MW429817   3.819   3.350   5.135
 7375SOL     OW29818   4.734   2.213   4.694
 7375SOL    HW229819   4.664   2.165   4.739
 7375SOL    HW329820   4.766   2.276   4.758
 7375SOL    MW429821   4.729   2.215   4.708
 7376SOL     OW29822   4.385   2.649   5.314
 7376SOL    HW229823   4.378   2.744   5.302
 7376SOL    HW329824   4.394   2.638   5.409
 7376SOL    MW429825   4.386   2.661   5.324
 7377SOL     OW29826   4.106   3.164   5.572
 7377SOL    HW229827   4.178   3.166   5.509
 7377SOL    HW329828   4.076   3.073   5.571
 7377SOL    MW429829   4.111   3.153   5.564
 7378SOL     OW29830   5.190   1.927   5.039
 7378SOL    HW229831   5.261   1.873   5.003
 7378SOL    HW329832   5.189   1.906   5.132
 7378SOL    MW429833   5.199   1.918   5.047
 7379SOL     OW29834   5.390   3.457   5.523
 7379SOL    HW229835   5.363   3.454   5.614
 7379SOL    HW329836   5.486   3.461   5.526
 7379SOL    MW429837   5.400   3.457   5.535
 7380SOL     OW29838   4.201   2.319   4.507
 7380SOL    HW229839   4.272   2.267   4.470
 7380SOL    HW329840   4.187   2.284   4.594
 7380SOL    MW429841   4.209   2.308   4.514
 7381SOL     OW29842   3.756   3.654   5.579
 7381SOL    HW229843   3.806   3.632   5.501
 7381SOL    HW329844   3.764   3.749   5.587
 7381SOL    MW429845   3.764   3.663   5.570
 7382SOL     OW29846   4.517   3.412   4.583
 7382SOL    HW229847   4.445   3.349   4.596
 7382SOL    HW329848   4.478   3.497   4.601
 7382SOL    MW429849   4.501   3.415   4.586
 7383SOL     OW29850   4.837   2.260   4.231
 7383SOL    HW229851   4.859   2.197   4.163
 7383SOL    HW329852   4.742   2.252   4.242
 7383SOL    MW429853   4.827   2.251   4.223
 7384SOL     OW29854   3.922   1.950   4.163
 7384SOL    HW229855   3.993   1.971   4.102
 7384SOL    HW329856   3.876   1.878   4.121
 7384SOL    MW429857   3.926   1.944   4.149
 7385SOL     OW29858   3.753   2.417   5.306
 7385SOL    HW229859   3.817   2.483   5.281
 7385SOL    HW329860   3.672   2.444   5.263
 7385SOL    MW429861   3.751   2.429   5.298
 7386SOL     OW29862   5.491   3.324   4.263
 7386SOL    HW229863   5.461   3.257   4.324
 7386SOL    HW329864   5.585   3.330   4.277
 7386SOL    MW429865   5.499   3.316   4.273
 7387SOL     OW29866   5.047   3.001   4.193
 7387SOL    HW229867   5.019   3.087   4.226
 7387SOL    HW329868   5.075   3.017   4.103
 7387SOL    MW429869   5.047   3.015   4.185
 7388SOL     OW29870   4.709   1.921   4.246
 7388SOL    HW229871   4.746   1.980   4.311
 7388SOL    HW329872   4.686   1.977   4.172
 7388SOL    MW429873   4.710   1.936   4.245
 7389SOL     OW29874   5.562   2.803   4.668
 7389SOL    HW229875   5.553   2.835   4.579
 7389SOL    HW329876   5.515   2.719   4.668
 7389SOL    MW429877   5.555   2.796   4.658
 7390SOL     OW29878   3.938   2.643   5.247
 7390SOL    HW229879   3.959   2.712   5.185
 7390SOL    HW329880   4.018   2.590   5.252
 7390SOL    MW429881   3.951   2.644   5.241
 7391SOL     OW29882   5.474   2.734   4.369
 7391SOL    HW229883   5.568   2.723   4.357
 7391SOL    HW329884   5.450   2.806   4.310
 7391SOL    MW429885   5.484   2.742   4.360
 7392SOL     OW29886   3.923   2.658   5.514
 7392SOL    HW229887   3.849   2.602   5.540
 7392SOL    HW329888   3.918   2.661   5.419
 7392SOL    MW429889   3.912   2.651   5.504
 7393SOL     OW29890   4.089   1.945   4.964
 7393SOL    HW229891   4.132   2.029   4.984
 7393SOL    HW329892   4.162   1.883   4.957
 7393SOL    MW429893   4.104   1.948   4.965
 7394SOL     OW29894   4.130   2.612   4.142
 7394SOL    HW229895   4.130   2.707   4.127
 7394SOL    HW329896   4.207   2.596   4.196
 7394SOL    MW429897   4.140   2.623   4.147
 7395SOL     OW29898   4.906   2.471   5.206
 7395SOL    HW229899   4.942   2.444   5.122
 7395SOL    HW329900   4.819   2.505   5.185
 7395SOL    MW429901   4.900   2.472   5.193
 7396SOL     OW29902   3.889   2.343   4.431
 7396SOL    HW229903   3.951   2.350   4.504
 7396SOL    HW329904   3.889   2.250   4.408
 7396SOL    MW429905   3.897   2.332   4.438
 7397SOL     OW29906   5.436   3.683   3.963
 7397SOL    HW229907   5.503   3.716   3.903
 7397SOL    HW329908   5.393   3.762   3.997
 7397SOL    MW429909   5.438   3.698   3.959
 7398SOL     OW29910   4.571   2.604   4.915
 7398SOL    HW229911   4.529   2.522   4.891
 7398SOL    HW329912   4.572   2.603   5.011
 7398SOL    MW429913   4.564   2.593   4.924
 7399SOL     OW29914   5.242   3.737   5.314
 7399SOL    HW229915   5.245   3.643   5.297
 7399SOL    HW329916   5.265   3.745   5.406
 7399SOL    MW429917   5.245   3.725   5.324
 7400SOL     OW29918   4.375   2.074   5.020
 7400SOL    HW229919   4.306   2.137   5.041
 7400SOL    HW329920   4.402   2.038   5.105
 7400SOL    MW429921   4.369   2.077   5.033
 7401SOL     OW29922   3.758   2.915   3.889
 7401SOL    HW229923   3.727   2.980   3.952
 7401SOL    HW329924   3.707   2.837   3.908
 7401SOL    MW429925   3.748   2.912   3.899
 7402SOL     OW29926   5.170   1.927   4.637
 7402SOL    HW229927   5.258   1.936   4.674
 7402SOL    HW329928   5.180   1.868   4.563
 7402SOL    MW429929   5.184   1.921   4.631
 7403SOL     OW29930   5.202   2.666   4.481
 7403SOL    HW229931   5.282   2.681   4.430
 7403SOL    HW329932   5.195   2.571   4.487
 7403SOL    MW429933   5.211   2.655   4.476
 7404SOL     OW29934   4.342   3.715   3.831
 7404SOL    HW229935   4.247   3.715   3.823
 7404SOL    HW329936   4.358   3.661   3.909
 7404SOL    MW429937   4.332   3.709   3.840
 7405SOL     OW29938   4.652   2.592   5.178
 7405SOL    HW229939   4.721   2.659   5.175
 7405SOL    HW329940   4.585   2.630   5.234
 7405SOL    MW429941   4.653   2.605   5.185
 7406SOL     OW29942   4.070   2.892   5.426
 7406SOL    HW229943   4.024   2.808   5.428
 7406SOL    HW329944   4.127   2.886   5.350
 7406SOL    MW429945   4.072   2.880   5.418
 7407SOL     OW29946   5.187   2.535   3.747
 7407SOL    HW229947   5.115   2.511   3.689
 7407SOL    HW329948   5.253   2.572   3.689
 7407SOL    MW429949   5.186   2.537   3.732
 7408SOL     OW29950   4.321   3.267   4.427
 7408SOL    HW229951   4.386   3.200   4.448
 7408SOL    HW329952   4.373   3.344   4.404
 7408SOL    MW429953   4.336   3.269   4.426
 7409SOL     OW29954   4.582   2.432   4.557
 7409SOL    HW229955   4.522   2.450   4.629
 7409SOL    HW329956   4.616   2.344   4.576
 7409SOL    MW429957   4.578   2.422   4.570
 7410SOL     OW29958   5.523   1.931   5.226
 7410SOL    HW229959   5.444   1.977   5.254
 7410SOL    HW329960   5.558   1.985   5.155
 7410SOL    MW429961   5.517   1.944   5.220
 7411SOL     OW29962   4.807   3.015   4.576
 7411SOL    HW229963   4.899   2.996   4.594
 7411SOL    HW329964   4.780   2.945   4.516
 7411SOL    MW429965   4.815   3.003   4.570
 7412SOL     OW29966   4.600   2.835   3.931
 7412SOL    HW229967   4.586   2.747   3.896
 7412SOL    HW329968   4.551   2.892   3.872
 7412SOL    MW429969   4.592   2.830   3.919
 7413SOL     OW29970   5.081   3.253   4.672
 7413SOL    HW229971   5.054   3.337   4.637
 7413SOL    HW329972   5.041   3.248   4.759
 7413SOL    MW429973   5.074   3.262   4.678
 7414SOL     OW29974   5.000   3.201   4.940
 7414SOL    HW229975   5.011   3.168   5.029
 7414SOL    HW329976   4.919   3.160   4.909
 7414SOL    MW429977   4.990   3.193   4.946
 7415SOL     OW29978   4.013   2.559   4.710
 7415SOL    HW229979   3.963   2.558   4.791
 7415SOL    HW329980   4.033   2.651   4.694
 7415SOL    MW429981   4.009   2.571   4.718
 7416SOL     OW29982   5.080   3.323   5.472
 7416SOL    HW229983   5.080   3.417   5.488
 7416SOL    HW329984   5.125   3.313   5.388
 7416SOL    MW429985   5.086   3.333   5.463
 7417SOL     OW29986   5.319   2.041   4.033
 7417SOL    HW229987   5.312   2.045   4.128
 7417SOL    HW329988   5.331   2.132   4.006
 7417SOL    MW429989   5.320   2.054   4.041
 7418SOL     OW29990   4.608   2.604   4.147
 7418SOL    HW229991   4.588   2.590   4.054
 7418SOL    HW329992   4.701   2.583   4.154
 7418SOL    MW429993   4.618   2.599   4.136
 7419SOL     OW29994   3.935   2.227   5.451
 7419SOL    HW229995   3.892   2.286   5.388
 7419SOL    HW329996   4.003   2.282   5.491
 7419SOL    MW429997   3.939   2.242   5.448
 7420SOL     OW29998   5.047   2.847   4.996
 7420SOL    HW229999   5.110   2.844   5.069
 7420SOL    HW330000   4.963   2.865   5.038
 7420SOL    MW430001   5.043   2.849   5.011
 7421SOL     OW30002   4.591   3.562   4.185
 7421SOL    HW230003   4.649   3.633   4.212
 7421SOL    HW330004   4.614   3.490   4.243
 7421SOL    MW430005   4.602   3.562   4.196
 7422SOL     OW30006   5.386   2.024   4.775
 7422SOL    HW230007   5.431   1.942   4.794
 7422SOL    HW330008   5.406   2.080   4.851
 7422SOL    MW430009   5.396   2.020   4.787
 7423SOL     OW30010   3.834   1.867   4.874
 7423SOL    HW230011   3.825   1.868   4.779
 7423SOL    HW330012   3.928   1.879   4.889
 7423SOL    MW430013   3.846   1.870   4.865
 7424SOL     OW30014   5.471   3.060   4.494
 7424SOL    HW230015   5.450   3.006   4.417
 7424SOL    HW330016   5.567   3.058   4.498
 7424SOL    MW430017   5.480   3.053   4.483
 7425SOL     OW30018   4.163   3.205   5.237
 7425SOL    HW230019   4.084   3.155   5.260
 7425SOL    HW330020   4.233   3.164   5.287
 7425SOL    MW430021   4.161   3.193   5.247
 7426SOL     OW30022   4.047   1.994   3.920
 7426SOL    HW230023   3.976   2.049   3.888
 7426SOL    HW330024   4.089   1.960   3.841
 7426SOL    MW430025   4.043   1.996   3.906
 7427SOL     OW30026   5.171   2.491   4.756
 7427SOL    HW230027   5.094   2.537   4.722
 7427SOL    HW330028   5.228   2.560   4.790
 7427SOL    MW430029   5.168   2.506   4.756
 7428SOL     OW30030   3.803   2.093   3.769
 7428SOL    HW230031   3.770   2.172   3.813
 7428SOL    HW330032   3.858   2.126   3.698
 7428SOL    MW430033   3.806   2.107   3.766
 7429SOL     OW30034   3.837   3.350   3.958
 7429SOL    HW230035   3.854   3.434   4.000
 7429SOL    HW330036   3.872   3.359   3.870
 7429SOL    MW430037   3.842   3.363   3.952
 7430SOL     OW30038   5.109   3.439   4.175
 7430SOL    HW230039   5.172   3.429   4.104
 7430SOL    HW330040   5.026   3.459   4.130
 7430SOL    MW430041   5.106   3.440   4.160
 7431SOL     OW30042   5.472   2.707   5.862
 7431SOL    HW230043   5.513   2.649   5.927
 7431SOL    HW330044   5.379   2.699   5.879
 7431SOL    MW430045   5.466   2.699   5.872
 7432SOL     OW30046   4.266   2.890   6.091
 7432SOL    HW230047   4.356   2.865   6.075
 7432SOL    HW330048   4.262   2.983   6.068
 7432SOL    MW430049   4.278   2.899   6.086
 7433SOL     OW30050   5.382   3.593   6.233
 7433SOL    HW230051   5.394   3.539   6.311
 7433SOL    HW330052   5.419   3.541   6.162
 7433SOL    MW430053   5.388   3.578   6.234
 7434SOL     OW30054   4.550   2.346   6.104
 7434SOL    HW230055   4.525   2.434   6.132
 7434SOL    HW330056   4.547   2.349   6.008
 7434SOL    MW430057   4.546   2.358   6.096
 7435SOL     OW30058   3.992   2.374   6.032
 7435SOL    HW230059   4.024   2.462   6.014
 7435SOL    HW330060   3.980   2.372   6.127
 7435SOL    MW430061   3.995   2.386   6.044
 7436SOL     OW30062   4.391   2.129   6.119
 7436SOL    HW230063   4.449   2.205   6.121
 7436SOL    HW330064   4.326   2.150   6.052
 7436SOL    MW430065   4.390   2.141   6.110
 7437SOL     OW30066   4.478   3.056   6.294
 7437SOL    HW230067   4.558   3.059   6.346
 7437SOL    HW330068   4.506   3.023   6.208
 7437SOL    MW430069   4.492   3.052   6.289
 7438SOL     OW30070   4.255   2.560   6.285
 7438SOL    HW230071   4.240   2.480   6.336
 7438SOL    HW330072   4.337   2.595   6.319
 7438SOL    MW430073   4.263   2.552   6.297
 7439SOL     OW30074   4.143   2.800   6.566
 7439SOL    HW230075   4.098   2.807   6.482
 7439SOL    HW330076   4.123   2.883   6.610
 7439SOL    MW430077   4.135   2.812   6.560
 7440SOL     OW30078   3.840   3.646   6.441
 7440SOL    HW230079   3.929   3.638   6.476
 7440SOL    HW330080   3.804   3.558   6.446
 7440SOL    MW430081   3.847   3.633   6.446
 7441SOL     OW30082   5.105   3.038   5.810
 7441SOL    HW230083   5.023   3.074   5.776
 7441SOL    HW330084   5.173   3.081   5.759
 7441SOL    MW430085   5.103   3.048   5.798
 7442SOL     OW30086   4.666   2.817   6.286
 7442SOL    HW230087   4.580   2.804   6.326
 7442SOL    HW330088   4.719   2.744   6.318
 7442SOL    MW430089   4.662   2.806   6.295
 7443SOL     OW30090   4.657   3.179   6.003
 7443SOL    HW230091   4.634   3.241   6.071
 7443SOL    HW330092   4.614   3.097   6.029
 7443SOL    MW430093   4.649   3.175   6.014
 7444SOL     OW30094   5.530   2.180   6.459
 7444SOL    HW230095   5.467   2.160   6.528
 7444SOL    HW330096   5.520   2.109   6.396
 7444SOL    MW430097   5.520   2.167   6.460
 7445SOL     OW30098   4.154   2.152   5.971
 7445SOL    HW230099   4.128   2.114   5.887
 7445SOL    HW330100   4.091   2.222   5.987
 7445SOL    MW430101   4.143   2.155   5.962
 7446SOL     OW30102   3.989   3.113   6.008
 7446SOL    HW230103   3.937   3.181   5.964
 7446SOL    HW330104   3.986   3.039   5.948
 7446SOL    MW430105   3.981   3.112   5.995
 7447SOL     OW30106   4.651   3.576   5.786
 7447SOL    HW230107   4.606   3.592   5.869
 7447SOL    HW330108   4.582   3.541   5.728
 7447SOL    MW430109   4.637   3.573   5.788
 7448SOL     OW30110   5.586   2.349   5.761
 7448SOL    HW230111   5.495   2.351   5.789
 7448SOL    HW330112   5.631   2.411   5.819
 7448SOL    MW430113   5.579   2.357   5.771
 7449SOL     OW30114   5.331   2.952   6.111
 7449SOL    HW230115   5.241   2.952   6.146
 7449SOL    HW330116   5.324   2.998   6.028
 7449SOL    MW430117   5.318   2.958   6.105
 7450SOL     OW30118   4.858   2.533   6.072
 7450SOL    HW230119   4.884   2.557   5.983
 7450SOL    HW330120   4.840   2.440   6.068
 7450SOL    MW430121   4.860   2.525   6.059
 7451SOL     OW30122   5.523   3.153   5.923
 7451SOL    HW230123   5.479   3.194   5.998
 7451SOL    HW330124   5.580   3.221   5.888
 7451SOL    MW430125   5.525   3.167   5.928
 7452SOL     OW30126   4.179   3.569   6.241
 7452SOL    HW230127   4.211   3.657   6.219
 7452SOL    HW330128   4.132   3.541   6.163
 7452SOL    MW430129   4.178   3.577   6.228
 7453SOL     OW30130   5.563   1.931   6.290
 7453SOL    HW230131   5.617   1.882   6.352
 7453SOL    HW330132   5.506   1.865   6.251
 7453SOL    MW430133   5.563   1.915   6.292
 7454SOL     OW30134   3.895   3.629   5.818
 7454SOL    HW230135   3.924   3.719   5.810
 7454SOL    HW330136   3.845   3.612   5.739
 7454SOL    MW430137   3.893   3.637   5.807
 7455SOL     OW30138   5.299   3.437   5.789
 7455SOL    HW230139   5.347   3.506   5.835
 7455SOL    HW330140   5.220   3.481   5.758
 7455SOL    MW430141   5.294   3.451   5.792
 7456SOL     OW30142   4.697   2.562   5.733
 7456SOL    HW230143   4.699   2.509   5.654
 7456SOL    HW330144   4.785   2.599   5.739
 7456SOL    MW430145   4.709   2.561   5.722
 7457SOL     OW30146   5.311   2.488   6.069
 7457SOL    HW230147   5.350   2.488   6.156
 7457SOL    HW330148   5.252   2.564   6.069
 7457SOL    MW430149   5.308   2.499   6.080
 7458SOL     OW30150   5.498   2.374   6.235
 7458SOL    HW230151   5.587   2.343   6.252
 7458SOL    HW330152   5.441   2.314   6.283
 7458SOL    MW430153   5.501   2.362   6.244
 7459SOL     OW30154   3.924   2.088   6.264
 7459SOL    HW230155   3.915   2.028   6.190
 7459SOL    HW330156   3.857   2.059   6.327
 7459SOL    MW430157   3.914   2.075   6.262
 7460SOL     OW30158   4.867   3.181   5.825
 7460SOL    HW230159   4.817   3.183   5.907
 7460SOL    HW330160   4.801   3.199   5.757
 7460SOL    MW430161   4.853   3.183   5.827
 7461SOL     OW30162   4.330   3.599   5.933
 7461SOL    HW230163   4.251   3.557   5.966
 7461SOL    HW330164   4.396   3.582   6.000
 7461SOL    MW430165   4.329   3.591   5.946
 7462SOL     OW30166   4.466   3.014   5.640
 7462SOL    HW230167   4.388   2.960   5.627
 7462SOL    HW330168   4.437   3.087   5.693
 7462SOL    MW430169   4.452   3.016   5.645
 7463SOL     OW30170   5.047   3.530   5.708
 7463SOL    HW230171   4.973   3.493   5.758
 7463SOL    HW330172   5.055   3.620   5.741
 7463SOL    MW430173   5.038   3.537   5.720
 7464SOL     OW30174   5.271   3.204   5.650
 7464SOL    HW230175   5.218   3.253   5.586
 7464SOL    HW330176   5.302   3.270   5.711
 7464SOL    MW430177   5.269   3.218   5.648
 7465SOL     OW30178   4.496   2.093   5.705
 7465SOL    HW230179   4.444   2.013   5.693
 7465SOL    HW330180   4.583   2.070   5.673
 7465SOL    MW430181   4.499   2.079   5.699
 7466SOL     OW30182   3.857   2.733   6.162
 7466SOL    HW230183   3.948   2.748   6.189
 7466SOL    HW330184   3.860   2.654   6.108
 7466SOL    MW430185   3.869   2.725   6.160
 7467SOL     OW30186   4.484   3.665   6.536
 7467SOL    HW230187   4.573   3.680   6.566
 7467SOL    HW330188   4.479   3.712   6.452
 7467SOL    MW430189   4.494   3.673   6.529
 7468SOL     OW30190   3.865   3.345   6.201
 7468SOL    HW230191   3.837   3.384   6.283
 7468SOL    HW330192   3.885   3.254   6.223
 7468SOL    MW430193   3.863   3.337   6.214
 7469SOL     OW30194   4.698   3.388   6.236
 7469SOL    HW230195   4.781   3.342   6.220
 7469SOL    HW330196   4.688   3.387   6.332
 7469SOL    MW430197   4.708   3.381   6.246
 7470SOL     OW30198   4.431   3.445   5.641
 7470SOL    HW230199   4.371   3.514   5.611
 7470SOL    HW330200   4.376   3.387   5.694
 7470SOL    MW430201   4.415   3.447   5.643
 7471SOL     OW30202   4.869   2.090   5.864
 7471SOL    HW230203   4.802   2.066   5.801
 7471SOL    HW330204   4.934   2.139   5.813
 7471SOL    MW430205   4.869   2.092   5.849
 7472SOL     OW30206   4.388   2.807   6.376
 7472SOL    HW230207   4.299   2.798   6.409
 7472SOL    HW330208   4.392   2.897   6.344
 7472SOL    MW430209   4.377   2.818   6.376
 7473SOL     OW30210   5.187   2.390   6.371
 7473SOL    HW230211   5.132   2.311   6.370
 7473SOL    HW330212   5.169   2.431   6.455
 7473SOL    MW430213   5.177   2.385   6.380
 7474SOL     OW30214   4.806   2.594   6.328
 7474SOL    HW230215   4.743   2.526   6.352
 7474SOL    HW330216   4.826   2.575   6.236
 7474SOL    MW430217   4.800   2.581   6.320
 7475SOL     OW30218   4.062   3.489   6.030
 7475SOL    HW230219   4.023   3.536   5.956
 7475SOL    HW330220   3.996   3.424   6.055
 7475SOL    MW430221   4.049   3.487   6.024
 7476SOL     OW30222   4.554   2.898   6.054
 7476SOL    HW230223   4.556   2.872   5.961
 7476SOL    HW330224   4.612   2.835   6.097
 7476SOL    MW430225   4.562   2.887   6.048
 7477SOL     OW30226   5.111   3.666   6.256
 7477SOL    HW230227   5.054   3.619   6.195
 7477SOL    HW330228   5.197   3.627   6.243
 7477SOL    MW430229   5.114   3.657   6.246
 7478SOL     OW30230   5.064   2.142   6.387
 7478SOL    HW230231   5.092   2.074   6.448
 7478SOL    HW330232   4.978   2.113   6.357
 7478SOL    MW430233   5.057   2.129   6.391
 7479SOL     OW30234   3.869   3.076   6.321
 7479SOL    HW230235   3.933   3.108   6.384
 7479SOL    HW330236   3.918   3.012   6.269
 7479SOL    MW430237   3.884   3.072   6.322
 7480SOL     OW30238   5.044   2.246   5.722
 7480SOL    HW230239   5.017   2.312   5.658
 7480SOL    HW330240   5.114   2.289   5.772
 7480SOL    MW430241   5.049   2.259   5.719
 7481SOL     OW30242   4.712   1.951   5.659
 7481SOL    HW230243   4.768   1.943   5.581
 7481SOL    HW330244   4.689   1.861   5.681
 7481SOL    MW430245   4.717   1.938   5.652
 7482SOL     OW30246   5.217   2.802   5.864
 7482SOL    HW230247   5.184   2.891   5.854
 7482SOL    HW330248   5.182   2.773   5.949
 7482SOL    MW430249   5.207   2.811   5.875
 7483SOL     OW30250   4.211   2.840   5.656
 7483SOL    HW230251   4.134   2.853   5.712
 7483SOL    HW330252   4.175   2.804   5.575
 7483SOL    MW430253   4.197   2.836   5.653
 7484SOL     OW30254   4.864   2.813   5.899
 7484SOL    HW230255   4.774   2.834   5.874
 7484SOL    HW330256   4.891   2.886   5.955
 7484SOL    MW430257   4.856   2.825   5.902
 7485SOL     OW30258   4.493   1.929   6.306
 7485SOL    HW230259   4.422   1.990   6.288
 7485SOL    HW330260   4.544   1.926   6.225
 7485SOL    MW430261   4.489   1.935   6.293
 7486SOL     OW30262   4.960   3.527   6.454
 7486SOL    HW230263   5.007   3.600   6.413
 7486SOL    HW330264   4.881   3.566   6.490
 7486SOL    MW430265   4.955   3.542   6.453
 7487SOL     OW30266   4.254   2.453   5.769
 7487SOL    HW230267   4.220   2.509   5.839
 7487SOL    HW330268   4.325   2.403   5.809
 7487SOL    MW430269   4.260   2.454   5.783
 7488SOL     OW30270   5.310   2.339   5.833
 7488SOL    HW230271   5.302   2.410   5.770
 7488SOL    HW330272   5.328   2.383   5.916
 7488SOL    MW430273   5.311   2.353   5.835
 7489SOL     OW30274   4.170   1.994   6.262
 7489SOL    HW230275   4.220   2.037   6.193
 7489SOL    HW330276   4.085   2.038   6.262
 7489SOL    MW430277   4.167   2.007   6.253
 7490SOL     OW30278   4.979   2.601   5.808
 7490SOL    HW230279   5.026   2.619   5.727
 7490SOL    HW330280   4.945   2.685   5.836
 7490SOL    MW430281   4.981   2.615   5.801
 7491SOL     OW30282   4.092   2.779   6.302
 7491SOL    HW230283   4.150   2.835   6.250
 7491SOL    HW330284   4.136   2.694   6.304
 7491SOL    MW430285   4.105   2.776   6.295
 7492SOL     OW30286   5.232   2.131   6.139
 7492SOL    HW230287   5.154   2.081   6.164
 7492SOL    HW330288   5.203   2.222   6.139
 7492SOL    MW430289   5.218   2.135   6.142
 7493SOL     OW30290   4.818   2.093   6.298
 7493SOL    HW230291   4.838   2.168   6.242
 7493SOL    HW330292   4.798   2.132   6.383
 7493SOL    MW430293   4.819   2.109   6.302
 7494SOL     OW30294   4.714   3.343   5.630
 7494SOL    HW230295   4.741   3.421   5.582
 7494SOL    HW330296   4.621   3.358   5.649
 7494SOL    MW430297   4.705   3.356   5.626
 7495SOL     OW30298   3.754   2.505   6.021
 7495SOL    HW230299   3.694   2.477   6.091
 7495SOL    HW330300   3.828   2.445   6.027
 7495SOL    MW430301   3.756   2.494   6.030
 7496SOL     OW30302   4.922   3.236   6.181
 7496SOL    HW230303   4.945   3.187   6.259
 7496SOL    HW330304   5.003   3.278   6.153
 7496SOL    MW430305   4.935   3.236   6.188
 7497SOL     OW30306   4.277   1.989   6.537
 7497SOL    HW230307   4.287   1.898   6.563
 7497SOL    HW330308   4.233   1.985   6.452
 7497SOL    MW430309   4.273   1.977   6.529
 7498SOL     OW30310   5.062   1.903   5.817
 7498SOL    HW230311   5.136   1.947   5.860
 7498SOL    HW330312   4.986   1.957   5.839
 7498SOL    MW430313   5.062   1.915   5.825
 7499SOL     OW30314   5.122   2.678   6.095
 7499SOL    HW230315   5.037   2.648   6.065
 7499SOL    HW330316   5.114   2.685   6.190
 7499SOL    MW430317   5.110   2.676   6.104
 7500SOL     OW30318   4.495   2.344   5.821
 7500SOL    HW230319   4.568   2.393   5.784
 7500SOL    HW330320   4.511   2.253   5.795
 7500SOL    MW430321   4.507   2.339   5.814
 7501SOL     OW30322   3.970   2.853   5.919
 7501SOL    HW230323   3.907   2.869   5.848
 7501SOL    HW330324   3.917   2.816   5.990
 7501SOL    MW430325   3.955   2.850   5.919
 7502SOL     OW30326   4.326   3.207   5.778
 7502SOL    HW230327   4.341   3.183   5.870
 7502SOL    HW330328   4.234   3.185   5.762
 7502SOL    MW430329   4.316   3.200   5.788
 7503SOL     OW30330   4.865   3.438   5.930
 7503SOL    HW230331   4.873   3.356   5.881
 7503SOL    HW330332   4.784   3.477   5.897
 7503SOL    MW430333   4.855   3.433   5.920
 7504SOL     OW30334   4.124   3.596   6.499
 7504SOL    HW230335   4.128   3.507   6.534
 7504SOL    HW330336   4.150   3.587   6.408
 7504SOL    MW430337   4.127   3.584   6.491
 7505SOL     OW30338   4.201   2.319   6.376
 7505SOL    HW230339   4.272   2.267   6.339
 7505SOL    HW330340   4.187   2.284   6.463
 7505SOL    MW430341   4.209   2.308   6.383
 7506SOL     OW30342   4.517   3.412   6.452
 7506SOL    HW230343   4.445   3.349   6.465
 7506SOL    HW330344   4.478   3.497   6.470
 7506SOL    MW430345   4.501   3.415   6.455
 7507SOL     OW30346   4.837   2.260   6.100
 7507SOL    HW230347   4.859   2.197   6.032
 7507SOL    HW330348   4.742   2.252   6.111
 7507SOL    MW430349   4.827   2.251   6.092
 7508SOL     OW30350   3.922   1.950   6.032
 7508SOL    HW230351   3.993   1.971   5.971
 7508SOL    HW330352   3.876   1.878   5.990
 7508SOL    MW430353   3.926   1.944   6.018
 7509SOL     OW30354   5.491   3.324   6.132
 7509SOL    HW230355   5.461   3.257   6.193
 7509SOL    HW330356   5.585   3.330   6.146
 7509SOL    MW430357   5.499   3.316   6.142
 7510SOL     OW30358   5.047   3.001   6.062
 7510SOL    HW230359   5.019   3.087   6.095
 7510SOL    HW330360   5.075   3.017   5.972
 7510SOL    MW430361   5.047   3.015   6.054
 7511SOL     OW30362   4.709   1.921   6.115
 7511SOL    HW230363   4.746   1.980   6.180
 7511SOL    HW330364   4.686   1.977   6.041
 7511SOL    MW430365   4.710   1.936   6.114
 7512SOL     OW30366   5.562   2.803   6.537
 7512SOL    HW230367   5.553   2.835   6.448
 7512SOL    HW330368   5.515   2.719   6.537
 7512SOL    MW430369   5.555   2.796   6.527
 7513SOL     OW30370   5.474   2.734   6.238
 7513SOL    HW230371   5.568   2.723   6.226
 7513SOL    HW330372   5.450   2.806   6.179
 7513SOL    MW430373   5.484   2.742   6.229
 7514SOL     OW30374   4.130   2.612   6.011
 7514SOL    HW230375   4.130   2.707   5.996
 7514SOL    HW330376   4.207   2.596   6.065
 7514SOL    MW430377   4.140   2.623   6.016
 7515SOL     OW30378   3.889   2.343   6.300
 7515SOL    HW230379   3.951   2.350   6.373
 7515SOL    HW330380   3.889   2.250   6.277
 7515SOL    MW430381   3.897   2.332   6.307
 7516SOL     OW30382   5.436   3.683   5.832
 7516SOL    HW230383   5.503   3.716   5.772
 7516SOL    HW330384   5.393   3.762   5.866
 7516SOL    MW430385   5.438   3.698   5.828
 7517SOL     OW30386   3.758   2.915   5.758
 7517SOL    HW230387   3.727   2.980   5.821
 7517SOL    HW330388   3.707   2.837   5.777
 7517SOL    MW430389   3.748   2.912   5.768
 7518SOL     OW30390   5.202   2.666   6.350
 7518SOL    HW230391   5.282   2.681   6.299
 7518SOL    HW330392   5.195   2.571   6.356
 7518SOL    MW430393   5.211   2.655   6.345
 7519SOL     OW30394   4.342   3.715   5.700
 7519SOL    HW230395   4.247   3.715   5.692
 7519SOL    HW330396   4.358   3.661   5.778
 7519SOL    MW430397   4.332   3.709   5.709
 7520SOL     OW30398   5.187   2.535   5.615
 7520SOL    HW230399   5.115   2.511   5.557
 7520SOL    HW330400   5.253   2.572   5.557
 7520SOL    MW430401   5.186   2.537   5.600
 7521SOL     OW30402   4.321   3.267   6.296
 7521SOL    HW230403   4.386   3.200   6.317
 7521SOL    HW330404   4.373   3.344   6.273
 7521SOL    MW430405   4.336   3.269   6.295
 7522SOL     OW30406   4.582   2.432   6.426
 7522SOL    HW230407   4.522   2.450   6.498
 7522SOL    HW330408   4.616   2.344   6.445
 7522SOL    MW430409   4.578   2.422   6.439
 7523SOL     OW30410   4.807   3.015   6.445
 7523SOL    HW230411   4.899   2.996   6.463
 7523SOL    HW330412   4.780   2.945   6.385
 7523SOL    MW430413   4.815   3.003   6.439
 7524SOL     OW30414   4.600   2.835   5.800
 7524SOL    HW230415   4.586   2.747   5.765
 7524SOL    HW330416   4.551   2.892   5.741
 7524SOL    MW430417   4.592   2.830   5.788
 7525SOL     OW30418   5.319   2.041   5.902
 7525SOL    HW230419   5.312   2.045   5.997
 7525SOL    HW330420   5.331   2.132   5.875
 7525SOL    MW430421   5.320   2.054   5.910
 7526SOL     OW30422   4.608   2.604   6.016
 7526SOL    HW230423   4.588   2.590   5.923
 7526SOL    HW330424   4.701   2.583   6.023
 7526SOL    MW430425   4.618   2.599   6.005
 7527SOL     OW30426   4.591   3.562   6.054
 7527SOL    HW230427   4.649   3.633   6.081
 7527SOL    HW330428   4.614   3.490   6.112
 7527SOL    MW430429   4.602   3.562   6.065
 7528SOL     OW30430   5.471   3.060   6.363
 7528SOL    HW230431   5.450   3.006   6.286
 7528SOL    HW330432   5.567   3.058   6.367
 7528SOL    MW430433   5.480   3.053   6.352
 7529SOL     OW30434   4.047   1.994   5.789
 7529SOL    HW230435   3.976   2.049   5.757
 7529SOL    HW330436   4.089   1.960   5.710
 7529SOL    MW430437   4.043   1.996   5.775
 7530SOL     OW30438   3.803   2.093   5.638
 7530SOL    HW230439   3.770   2.172   5.682
 7530SOL    HW330440   3.858   2.126   5.567
 7530SOL    MW430441   3.806   2.107   5.635
 7531SOL     OW30442   3.837   3.350   5.827
 7531SOL    HW230443   3.854   3.434   5.869
 7531SOL    HW330444   3.872   3.359   5.739
 7531SOL    MW430445   3.842   3.363   5.821
 7532SOL     OW30446   5.109   3.439   6.044
 7532SOL    HW230447   5.172   3.429   5.973
 7532SOL    HW330448   5.026   3.459   5.999
 7532SOL    MW430449   5.106   3.440   6.029
 7533SOL     OW30450   5.472   4.575   0.257
 7533SOL    HW230451   5.513   4.517   0.322
 7533SOL    HW330452   5.379   4.567   0.274
 7533SOL    MW430453   5.466   4.567   0.267
 7534SOL     OW30454   5.338   4.507   1.252
 7534SOL    HW230455   5.293   4.574   1.303
 7534SOL    HW330456   5.426   4.543   1.238
 7534SOL    MW430457   5.344   4.520   1.256
 7535SOL     OW30458   4.266   4.758   0.486
 7535SOL    HW230459   4.356   4.733   0.470
 7535SOL    HW330460   4.262   4.851   0.463
 7535SOL    MW430461   4.278   4.767   0.481
 7536SOL     OW30462   5.382   5.461   0.628
 7536SOL    HW230463   5.394   5.407   0.706
 7536SOL    HW330464   5.419   5.409   0.557
 7536SOL    MW430465   5.388   5.446   0.629
 7537SOL     OW30466   5.318   4.901   1.233
 7537SOL    HW230467   5.239   4.866   1.191
 7537SOL    HW330468   5.345   4.973   1.177
 7537SOL    MW430469   5.311   4.906   1.220
 7538SOL     OW30470   4.550   4.214   0.499
 7538SOL    HW230471   4.525   4.302   0.527
 7538SOL    HW330472   4.547   4.217   0.403
 7538SOL    MW430473   4.546   4.226   0.491
 7539SOL     OW30474   3.992   4.242   0.427
 7539SOL    HW230475   4.024   4.330   0.409
 7539SOL    HW330476   3.980   4.240   0.522
 7539SOL    MW430477   3.995   4.254   0.439
 7540SOL     OW30478   4.070   4.655   1.328
 7540SOL    HW230479   4.133   4.602   1.279
 7540SOL    HW330480   4.051   4.729   1.271
 7540SOL    MW430481   4.076   4.657   1.315
 7541SOL     OW30482   4.391   3.997   0.514
 7541SOL    HW230483   4.449   4.073   0.516
 7541SOL    HW330484   4.326   4.018   0.447
 7541SOL    MW430485   4.390   4.009   0.505
 7542SOL     OW30486   4.478   4.924   0.689
 7542SOL    HW230487   4.558   4.927   0.741
 7542SOL    HW330488   4.506   4.891   0.603
 7542SOL    MW430489   4.492   4.920   0.684
 7543SOL     OW30490   4.503   5.265   1.592
 7543SOL    HW230491   4.587   5.291   1.631
 7543SOL    HW330492   4.527   5.209   1.518
 7543SOL    MW430493   4.517   5.261   1.587
 7544SOL     OW30494   4.255   4.428   0.680
 7544SOL    HW230495   4.240   4.348   0.731
 7544SOL    HW330496   4.337   4.463   0.714
 7544SOL    MW430497   4.263   4.420   0.692
 7545SOL     OW30498   4.592   5.114   1.365
 7545SOL    HW230499   4.556   5.180   1.305
 7545SOL    HW330500   4.520   5.052   1.378
 7545SOL    MW430501   4.578   5.114   1.359
 7546SOL     OW30502   4.397   4.254   1.057
 7546SOL    HW230503   4.303   4.250   1.075
 7546SOL    HW330504   4.427   4.163   1.066
 7546SOL    MW430505   4.388   4.242   1.060
 7547SOL     OW30506   4.143   4.668   0.961
 7547SOL    HW230507   4.098   4.675   0.877
 7547SOL    HW330508   4.123   4.751   1.005
 7547SOL    MW430509   4.135   4.680   0.955
 7548SOL     OW30510   3.840   5.514   0.836
 7548SOL    HW230511   3.929   5.506   0.871
 7548SOL    HW330512   3.804   5.426   0.841
 7548SOL    MW430513   3.847   5.501   0.841
 7549SOL     OW30514   5.105   4.906   0.205
 7549SOL    HW230515   5.023   4.942   0.171
 7549SOL    HW330516   5.173   4.949   0.154
 7549SOL    MW430517   5.103   4.916   0.193
 7550SOL     OW30518   4.104   5.041   0.871
 7550SOL    HW230519   4.080   5.094   0.947
 7550SOL    HW330520   4.160   5.099   0.819
 7550SOL    MW430521   4.108   5.056   0.874
 7551SOL     OW30522   4.666   4.685   0.681
 7551SOL    HW230523   4.580   4.672   0.721
 7551SOL    HW330524   4.719   4.612   0.713
 7551SOL    MW430525   4.662   4.674   0.690
 7552SOL     OW30526   4.074   5.337   1.466
 7552SOL    HW230527   3.982   5.313   1.451
 7552SOL    HW330528   4.118   5.254   1.483
 7552SOL    MW430529   4.068   5.322   1.465
 7553SOL     OW30530   4.657   5.047   0.398
 7553SOL    HW230531   4.634   5.109   0.466
 7553SOL    HW330532   4.614   4.965   0.424
 7553SOL    MW430533   4.649   5.043   0.409
 7554SOL     OW30534   5.530   4.048   0.854
 7554SOL    HW230535   5.467   4.028   0.923
 7554SOL    HW330536   5.520   3.977   0.791
 7554SOL    MW430537   5.520   4.035   0.855
 7555SOL     OW30538   4.154   4.020   0.366
 7555SOL    HW230539   4.128   3.982   0.282
 7555SOL    HW330540   4.091   4.090   0.382
 7555SOL    MW430541   4.143   4.023   0.357
 7556SOL     OW30542   3.989   4.981   0.403
 7556SOL    HW230543   3.937   5.049   0.359
 7556SOL    HW330544   3.986   4.907   0.343
 7556SOL    MW430545   3.981   4.980   0.390
 7557SOL     OW30546   4.651   5.444   0.181
 7557SOL    HW230547   4.606   5.460   0.264
 7557SOL    HW330548   4.582   5.409   0.123
 7557SOL    MW430549   4.637   5.441   0.183
 7558SOL     OW30550   5.331   4.820   0.506
 7558SOL    HW230551   5.241   4.820   0.541
 7558SOL    HW330552   5.324   4.866   0.423
 7558SOL    MW430553   5.318   4.826   0.500
 7559SOL     OW30554   5.131   4.455   1.578
 7559SOL    HW230555   5.200   4.393   1.555
 7559SOL    HW330556   5.056   4.429   1.525
 7559SOL    MW430557   5.131   4.442   1.569
 7560SOL     OW30558   3.872   5.335   1.130
 7560SOL    HW230559   3.855   5.281   1.207
 7560SOL    HW330560   3.860   5.425   1.160
 7560SOL    MW430561   3.869   5.339   1.144
 7561SOL     OW30562   4.867   4.842   1.570
 7561SOL    HW230563   4.852   4.935   1.555
 7561SOL    HW330564   4.962   4.832   1.570
 7561SOL    MW430565   4.876   4.852   1.567
 7562SOL     OW30566   4.663   4.266   1.771
 7562SOL    HW230567   4.753   4.267   1.738
 7562SOL    HW330568   4.622   4.191   1.729
 7562SOL    MW430569   4.669   4.256   1.762
 7563SOL     OW30570   5.238   4.798   0.898
 7563SOL    HW230571   5.241   4.732   0.829
 7563SOL    HW330572   5.323   4.841   0.894
 7563SOL    MW430573   5.250   4.794   0.889
 7564SOL     OW30574   4.858   4.401   0.467
 7564SOL    HW230575   4.884   4.425   0.378
 7564SOL    HW330576   4.840   4.308   0.463
 7564SOL    MW430577   4.860   4.393   0.454
 7565SOL     OW30578   5.523   5.021   0.318
 7565SOL    HW230579   5.479   5.062   0.393
 7565SOL    HW330580   5.580   5.089   0.283
 7565SOL    MW430581   5.525   5.035   0.323
 7566SOL     OW30582   4.443   4.070   1.721
 7566SOL    HW230583   4.453   3.996   1.661
 7566SOL    HW330584   4.479   4.039   1.804
 7566SOL    MW430585   4.449   4.056   1.723
 7567SOL     OW30586   4.179   5.437   0.636
 7567SOL    HW230587   4.211   5.525   0.614
 7567SOL    HW330588   4.132   5.409   0.558
 7567SOL    MW430589   4.178   5.445   0.623
 7568SOL     OW30590   5.563   3.799   0.685
 7568SOL    HW230591   5.617   3.750   0.747
 7568SOL    HW330592   5.506   3.733   0.646
 7568SOL    MW430593   5.563   3.783   0.687
 7569SOL     OW30594   3.895   5.497   0.213
 7569SOL    HW230595   3.924   5.587   0.205
 7569SOL    HW330596   3.845   5.480   0.134
 7569SOL    MW430597   3.893   5.505   0.202
 7570SOL     OW30598   4.682   3.752   1.098
 7570SOL    HW230599   4.641   3.830   1.060
 7570SOL    HW330600   4.776   3.770   1.093
 7570SOL    MW430601   4.688   3.764   1.093
 7571SOL     OW30602   4.697   4.430   0.128
 7571SOL    HW230603   4.699   4.377   0.049
 7571SOL    HW330604   4.785   4.467   0.134
 7571SOL    MW430605   4.709   4.429   0.117
 7572SOL     OW30606   5.311   4.356   0.464
 7572SOL    HW230607   5.350   4.356   0.551
 7572SOL    HW330608   5.252   4.432   0.464
 7572SOL    MW430609   5.308   4.367   0.475
 7573SOL     OW30610   4.628   4.723   1.593
 7573SOL    HW230611   4.605   4.703   1.683
 7573SOL    HW330612   4.713   4.767   1.598
 7573SOL    MW430613   4.635   4.726   1.605
 7574SOL     OW30614   4.708   3.860   1.353
 7574SOL    HW230615   4.714   3.822   1.266
 7574SOL    HW330616   4.697   3.954   1.338
 7574SOL    MW430617   4.709   3.868   1.341
 7575SOL     OW30618   4.797   4.349   1.187
 7575SOL    HW230619   4.872   4.378   1.134
 7575SOL    HW330620   4.729   4.414   1.171
 7575SOL    MW430621   4.798   4.361   1.177
 7576SOL     OW30622   5.347   4.317   1.464
 7576SOL    HW230623   5.328   4.226   1.443
 7576SOL    HW330624   5.325   4.366   1.385
 7576SOL    MW430625   5.342   4.310   1.451
 7577SOL     OW30626   5.489   5.411   1.368
 7577SOL    HW230627   5.417   5.373   1.419
 7577SOL    HW330628   5.506   5.496   1.409
 7577SOL    MW430629   5.483   5.416   1.380
 7578SOL     OW30630   4.794   4.055   1.570
 7578SOL    HW230631   4.760   4.094   1.489
 7578SOL    HW330632   4.772   3.963   1.563
 7578SOL    MW430633   4.787   4.048   1.560
 7579SOL     OW30634   5.203   4.869   1.646
 7579SOL    HW230635   5.285   4.910   1.676
 7579SOL    HW330636   5.166   4.831   1.726
 7579SOL    MW430637   5.209   4.870   1.661
 7580SOL     OW30638   5.498   4.242   0.630
 7580SOL    HW230639   5.587   4.211   0.647
 7580SOL    HW330640   5.441   4.182   0.678
 7580SOL    MW430641   5.501   4.230   0.639
 7581SOL     OW30642   3.924   3.956   0.659
 7581SOL    HW230643   3.915   3.896   0.585
 7581SOL    HW330644   3.857   3.927   0.722
 7581SOL    MW430645   3.914   3.943   0.657
 7582SOL     OW30646   4.867   5.049   0.220
 7582SOL    HW230647   4.817   5.051   0.302
 7582SOL    HW330648   4.801   5.067   0.152
 7582SOL    MW430649   4.853   5.051   0.222
 7583SOL     OW30650   3.871   4.129   1.022
 7583SOL    HW230651   3.843   4.220   1.031
 7583SOL    HW330652   3.808   4.090   0.961
 7583SOL    MW430653   3.858   4.135   1.016
 7584SOL     OW30654   4.330   5.467   0.328
 7584SOL    HW230655   4.251   5.425   0.361
 7584SOL    HW330656   4.396   5.450   0.395
 7584SOL    MW430657   4.329   5.459   0.341
 7585SOL     OW30658   5.458   4.987   1.725
 7585SOL    HW230659   5.508   4.913   1.757
 7585SOL    HW330660   5.404   5.014   1.800
 7585SOL    MW430661   5.458   4.981   1.738
 7586SOL     OW30662   4.466   4.882   0.035
 7586SOL    HW230663   4.388   4.828   0.022
 7586SOL    HW330664   4.437   4.955   0.088
 7586SOL    MW430665   4.452   4.884   0.040
 7587SOL     OW30666   5.592   4.622   1.227
 7587SOL    HW230667   5.608   4.660   1.140
 7587SOL    HW330668   5.626   4.688   1.288
 7587SOL    MW430669   5.599   4.635   1.223
 7588SOL     OW30670   5.384   5.331   0.896
 7588SOL    HW230671   5.413   5.398   0.957
 7588SOL    HW330672   5.365   5.255   0.951
 7588SOL    MW430673   5.386   5.331   0.911
 7589SOL     OW30674   5.047   5.398   0.103
 7589SOL    HW230675   4.973   5.361   0.153
 7589SOL    HW330676   5.055   5.488   0.136
 7589SOL    MW430677   5.038   5.405   0.115
 7590SOL     OW30678   3.855   4.404   1.192
 7590SOL    HW230679   3.917   4.434   1.258
 7590SOL    HW330680   3.789   4.473   1.186
 7590SOL    MW430681   3.854   4.417   1.199
 7591SOL     OW30682   5.271   5.072   0.045
 7591SOL    HW230683   5.218   5.121  -0.019
 7591SOL    HW330684   5.302   5.138   0.106
 7591SOL    MW430685   5.269   5.086   0.043
 7592SOL     OW30686   4.496   3.961   0.100
 7592SOL    HW230687   4.444   3.881   0.088
 7592SOL    HW330688   4.583   3.938   0.068
 7592SOL    MW430689   4.499   3.947   0.094
 7593SOL     OW30690   3.950   5.513   1.644
 7593SOL    HW230691   3.924   5.581   1.582
 7593SOL    HW330692   3.998   5.450   1.592
 7593SOL    MW430693   3.952   5.513   1.630
 7594SOL     OW30694   4.542   4.736   1.139
 7594SOL    HW230695   4.570   4.645   1.151
 7594SOL    HW330696   4.471   4.730   1.075
 7594SOL    MW430697   4.535   4.724   1.134
 7595SOL     OW30698   3.857   4.601   0.557
 7595SOL    HW230699   3.948   4.616   0.584
 7595SOL    HW330700   3.860   4.522   0.503
 7595SOL    MW430701   3.869   4.593   0.555
 7596SOL     OW30702   4.093   4.309   1.811
 7596SOL    HW230703   4.040   4.389   1.818
 7596SOL    HW330704   4.163   4.321   1.876
 7596SOL    MW430705   4.095   4.322   1.819
 7597SOL     OW30706   4.479   3.859   1.518
 7597SOL    HW230707   4.456   3.767   1.520
 7597SOL    HW330708   4.565   3.861   1.475
 7597SOL    MW430709   4.486   3.849   1.514
 7598SOL     OW30710   4.163   4.383   1.557
 7598SOL    HW230711   4.243   4.433   1.543
 7598SOL    HW330712   4.154   4.377   1.652
 7598SOL    MW430713   4.172   4.389   1.567
 7599SOL     OW30714   4.484   5.533   0.931
 7599SOL    HW230715   4.573   5.548   0.961
 7599SOL    HW330716   4.479   5.580   0.847
 7599SOL    MW430717   4.494   5.541   0.924
 7600SOL     OW30718   5.140   3.908   1.828
 7600SOL    HW230719   5.196   3.835   1.854
 7600SOL    HW330720   5.110   3.946   1.910
 7600SOL    MW430721   5.144   3.903   1.841
 7601SOL     OW30722   3.865   5.213   0.596
 7601SOL    HW230723   3.837   5.252   0.678
 7601SOL    HW330724   3.885   5.122   0.618
 7601SOL    MW430725   3.863   5.205   0.609
 7602SOL     OW30726   4.698   5.256   0.631
 7602SOL    HW230727   4.781   5.210   0.615
 7602SOL    HW330728   4.688   5.255   0.727
 7602SOL    MW430729   4.708   5.249   0.641
 7603SOL     OW30730   5.530   4.401   0.945
 7603SOL    HW230731   5.619   4.431   0.927
 7603SOL    HW330732   5.510   4.341   0.874
 7603SOL    MW430733   5.539   4.398   0.934
 7604SOL     OW30734   5.381   4.580   1.825
 7604SOL    HW230735   5.436   4.504   1.806
 7604SOL    HW330736   5.383   4.588   1.920
 7604SOL    MW430737   5.389   4.571   1.833
 7605SOL     OW30738   4.431   5.313   0.036
 7605SOL    HW230739   4.371   5.382   0.006
 7605SOL    HW330740   4.376   5.255   0.089
 7605SOL    MW430741   4.415   5.315   0.038
 7606SOL     OW30742   4.869   3.958   0.259
 7606SOL    HW230743   4.802   3.934   0.196
 7606SOL    HW330744   4.934   4.007   0.208
 7606SOL    MW430745   4.869   3.960   0.244
 7607SOL     OW30746   4.676   4.142   1.344
 7607SOL    HW230747   4.595   4.183   1.372
 7607SOL    HW330748   4.723   4.210   1.296
 7607SOL    MW430749   4.671   4.157   1.342
 7608SOL     OW30750   4.936   4.480   0.967
 7608SOL    HW230751   4.949   4.574   0.977
 7608SOL    HW330752   4.897   4.470   0.881
 7608SOL    MW430753   4.932   4.491   0.957
 7609SOL     OW30754   4.388   4.675   0.771
 7609SOL    HW230755   4.299   4.666   0.804
 7609SOL    HW330756   4.392   4.765   0.739
 7609SOL    MW430757   4.377   4.686   0.771
 7610SOL     OW30758   5.187   4.258   0.766
 7610SOL    HW230759   5.132   4.179   0.765
 7610SOL    HW330760   5.169   4.299   0.850
 7610SOL    MW430761   5.177   4.253   0.775
 7611SOL     OW30762   4.158   3.945   1.583
 7611SOL    HW230763   4.079   3.963   1.635
 7611SOL    HW330764   4.153   4.007   1.510
 7611SOL    MW430765   4.148   3.955   1.580
 7612SOL     OW30766   4.806   4.462   0.723
 7612SOL    HW230767   4.743   4.394   0.747
 7612SOL    HW330768   4.826   4.443   0.631
 7612SOL    MW430769   4.800   4.449   0.715
 7613SOL     OW30770   4.062   5.357   0.425
 7613SOL    HW230771   4.023   5.404   0.351
 7613SOL    HW330772   3.996   5.292   0.450
 7613SOL    MW430773   4.049   5.355   0.419
 7614SOL     OW30774   4.554   4.766   0.449
 7614SOL    HW230775   4.556   4.740   0.356
 7614SOL    HW330776   4.612   4.703   0.492
 7614SOL    MW430777   4.562   4.755   0.443
 7615SOL     OW30778   5.107   5.326   1.221
 7615SOL    HW230779   5.032   5.372   1.259
 7615SOL    HW330780   5.089   5.233   1.238
 7615SOL    MW430781   5.096   5.320   1.229
 7616SOL     OW30782   5.111   5.534   0.651
 7616SOL    HW230783   5.054   5.487   0.590
 7616SOL    HW330784   5.197   5.495   0.638
 7616SOL    MW430785   5.114   5.525   0.641
 7617SOL     OW30786   5.064   4.010   0.782
 7617SOL    HW230787   5.092   3.942   0.843
 7617SOL    HW330788   4.978   3.981   0.752
 7617SOL    MW430789   5.057   3.997   0.786
 7618SOL     OW30790   3.869   4.944   0.716
 7618SOL    HW230791   3.933   4.976   0.779
 7618SOL    HW330792   3.918   4.880   0.664
 7618SOL    MW430793   3.884   4.940   0.717
 7619SOL     OW30794   4.369   5.020   1.698
 7619SOL    HW230795   4.417   5.103   1.685
 7619SOL    HW330796   4.426   4.968   1.754
 7619SOL    MW430797   4.383   5.024   1.704
 7620SOL     OW30798   3.945   5.262   1.838
 7620SOL    HW230799   4.001   5.186   1.853
 7620SOL    HW330800   3.894   5.240   1.760
 7620SOL    MW430801   3.945   5.249   1.829
 7621SOL     OW30802   5.044   4.114   0.117
 7621SOL    HW230803   5.017   4.180   0.053
 7621SOL    HW330804   5.114   4.157   0.167
 7621SOL    MW430805   5.049   4.127   0.114
 7622SOL     OW30806   4.712   3.819   0.054
 7622SOL    HW230807   4.768   3.811  -0.024
 7622SOL    HW330808   4.689   3.729   0.076
 7622SOL    MW430809   4.717   3.806   0.047
 7623SOL     OW30810   5.217   4.670   0.259
 7623SOL    HW230811   5.184   4.759   0.249
 7623SOL    HW330812   5.182   4.641   0.344
 7623SOL    MW430813   5.207   4.679   0.270
 7624SOL     OW30814   4.123   3.767   1.789
 7624SOL    HW230815   4.051   3.732   1.737
 7624SOL    HW330816   4.181   3.808   1.724
 7624SOL    MW430817   4.121   3.768   1.774
 7625SOL     OW30818   4.147   5.257   1.088
 7625SOL    HW230819   4.192   5.319   1.145
 7625SOL    HW330820   4.054   5.276   1.101
 7625SOL    MW430821   4.140   5.267   1.095
 7626SOL     OW30822   5.587   4.786   1.442
 7626SOL    HW230823   5.502   4.799   1.401
 7626SOL    HW330824   5.567   4.750   1.529
 7626SOL    MW430825   5.574   4.782   1.447
 7627SOL     OW30826   4.569   5.325   1.196
 7627SOL    HW230827   4.593   5.314   1.105
 7627SOL    HW330828   4.492   5.382   1.194
 7627SOL    MW430829   4.561   5.330   1.185
 7628SOL     OW30830   4.211   4.708   0.051
 7628SOL    HW230831   4.134   4.721   0.107
 7628SOL    HW330832   4.175   4.672  -0.030
 7628SOL    MW430833   4.197   4.704   0.048
 7629SOL     OW30834   4.864   4.681   0.294
 7629SOL    HW230835   4.774   4.702   0.269
 7629SOL    HW330836   4.891   4.754   0.350
 7629SOL    MW430837   4.856   4.693   0.297
 7630SOL     OW30838   4.364   5.030   0.986
 7630SOL    HW230839   4.357   5.009   1.080
 7630SOL    HW330840   4.282   4.998   0.949
 7630SOL    MW430841   4.352   5.024   0.993
 7631SOL     OW30842   5.228   4.040   1.388
 7631SOL    HW230843   5.175   4.042   1.468
 7631SOL    HW330844   5.213   3.953   1.351
 7631SOL    MW430845   5.220   4.030   1.393
 7632SOL     OW30846   5.564   3.964   1.261
 7632SOL    HW230847   5.545   4.031   1.196
 7632SOL    HW330848   5.621   3.902   1.216
 7632SOL    MW430849   5.568   3.965   1.247
 7633SOL     OW30850   3.810   5.122   1.649
 7633SOL    HW230851   3.854   5.055   1.595
 7633SOL    HW330852   3.725   5.084   1.669
 7633SOL    MW430853   3.805   5.108   1.645
 7634SOL     OW30854   4.493   3.797   0.701
 7634SOL    HW230855   4.422   3.858   0.683
 7634SOL    HW330856   4.544   3.794   0.620
 7634SOL    MW430857   4.489   3.803   0.688
 7635SOL     OW30858   4.251   5.037   0.450
 7635SOL    HW230859   4.244   5.069   0.540
 7635SOL    HW330860   4.161   5.021   0.422
 7635SOL    MW430861   4.239   5.039   0.457
 7636SOL     OW30862   4.960   5.395   0.849
 7636SOL    HW230863   5.007   5.468   0.808
 7636SOL    HW330864   4.881   5.434   0.885
 7636SOL    MW430865   4.955   5.410   0.848
 7637SOL     OW30866   5.368   5.490   1.124
 7637SOL    HW230867   5.411   5.460   1.204
 7637SOL    HW330868   5.287   5.438   1.121
 7637SOL    MW430869   5.363   5.479   1.134
 7638SOL     OW30870   4.453   4.454   1.831
 7638SOL    HW230871   4.523   4.396   1.803
 7638SOL    HW330872   4.396   4.399   1.886
 7638SOL    MW430873   4.455   4.441   1.835
 7639SOL     OW30874   5.240   4.666   1.464
 7639SOL    HW230875   5.245   4.719   1.544
 7639SOL    HW330876   5.202   4.583   1.492
 7639SOL    MW430877   5.236   4.661   1.479
 7640SOL     OW30878   4.880   3.801   1.710
 7640SOL    HW230879   4.875   3.708   1.691
 7640SOL    HW330880   4.963   3.812   1.756
 7640SOL    MW430881   4.888   3.790   1.714
 7641SOL     OW30882   4.254   4.321   0.164
 7641SOL    HW230883   4.220   4.377   0.234
 7641SOL    HW330884   4.325   4.271   0.204
 7641SOL    MW430885   4.260   4.322   0.178
 7642SOL     OW30886   5.350   5.072   0.986
 7642SOL    HW230887   5.385   5.054   0.899
 7642SOL    HW330888   5.255   5.073   0.973
 7642SOL    MW430889   5.342   5.069   0.973
 7643SOL     OW30890   4.779   4.720   1.355
 7643SOL    HW230891   4.822   4.755   1.433
 7643SOL    HW330892   4.762   4.797   1.301
 7643SOL    MW430893   4.782   4.735   1.358
 7644SOL     OW30894   5.310   4.207   0.228
 7644SOL    HW230895   5.302   4.278   0.165
 7644SOL    HW330896   5.328   4.251   0.311
 7644SOL    MW430897   5.311   4.221   0.230
 7645SOL     OW30898   4.170   3.862   0.657
 7645SOL    HW230899   4.220   3.905   0.588
 7645SOL    HW330900   4.085   3.906   0.657
 7645SOL    MW430901   4.167   3.875   0.648
 7646SOL     OW30902   3.929   4.924   1.517
 7646SOL    HW230903   3.957   4.877   1.595
 7646SOL    HW330904   3.850   4.879   1.488
 7646SOL    MW430905   3.922   4.913   1.523
 7647SOL     OW30906   4.437   4.251   1.484
 7647SOL    HW230907   4.409   4.339   1.508
 7647SOL    HW330908   4.406   4.195   1.555
 7647SOL    MW430909   4.429   4.254   1.496
 7648SOL     OW30910   4.979   4.469   0.203
 7648SOL    HW230911   5.026   4.487   0.122
 7648SOL    HW330912   4.945   4.553   0.231
 7648SOL    MW430913   4.981   4.483   0.196
 7649SOL     OW30914   4.092   4.647   0.697
 7649SOL    HW230915   4.150   4.703   0.645
 7649SOL    HW330916   4.136   4.562   0.699
 7649SOL    MW430917   4.105   4.644   0.690
 7650SOL     OW30918   5.232   3.999   0.534
 7650SOL    HW230919   5.154   3.949   0.559
 7650SOL    HW330920   5.203   4.090   0.534
 7650SOL    MW430921   5.218   4.003   0.537
 7651SOL     OW30922   4.818   3.961   0.693
 7651SOL    HW230923   4.838   4.036   0.637
 7651SOL    HW330924   4.798   4.000   0.778
 7651SOL    MW430925   4.819   3.977   0.697
 7652SOL     OW30926   4.714   5.211   0.025
 7652SOL    HW230927   4.741   5.289  -0.023
 7652SOL    HW330928   4.621   5.226   0.044
 7652SOL    MW430929   4.705   5.224   0.021
 7653SOL     OW30930   5.578   4.734   1.712
 7653SOL    HW230931   5.491   4.714   1.748
 7653SOL    HW330932   5.632   4.660   1.737
 7653SOL    MW430933   5.573   4.723   1.720
 7654SOL     OW30934   3.799   5.247   0.869
 7654SOL    HW230935   3.831   5.251   0.960
 7654SOL    HW330936   3.704   5.255   0.877
 7654SOL    MW430937   3.791   5.250   0.882
 7655SOL     OW30938   3.754   4.373   0.416
 7655SOL    HW230939   3.694   4.345   0.486
 7655SOL    HW330940   3.828   4.313   0.422
 7655SOL    MW430941   3.756   4.362   0.425
 7656SOL     OW30942   4.922   5.104   0.576
 7656SOL    HW230943   4.945   5.055   0.654
 7656SOL    HW330944   5.003   5.146   0.548
 7656SOL    MW430945   4.935   5.104   0.583
 7657SOL     OW30946   4.180   4.112   1.305
 7657SOL    HW230947   4.213   4.193   1.345
 7657SOL    HW330948   4.153   4.138   1.217
 7657SOL    MW430949   4.179   4.126   1.299
 7658SOL     OW30950   4.134   4.079   1.041
 7658SOL    HW230951   4.164   3.993   1.012
 7658SOL    HW330952   4.039   4.072   1.044
 7658SOL    MW430953   4.126   4.068   1.039
 7659SOL     OW30954   4.963   4.288   1.732
 7659SOL    HW230955   5.015   4.223   1.685
 7659SOL    HW330956   4.921   4.339   1.662
 7659SOL    MW430957   4.964   4.285   1.715
 7660SOL     OW30958   5.062   4.083   1.593
 7660SOL    HW230959   4.969   4.067   1.580
 7660SOL    HW330960   5.088   4.021   1.661
 7660SOL    MW430961   5.052   4.073   1.600
 7661SOL     OW30962   4.277   3.857   0.932
 7661SOL    HW230963   4.287   3.766   0.958
 7661SOL    HW330964   4.233   3.853   0.847
 7661SOL    MW430965   4.273   3.845   0.924
 7662SOL     OW30966   5.428   4.179   1.103
 7662SOL    HW230967   5.361   4.212   1.163
 7662SOL    HW330968   5.471   4.257   1.069
 7662SOL    MW430969   5.426   4.194   1.107
 7663SOL     OW30970   5.606   4.899   1.073
 7663SOL    HW230971   5.599   4.839   0.998
 7663SOL    HW330972   5.532   4.959   1.062
 7663SOL    MW430973   5.596   4.899   1.062
 7664SOL     OW30974   4.988   4.761   0.991
 7664SOL    HW230975   5.002   4.733   1.082
 7664SOL    HW330976   5.074   4.792   0.963
 7664SOL    MW430977   5.001   4.762   1.000
 7665SOL     OW30978   5.071   4.256   1.270
 7665SOL    HW230979   5.092   4.257   1.177
 7665SOL    HW330980   5.116   4.178   1.303
 7665SOL    MW430981   5.078   4.246   1.262
 7666SOL     OW30982   5.564   4.387   1.812
 7666SOL    HW230983   5.601   4.332   1.881
 7666SOL    HW330984   5.589   4.344   1.730
 7666SOL    MW430985   5.571   4.375   1.811
 7667SOL     OW30986   5.111   4.685   1.863
 7667SOL    HW230987   5.177   4.633   1.817
 7667SOL    HW330988   5.131   4.672   1.956
 7667SOL    MW430989   5.122   4.676   1.870
 7668SOL     OW30990   5.062   3.771   0.212
 7668SOL    HW230991   5.136   3.815   0.255
 7668SOL    HW330992   4.986   3.825   0.234
 7668SOL    MW430993   5.062   3.783   0.220
 7669SOL     OW30994   5.122   4.546   0.490
 7669SOL    HW230995   5.037   4.516   0.460
 7669SOL    HW330996   5.114   4.553   0.585
 7669SOL    MW430997   5.110   4.544   0.499
 7670SOL     OW30998   4.198   5.009   1.221
 7670SOL    HW230999   4.210   5.036   1.312
 7670SOL    HW331000   4.179   5.090   1.174
 7670SOL    MW431001   4.197   5.024   1.226
 7671SOL     OW31002   4.482   3.989   1.044
 7671SOL    HW231003   4.455   3.991   1.135
 7671SOL    HW331004   4.412   3.941   0.999
 7671SOL    MW431005   4.470   3.985   1.051
 7672SOL     OW31006   4.336   5.481   1.206
 7672SOL    HW231007   4.388   5.558   1.183
 7672SOL    HW331008   4.345   5.473   1.301
 7672SOL    MW431009   4.345   5.488   1.217
 7673SOL     OW31010   5.238   5.066   1.438
 7673SOL    HW231011   5.223   4.995   1.501
 7673SOL    HW331012   5.284   5.024   1.366
 7673SOL    MW431013   5.244   5.050   1.438
 7674SOL     OW31014   4.312   4.797   1.555
 7674SOL    HW231015   4.349   4.802   1.467
 7674SOL    HW331016   4.351   4.870   1.602
 7674SOL    MW431017   4.322   4.807   1.550
 7675SOL     OW31018   4.492   4.840   1.367
 7675SOL    HW231019   4.551   4.786   1.420
 7675SOL    HW331020   4.507   4.812   1.277
 7675SOL    MW431021   4.502   4.829   1.363
 7676SOL     OW31022   4.495   4.212   0.216
 7676SOL    HW231023   4.568   4.261   0.179
 7676SOL    HW331024   4.511   4.121   0.190
 7676SOL    MW431025   4.507   4.207   0.209
 7677SOL     OW31026   5.303   5.329   1.539
 7677SOL    HW231027   5.345   5.314   1.624
 7677SOL    HW331028   5.294   5.242   1.501
 7677SOL    MW431029   5.307   5.317   1.546
 7678SOL     OW31030   4.963   3.808   1.130
 7678SOL    HW231031   5.018   3.817   1.052
 7678SOL    HW331032   5.018   3.842   1.201
 7678SOL    MW431033   4.977   3.813   1.129
 7679SOL     OW31034   3.970   4.721   0.314
 7679SOL    HW231035   3.907   4.737   0.243
 7679SOL    HW331036   3.917   4.684   0.385
 7679SOL    MW431037   3.955   4.718   0.314
 7680SOL     OW31038   4.326   5.075   0.173
 7680SOL    HW231039   4.341   5.051   0.265
 7680SOL    HW331040   4.234   5.053   0.157
 7680SOL    MW431041   4.316   5.068   0.183
 7681SOL     OW31042   4.865   5.306   0.325
 7681SOL    HW231043   4.873   5.224   0.276
 7681SOL    HW331044   4.784   5.345   0.292
 7681SOL    MW431045   4.855   5.301   0.315
 7682SOL     OW31046   4.124   5.464   0.894
 7682SOL    HW231047   4.128   5.375   0.929
 7682SOL    HW331048   4.150   5.455   0.803
 7682SOL    MW431049   4.127   5.452   0.886
 7683SOL     OW31050   4.741   4.942   1.137
 7683SOL    HW231051   4.673   4.876   1.153
 7683SOL    HW331052   4.759   4.936   1.044
 7683SOL    MW431053   4.734   4.933   1.128
 7684SOL     OW31054   3.830   5.217   1.388
 7684SOL    HW231055   3.820   5.175   1.474
 7684SOL    HW331056   3.751   5.270   1.378
 7684SOL    MW431057   3.819   5.218   1.399
 7685SOL     OW31058   4.734   4.081   0.958
 7685SOL    HW231059   4.664   4.033   1.003
 7685SOL    HW331060   4.766   4.144   1.022
 7685SOL    MW431061   4.729   4.083   0.972
 7686SOL     OW31062   4.385   4.517   1.578
 7686SOL    HW231063   4.378   4.612   1.566
 7686SOL    HW331064   4.394   4.506   1.673
 7686SOL    MW431065   4.386   4.529   1.588
 7687SOL     OW31066   4.106   5.032   1.836
 7687SOL    HW231067   4.178   5.034   1.773
 7687SOL    HW331068   4.076   4.941   1.835
 7687SOL    MW431069   4.111   5.021   1.828
 7688SOL     OW31070   5.190   3.795   1.303
 7688SOL    HW231071   5.261   3.741   1.267
 7688SOL    HW331072   5.189   3.774   1.396
 7688SOL    MW431073   5.199   3.786   1.311
 7689SOL     OW31074   5.390   5.325   1.787
 7689SOL    HW231075   5.363   5.322   1.878
 7689SOL    HW331076   5.486   5.329   1.790
 7689SOL    MW431077   5.400   5.325   1.799
 7690SOL     OW31078   4.201   4.187   0.771
 7690SOL    HW231079   4.272   4.135   0.734
 7690SOL    HW331080   4.187   4.152   0.858
 7690SOL    MW431081   4.209   4.176   0.778
 7691SOL     OW31082   3.756   5.522   1.843
 7691SOL    HW231083   3.806   5.500   1.765
 7691SOL    HW331084   3.764   5.617   1.851
 7691SOL    MW431085   3.764   5.531   1.834
 7692SOL     OW31086   4.517   5.280   0.847
 7692SOL    HW231087   4.445   5.217   0.860
 7692SOL    HW331088   4.478   5.365   0.865
 7692SOL    MW431089   4.501   5.283   0.850
 7693SOL     OW31090   3.922   3.818   0.427
 7693SOL    HW231091   3.993   3.839   0.366
 7693SOL    HW331092   3.876   3.746   0.385
 7693SOL    MW431093   3.926   3.812   0.413
 7694SOL     OW31094   3.753   4.285   1.570
 7694SOL    HW231095   3.817   4.351   1.545
 7694SOL    HW331096   3.672   4.312   1.527
 7694SOL    MW431097   3.751   4.297   1.562
 7695SOL     OW31098   5.491   5.192   0.527
 7695SOL    HW231099   5.461   5.125   0.588
 7695SOL    HW331100   5.585   5.198   0.541
 7695SOL    MW431101   5.499   5.184   0.537
 7696SOL     OW31102   5.047   4.869   0.457
 7696SOL    HW231103   5.019   4.955   0.490
 7696SOL    HW331104   5.075   4.885   0.367
 7696SOL    MW431105   5.047   4.883   0.449
 7697SOL     OW31106   4.709   3.789   0.510
 7697SOL    HW231107   4.746   3.848   0.575
 7697SOL    HW331108   4.686   3.845   0.436
 7697SOL    MW431109   4.710   3.804   0.509
 7698SOL     OW31110   5.562   4.671   0.932
 7698SOL    HW231111   5.553   4.703   0.843
 7698SOL    HW331112   5.515   4.587   0.932
 7698SOL    MW431113   5.555   4.664   0.922
 7699SOL     OW31114   3.938   4.511   1.511
 7699SOL    HW231115   3.959   4.580   1.449
 7699SOL    HW331116   4.018   4.458   1.516
 7699SOL    MW431117   3.951   4.512   1.505
 7700SOL     OW31118   5.474   4.602   0.633
 7700SOL    HW231119   5.568   4.591   0.621
 7700SOL    HW331120   5.450   4.674   0.574
 7700SOL    MW431121   5.484   4.610   0.624
 7701SOL     OW31122   3.923   4.526   1.778
 7701SOL    HW231123   3.849   4.470   1.804
 7701SOL    HW331124   3.918   4.529   1.683
 7701SOL    MW431125   3.912   4.519   1.768
 7702SOL     OW31126   4.089   3.813   1.228
 7702SOL    HW231127   4.132   3.897   1.248
 7702SOL    HW331128   4.162   3.751   1.221
 7702SOL    MW431129   4.104   3.816   1.229
 7703SOL     OW31130   4.130   4.480   0.406
 7703SOL    HW231131   4.130   4.575   0.391
 7703SOL    HW331132   4.207   4.464   0.460
 7703SOL    MW431133   4.140   4.491   0.411
 7704SOL     OW31134   4.906   4.339   1.470
 7704SOL    HW231135   4.942   4.312   1.386
 7704SOL    HW331136   4.819   4.373   1.449
 7704SOL    MW431137   4.900   4.340   1.457
 7705SOL     OW31138   3.889   4.211   0.695
 7705SOL    HW231139   3.951   4.218   0.768
 7705SOL    HW331140   3.889   4.118   0.672
 7705SOL    MW431141   3.897   4.200   0.702
 7706SOL     OW31142   4.571   4.472   1.179
 7706SOL    HW231143   4.529   4.390   1.155
 7706SOL    HW331144   4.572   4.471   1.275
 7706SOL    MW431145   4.564   4.461   1.188
 7707SOL     OW31146   4.375   3.942   1.284
 7707SOL    HW231147   4.306   4.005   1.305
 7707SOL    HW331148   4.402   3.906   1.369
 7707SOL    MW431149   4.369   3.945   1.297
 7708SOL     OW31150   3.758   4.783   0.153
 7708SOL    HW231151   3.727   4.848   0.216
 7708SOL    HW331152   3.707   4.705   0.172
 7708SOL    MW431153   3.748   4.780   0.163
 7709SOL     OW31154   5.170   3.795   0.901
 7709SOL    HW231155   5.258   3.804   0.938
 7709SOL    HW331156   5.180   3.736   0.827
 7709SOL    MW431157   5.184   3.789   0.895
 7710SOL     OW31158   5.202   4.534   0.745
 7710SOL    HW231159   5.282   4.549   0.694
 7710SOL    HW331160   5.195   4.439   0.751
 7710SOL    MW431161   5.211   4.523   0.740
 7711SOL     OW31162   4.342   5.583   0.095
 7711SOL    HW231163   4.247   5.583   0.087
 7711SOL    HW331164   4.358   5.529   0.173
 7711SOL    MW431165   4.332   5.577   0.104
 7712SOL     OW31166   4.652   4.460   1.442
 7712SOL    HW231167   4.721   4.527   1.439
 7712SOL    HW331168   4.585   4.498   1.498
 7712SOL    MW431169   4.653   4.473   1.449
 7713SOL     OW31170   4.070   4.760   1.690
 7713SOL    HW231171   4.024   4.676   1.692
 7713SOL    HW331172   4.127   4.754   1.614
 7713SOL    MW431173   4.072   4.748   1.682
 7714SOL     OW31174   5.187   4.403   0.011
 7714SOL    HW231175   5.115   4.379  -0.047
 7714SOL    HW331176   5.253   4.440  -0.047
 7714SOL    MW431177   5.186   4.405  -0.004
 7715SOL     OW31178   4.321   5.135   0.691
 7715SOL    HW231179   4.386   5.068   0.712
 7715SOL    HW331180   4.373   5.212   0.668
 7715SOL    MW431181   4.336   5.137   0.690
 7716SOL     OW31182   4.582   4.300   0.821
 7716SOL    HW231183   4.522   4.318   0.893
 7716SOL    HW331184   4.616   4.212   0.840
 7716SOL    MW431185   4.578   4.290   0.834
 7717SOL     OW31186   5.523   3.799   1.490
 7717SOL    HW231187   5.444   3.845   1.518
 7717SOL    HW331188   5.558   3.853   1.419
 7717SOL    MW431189   5.517   3.812   1.484
 7718SOL     OW31190   4.807   4.883   0.840
 7718SOL    HW231191   4.899   4.864   0.858
 7718SOL    HW331192   4.780   4.813   0.780
 7718SOL    MW431193   4.815   4.871   0.834
 7719SOL     OW31194   4.600   4.703   0.195
 7719SOL    HW231195   4.586   4.615   0.160
 7719SOL    HW331196   4.551   4.760   0.136
 7719SOL    MW431197   4.592   4.698   0.183
 7720SOL     OW31198   5.081   5.121   0.936
 7720SOL    HW231199   5.054   5.205   0.901
 7720SOL    HW331200   5.041   5.116   1.023
 7720SOL    MW431201   5.074   5.130   0.942
 7721SOL     OW31202   5.000   5.069   1.204
 7721SOL    HW231203   5.011   5.036   1.293
 7721SOL    HW331204   4.919   5.028   1.173
 7721SOL    MW431205   4.990   5.061   1.210
 7722SOL     OW31206   4.013   4.427   0.974
 7722SOL    HW231207   3.963   4.426   1.055
 7722SOL    HW331208   4.033   4.519   0.958
 7722SOL    MW431209   4.009   4.439   0.982
 7723SOL     OW31210   5.080   5.191   1.736
 7723SOL    HW231211   5.080   5.285   1.752
 7723SOL    HW331212   5.125   5.181   1.652
 7723SOL    MW431213   5.086   5.201   1.727
 7724SOL     OW31214   5.319   3.909   0.297
 7724SOL    HW231215   5.312   3.913   0.392
 7724SOL    HW331216   5.331   4.000   0.270
 7724SOL    MW431217   5.320   3.922   0.305
 7725SOL     OW31218   4.608   4.472   0.411
 7725SOL    HW231219   4.588   4.458   0.318
 7725SOL    HW331220   4.701   4.451   0.418
 7725SOL    MW431221   4.618   4.467   0.400
 7726SOL     OW31222   3.935   4.095   1.715
 7726SOL    HW231223   3.892   4.154   1.652
 7726SOL    HW331224   4.003   4.150   1.755
 7726SOL    MW431225   3.939   4.110   1.712
 7727SOL     OW31226   5.047   4.715   1.260
 7727SOL    HW231227   5.110   4.712   1.333
 7727SOL    HW331228   4.963   4.733   1.302
 7727SOL    MW431229   5.043   4.717   1.275
 7728SOL     OW31230   4.591   5.430   0.449
 7728SOL    HW231231   4.649   5.501   0.476
 7728SOL    HW331232   4.614   5.358   0.507
 7728SOL    MW431233   4.602   5.430   0.460
 7729SOL     OW31234   5.386   3.892   1.039
 7729SOL    HW231235   5.431   3.810   1.058
 7729SOL    HW331236   5.406   3.948   1.115
 7729SOL    MW431237   5.396   3.888   1.051
 7730SOL     OW31238   3.834   3.735   1.138
 7730SOL    HW231239   3.825   3.736   1.043
 7730SOL    HW331240   3.928   3.747   1.153
 7730SOL    MW431241   3.846   3.738   1.129
 7731SOL     OW31242   5.471   4.928   0.758
 7731SOL    HW231243   5.450   4.874   0.681
 7731SOL    HW331244   5.567   4.926   0.762
 7731SOL    MW431245   5.480   4.921   0.747
 7732SOL     OW31246   4.163   5.073   1.501
 7732SOL    HW231247   4.084   5.023   1.524
 7732SOL    HW331248   4.233   5.032   1.551
 7732SOL    MW431249   4.161   5.061   1.511
 7733SOL     OW31250   4.047   3.862   0.184
 7733SOL    HW231251   3.976   3.917   0.152
 7733SOL    HW331252   4.089   3.828   0.105
 7733SOL    MW431253   4.043   3.864   0.170
 7734SOL     OW31254   5.171   4.359   1.020
 7734SOL    HW231255   5.094   4.405   0.986
 7734SOL    HW331256   5.228   4.428   1.054
 7734SOL    MW431257   5.168   4.374   1.020
 7735SOL     OW31258   3.803   3.961   0.033
 7735SOL    HW231259   3.770   4.040   0.077
 7735SOL    HW331260   3.858   3.994  -0.038
 7735SOL    MW431261   3.806   3.975   0.030
 7736SOL     OW31262   3.837   5.218   0.222
 7736SOL    HW231263   3.854   5.302   0.264
 7736SOL    HW331264   3.872   5.227   0.134
 7736SOL    MW431265   3.842   5.231   0.216
 7737SOL     OW31266   5.109   5.307   0.439
 7737SOL    HW231267   5.172   5.297   0.368
 7737SOL    HW331268   5.026   5.327   0.394
 7737SOL    MW431269   5.106   5.308   0.424
 7738SOL     OW31270   5.472   4.575   2.125
 7738SOL    HW231271   5.513   4.517   2.190
 7738SOL    HW331272   5.379   4.567   2.142
 7738SOL    MW431273   5.466   4.567   2.135
 7739SOL     OW31274   5.338   4.507   3.120
 7739SOL    HW231275   5.293   4.574   3.171
 7739SOL    HW331276   5.426   4.543   3.106
 7739SOL    MW431277   5.344   4.520   3.124
 7740SOL     OW31278   4.266   4.758   2.354
 7740SOL    HW231279   4.356   4.733   2.338
 7740SOL    HW331280   4.262   4.851   2.331
 7740SOL    MW431281   4.278   4.767   2.349
 7741SOL     OW31282   4.761   5.346   3.497
 7741SOL    HW231283   4.802   5.382   3.418
 7741SOL    HW331284   4.796   5.257   3.504
 7741SOL    MW431285   4.772   5.339   3.488
 7742SOL     OW31286   5.318   4.901   3.101
 7742SOL    HW231287   5.239   4.866   3.059
 7742SOL    HW331288   5.345   4.973   3.045
 7742SOL    MW431289   5.311   4.906   3.088
 7743SOL     OW31290   4.550   4.214   2.367
 7743SOL    HW231291   4.525   4.302   2.395
 7743SOL    HW331292   4.547   4.217   2.271
 7743SOL    MW431293   4.546   4.226   2.359
 7744SOL     OW31294   3.992   4.242   2.295
 7744SOL    HW231295   4.024   4.330   2.277
 7744SOL    HW331296   3.980   4.240   2.390
 7744SOL    MW431297   3.995   4.254   2.307
 7745SOL     OW31298   4.391   3.997   2.382
 7745SOL    HW231299   4.449   4.073   2.384
 7745SOL    HW331300   4.326   4.018   2.315
 7745SOL    MW431301   4.390   4.009   2.373
 7746SOL     OW31302   4.478   4.924   2.557
 7746SOL    HW231303   4.558   4.927   2.609
 7746SOL    HW331304   4.506   4.891   2.471
 7746SOL    MW431305   4.492   4.920   2.552
 7747SOL     OW31306   4.503   5.265   3.460
 7747SOL    HW231307   4.587   5.291   3.499
 7747SOL    HW331308   4.527   5.209   3.386
 7747SOL    MW431309   4.517   5.261   3.455
 7748SOL     OW31310   4.255   4.428   2.548
 7748SOL    HW231311   4.240   4.348   2.599
 7748SOL    HW331312   4.337   4.463   2.582
 7748SOL    MW431313   4.263   4.420   2.560
 7749SOL     OW31314   4.592   5.114   3.233
 7749SOL    HW231315   4.556   5.180   3.173
 7749SOL    HW331316   4.520   5.052   3.246
 7749SOL    MW431317   4.578   5.114   3.227
 7750SOL     OW31318   4.397   4.254   2.925
 7750SOL    HW231319   4.303   4.250   2.943
 7750SOL    HW331320   4.427   4.163   2.934
 7750SOL    MW431321   4.388   4.242   2.928
 7751SOL     OW31322   4.143   4.668   2.829
 7751SOL    HW231323   4.098   4.675   2.745
 7751SOL    HW331324   4.123   4.751   2.873
 7751SOL    MW431325   4.135   4.680   2.823
 7752SOL     OW31326   3.840   5.514   2.704
 7752SOL    HW231327   3.929   5.506   2.739
 7752SOL    HW331328   3.804   5.426   2.709
 7752SOL    MW431329   3.847   5.501   2.709
 7753SOL     OW31330   5.105   4.906   2.073
 7753SOL    HW231331   5.023   4.942   2.039
 7753SOL    HW331332   5.173   4.949   2.022
 7753SOL    MW431333   5.103   4.916   2.061
 7754SOL     OW31334   4.104   5.041   2.739
 7754SOL    HW231335   4.080   5.094   2.815
 7754SOL    HW331336   4.160   5.099   2.687
 7754SOL    MW431337   4.108   5.056   2.742
 7755SOL     OW31338   4.666   4.685   2.549
 7755SOL    HW231339   4.580   4.672   2.589
 7755SOL    HW331340   4.719   4.612   2.581
 7755SOL    MW431341   4.662   4.674   2.558
 7756SOL     OW31342   5.530   4.048   2.722
 7756SOL    HW231343   5.467   4.028   2.791
 7756SOL    HW331344   5.520   3.977   2.659
 7756SOL    MW431345   5.520   4.035   2.723
 7757SOL     OW31346   4.154   4.020   2.234
 7757SOL    HW231347   4.128   3.982   2.150
 7757SOL    HW331348   4.091   4.090   2.250
 7757SOL    MW431349   4.143   4.023   2.225
 7758SOL     OW31350   3.989   4.981   2.271
 7758SOL    HW231351   3.937   5.049   2.227
 7758SOL    HW331352   3.986   4.907   2.211
 7758SOL    MW431353   3.981   4.980   2.258
 7759SOL     OW31354   5.586   4.217   2.024
 7759SOL    HW231355   5.495   4.219   2.052
 7759SOL    HW331356   5.631   4.279   2.082
 7759SOL    MW431357   5.579   4.225   2.034
 7760SOL     OW31358   5.331   4.820   2.374
 7760SOL    HW231359   5.241   4.820   2.409
 7760SOL    HW331360   5.324   4.866   2.291
 7760SOL    MW431361   5.318   4.826   2.368
 7761SOL     OW31362   5.131   4.455   3.446
 7761SOL    HW231363   5.200   4.393   3.423
 7761SOL    HW331364   5.056   4.429   3.393
 7761SOL    MW431365   5.131   4.442   3.437
 7762SOL     OW31366   4.867   4.842   3.438
 7762SOL    HW231367   4.852   4.935   3.423
 7762SOL    HW331368   4.962   4.832   3.438
 7762SOL    MW431369   4.876   4.852   3.435
 7763SOL     OW31370   4.663   4.266   3.639
 7763SOL    HW231371   4.753   4.267   3.606
 7763SOL    HW331372   4.622   4.191   3.597
 7763SOL    MW431373   4.669   4.256   3.630
 7764SOL     OW31374   5.238   4.798   2.766
 7764SOL    HW231375   5.241   4.732   2.697
 7764SOL    HW331376   5.323   4.841   2.762
 7764SOL    MW431377   5.250   4.794   2.757
 7765SOL     OW31378   4.858   4.401   2.335
 7765SOL    HW231379   4.884   4.425   2.246
 7765SOL    HW331380   4.840   4.308   2.331
 7765SOL    MW431381   4.860   4.393   2.322
 7766SOL     OW31382   5.523   5.021   2.186
 7766SOL    HW231383   5.479   5.062   2.261
 7766SOL    HW331384   5.580   5.089   2.151
 7766SOL    MW431385   5.525   5.035   2.191
 7767SOL     OW31386   4.443   4.070   3.589
 7767SOL    HW231387   4.453   3.996   3.529
 7767SOL    HW331388   4.479   4.039   3.672
 7767SOL    MW431389   4.449   4.056   3.591
 7768SOL     OW31390   5.563   3.799   2.553
 7768SOL    HW231391   5.617   3.750   2.615
 7768SOL    HW331392   5.506   3.733   2.514
 7768SOL    MW431393   5.563   3.783   2.555
 7769SOL     OW31394   3.895   5.497   2.081
 7769SOL    HW231395   3.924   5.587   2.073
 7769SOL    HW331396   3.845   5.480   2.002
 7769SOL    MW431397   3.893   5.505   2.070
 7770SOL     OW31398   4.682   3.752   2.966
 7770SOL    HW231399   4.641   3.830   2.928
 7770SOL    HW331400   4.776   3.770   2.961
 7770SOL    MW431401   4.688   3.764   2.961
 7771SOL     OW31402   4.697   4.430   1.996
 7771SOL    HW231403   4.699   4.377   1.917
 7771SOL    HW331404   4.785   4.467   2.002
 7771SOL    MW431405   4.709   4.429   1.985
 7772SOL     OW31406   5.311   4.356   2.332
 7772SOL    HW231407   5.350   4.356   2.419
 7772SOL    HW331408   5.252   4.432   2.332
 7772SOL    MW431409   5.308   4.367   2.343
 7773SOL     OW31410   4.628   4.723   3.461
 7773SOL    HW231411   4.605   4.703   3.551
 7773SOL    HW331412   4.713   4.767   3.466
 7773SOL    MW431413   4.635   4.726   3.473
 7774SOL     OW31414   4.708   3.860   3.221
 7774SOL    HW231415   4.714   3.822   3.134
 7774SOL    HW331416   4.697   3.954   3.206
 7774SOL    MW431417   4.709   3.868   3.209
 7775SOL     OW31418   4.797   4.349   3.055
 7775SOL    HW231419   4.872   4.378   3.002
 7775SOL    HW331420   4.729   4.414   3.039
 7775SOL    MW431421   4.798   4.361   3.045
 7776SOL     OW31422   5.347   4.317   3.332
 7776SOL    HW231423   5.328   4.226   3.311
 7776SOL    HW331424   5.325   4.366   3.253
 7776SOL    MW431425   5.342   4.310   3.319
 7777SOL     OW31426   5.489   5.411   3.236
 7777SOL    HW231427   5.417   5.373   3.287
 7777SOL    HW331428   5.506   5.496   3.277
 7777SOL    MW431429   5.483   5.416   3.248
 7778SOL     OW31430   4.794   4.055   3.438
 7778SOL    HW231431   4.760   4.094   3.357
 7778SOL    HW331432   4.772   3.963   3.431
 7778SOL    MW431433   4.787   4.048   3.428
 7779SOL     OW31434   5.203   4.869   3.514
 7779SOL    HW231435   5.285   4.910   3.544
 7779SOL    HW331436   5.166   4.831   3.594
 7779SOL    MW431437   5.209   4.870   3.529
 7780SOL     OW31438   5.498   4.242   2.498
 7780SOL    HW231439   5.587   4.211   2.515
 7780SOL    HW331440   5.441   4.182   2.546
 7780SOL    MW431441   5.501   4.230   2.507
 7781SOL     OW31442   3.924   3.956   2.527
 7781SOL    HW231443   3.915   3.896   2.453
 7781SOL    HW331444   3.857   3.927   2.590
 7781SOL    MW431445   3.914   3.943   2.525
 7782SOL     OW31446   3.871   4.129   2.890
 7782SOL    HW231447   3.843   4.220   2.899
 7782SOL    HW331448   3.808   4.090   2.829
 7782SOL    MW431449   3.858   4.135   2.884
 7783SOL     OW31450   5.458   4.987   3.593
 7783SOL    HW231451   5.508   4.913   3.625
 7783SOL    HW331452   5.404   5.014   3.668
 7783SOL    MW431453   5.458   4.981   3.606
 7784SOL     OW31454   4.466   4.882   1.903
 7784SOL    HW231455   4.388   4.828   1.890
 7784SOL    HW331456   4.437   4.955   1.956
 7784SOL    MW431457   4.452   4.884   1.908
 7785SOL     OW31458   5.592   4.622   3.095
 7785SOL    HW231459   5.608   4.660   3.008
 7785SOL    HW331460   5.626   4.688   3.156
 7785SOL    MW431461   5.599   4.635   3.091
 7786SOL     OW31462   5.384   5.331   2.764
 7786SOL    HW231463   5.413   5.398   2.825
 7786SOL    HW331464   5.365   5.255   2.819
 7786SOL    MW431465   5.386   5.331   2.779
 7787SOL     OW31466   3.855   4.404   3.060
 7787SOL    HW231467   3.917   4.434   3.126
 7787SOL    HW331468   3.789   4.473   3.054
 7787SOL    MW431469   3.854   4.417   3.067
 7788SOL     OW31470   5.271   5.072   1.913
 7788SOL    HW231471   5.218   5.121   1.849
 7788SOL    HW331472   5.302   5.138   1.974
 7788SOL    MW431473   5.269   5.086   1.911
 7789SOL     OW31474   4.496   3.961   1.968
 7789SOL    HW231475   4.444   3.881   1.956
 7789SOL    HW331476   4.583   3.938   1.936
 7789SOL    MW431477   4.499   3.947   1.962
 7790SOL     OW31478   4.002   4.832   3.019
 7790SOL    HW231479   4.055   4.907   3.044
 7790SOL    HW331480   3.921   4.870   2.985
 7790SOL    MW431481   3.998   4.847   3.019
 7791SOL     OW31482   4.542   4.736   3.007
 7791SOL    HW231483   4.570   4.645   3.019
 7791SOL    HW331484   4.471   4.730   2.943
 7791SOL    MW431485   4.535   4.724   3.002
 7792SOL     OW31486   3.857   4.601   2.425
 7792SOL    HW231487   3.948   4.616   2.452
 7792SOL    HW331488   3.860   4.522   2.371
 7792SOL    MW431489   3.869   4.593   2.423
 7793SOL     OW31490   4.093   4.309   3.679
 7793SOL    HW231491   4.040   4.389   3.686
 7793SOL    HW331492   4.163   4.321   3.744
 7793SOL    MW431493   4.095   4.322   3.687
 7794SOL     OW31494   4.479   3.859   3.386
 7794SOL    HW231495   4.456   3.767   3.388
 7794SOL    HW331496   4.565   3.861   3.343
 7794SOL    MW431497   4.486   3.849   3.382
 7795SOL     OW31498   4.163   4.383   3.425
 7795SOL    HW231499   4.243   4.433   3.411
 7795SOL    HW331500   4.154   4.377   3.520
 7795SOL    MW431501   4.172   4.389   3.435
 7796SOL     OW31502   5.140   3.908   3.696
 7796SOL    HW231503   5.196   3.835   3.722
 7796SOL    HW331504   5.110   3.946   3.778
 7796SOL    MW431505   5.144   3.903   3.709
 7797SOL     OW31506   3.865   5.213   2.464
 7797SOL    HW231507   3.837   5.252   2.546
 7797SOL    HW331508   3.885   5.122   2.486
 7797SOL    MW431509   3.863   5.205   2.477
 7798SOL     OW31510   5.530   4.401   2.813
 7798SOL    HW231511   5.619   4.431   2.795
 7798SOL    HW331512   5.510   4.341   2.742
 7798SOL    MW431513   5.539   4.398   2.802
 7799SOL     OW31514   5.381   4.580   3.693
 7799SOL    HW231515   5.436   4.504   3.674
 7799SOL    HW331516   5.383   4.588   3.788
 7799SOL    MW431517   5.389   4.571   3.701
 7800SOL     OW31518   4.431   5.313   1.904
 7800SOL    HW231519   4.371   5.382   1.874
 7800SOL    HW331520   4.376   5.255   1.957
 7800SOL    MW431521   4.415   5.315   1.906
 7801SOL     OW31522   4.869   3.958   2.127
 7801SOL    HW231523   4.802   3.934   2.064
 7801SOL    HW331524   4.934   4.007   2.076
 7801SOL    MW431525   4.869   3.960   2.112
 7802SOL     OW31526   4.676   4.142   3.212
 7802SOL    HW231527   4.595   4.183   3.240
 7802SOL    HW331528   4.723   4.210   3.164
 7802SOL    MW431529   4.671   4.157   3.210
 7803SOL     OW31530   4.936   4.480   2.835
 7803SOL    HW231531   4.949   4.574   2.845
 7803SOL    HW331532   4.897   4.470   2.749
 7803SOL    MW431533   4.932   4.491   2.825
 7804SOL     OW31534   4.388   4.675   2.639
 7804SOL    HW231535   4.299   4.666   2.672
 7804SOL    HW331536   4.392   4.765   2.607
 7804SOL    MW431537   4.377   4.686   2.639
 7805SOL     OW31538   5.187   4.258   2.634
 7805SOL    HW231539   5.132   4.179   2.633
 7805SOL    HW331540   5.169   4.299   2.718
 7805SOL    MW431541   5.177   4.253   2.643
 7806SOL     OW31542   4.158   3.945   3.451
 7806SOL    HW231543   4.079   3.963   3.503
 7806SOL    HW331544   4.153   4.007   3.378
 7806SOL    MW431545   4.148   3.955   3.448
 7807SOL     OW31546   4.806   4.462   2.591
 7807SOL    HW231547   4.743   4.394   2.615
 7807SOL    HW331548   4.826   4.443   2.499
 7807SOL    MW431549   4.800   4.449   2.583
 7808SOL     OW31550   4.062   5.357   2.293
 7808SOL    HW231551   4.023   5.404   2.219
 7808SOL    HW331552   3.996   5.292   2.318
 7808SOL    MW431553   4.049   5.355   2.287
 7809SOL     OW31554   4.554   4.766   2.317
 7809SOL    HW231555   4.556   4.740   2.224
 7809SOL    HW331556   4.612   4.703   2.360
 7809SOL    MW431557   4.562   4.755   2.311
 7810SOL     OW31558   5.107   5.326   3.089
 7810SOL    HW231559   5.032   5.372   3.127
 7810SOL    HW331560   5.089   5.233   3.106
 7810SOL    MW431561   5.096   5.320   3.097
 7811SOL     OW31562   5.111   5.534   2.519
 7811SOL    HW231563   5.054   5.487   2.458
 7811SOL    HW331564   5.197   5.495   2.506
 7811SOL    MW431565   5.114   5.525   2.509
 7812SOL     OW31566   5.064   4.010   2.650
 7812SOL    HW231567   5.092   3.942   2.711
 7812SOL    HW331568   4.978   3.981   2.620
 7812SOL    MW431569   5.057   3.997   2.654
 7813SOL     OW31570   3.869   4.944   2.584
 7813SOL    HW231571   3.933   4.976   2.647
 7813SOL    HW331572   3.918   4.880   2.532
 7813SOL    MW431573   3.884   4.940   2.585
 7814SOL     OW31574   4.369   5.020   3.566
 7814SOL    HW231575   4.417   5.103   3.553
 7814SOL    HW331576   4.426   4.968   3.622
 7814SOL    MW431577   4.383   5.024   3.572
 7815SOL     OW31578   3.945   5.262   3.706
 7815SOL    HW231579   4.001   5.186   3.721
 7815SOL    HW331580   3.894   5.240   3.628
 7815SOL    MW431581   3.945   5.249   3.697
 7816SOL     OW31582   5.044   4.114   1.985
 7816SOL    HW231583   5.017   4.180   1.921
 7816SOL    HW331584   5.114   4.157   2.035
 7816SOL    MW431585   5.049   4.127   1.982
 7817SOL     OW31586   4.712   3.819   1.922
 7817SOL    HW231587   4.768   3.811   1.844
 7817SOL    HW331588   4.689   3.729   1.944
 7817SOL    MW431589   4.717   3.806   1.915
 7818SOL     OW31590   5.217   4.670   2.127
 7818SOL    HW231591   5.184   4.759   2.117
 7818SOL    HW331592   5.182   4.641   2.212
 7818SOL    MW431593   5.207   4.679   2.138
 7819SOL     OW31594   4.830   5.099   3.315
 7819SOL    HW231595   4.741   5.105   3.283
 7819SOL    HW331596   4.874   5.178   3.283
 7819SOL    MW431597   4.825   5.109   3.307
 7820SOL     OW31598   4.123   3.767   3.657
 7820SOL    HW231599   4.051   3.732   3.605
 7820SOL    HW331600   4.181   3.808   3.592
 7820SOL    MW431601   4.121   3.768   3.642
 7821SOL     OW31602   5.587   4.786   3.310
 7821SOL    HW231603   5.502   4.799   3.269
 7821SOL    HW331604   5.567   4.750   3.397
 7821SOL    MW431605   5.574   4.782   3.315
 7822SOL     OW31606   4.211   4.708   1.919
 7822SOL    HW231607   4.134   4.721   1.975
 7822SOL    HW331608   4.175   4.672   1.838
 7822SOL    MW431609   4.197   4.704   1.916
 7823SOL     OW31610   4.364   5.030   2.854
 7823SOL    HW231611   4.357   5.009   2.948
 7823SOL    HW331612   4.282   4.998   2.817
 7823SOL    MW431613   4.352   5.024   2.861
 7824SOL     OW31614   5.228   4.040   3.256
 7824SOL    HW231615   5.175   4.042   3.336
 7824SOL    HW331616   5.213   3.953   3.219
 7824SOL    MW431617   5.220   4.030   3.261
 7825SOL     OW31618   4.493   3.797   2.569
 7825SOL    HW231619   4.422   3.858   2.551
 7825SOL    HW331620   4.544   3.794   2.488
 7825SOL    MW431621   4.489   3.803   2.556
 7826SOL     OW31622   4.251   5.037   2.318
 7826SOL    HW231623   4.244   5.069   2.408
 7826SOL    HW331624   4.161   5.021   2.290
 7826SOL    MW431625   4.239   5.039   2.325
 7827SOL     OW31626   4.846   5.430   3.227
 7827SOL    HW231627   4.766   5.415   3.177
 7827SOL    HW331628   4.853   5.525   3.234
 7827SOL    MW431629   4.837   5.441   3.221
 7828SOL     OW31630   5.368   5.490   2.992
 7828SOL    HW231631   5.411   5.460   3.072
 7828SOL    HW331632   5.287   5.438   2.989
 7828SOL    MW431633   5.363   5.479   3.002
 7829SOL     OW31634   4.453   4.454   3.699
 7829SOL    HW231635   4.523   4.396   3.671
 7829SOL    HW331636   4.396   4.399   3.754
 7829SOL    MW431637   4.455   4.441   3.703
 7830SOL     OW31638   5.240   4.666   3.332
 7830SOL    HW231639   5.245   4.719   3.412
 7830SOL    HW331640   5.202   4.583   3.360
 7830SOL    MW431641   5.236   4.661   3.347
 7831SOL     OW31642   4.880   3.801   3.578
 7831SOL    HW231643   4.875   3.708   3.559
 7831SOL    HW331644   4.963   3.812   3.624
 7831SOL    MW431645   4.888   3.790   3.582
 7832SOL     OW31646   4.254   4.321   2.032
 7832SOL    HW231647   4.220   4.377   2.102
 7832SOL    HW331648   4.325   4.271   2.072
 7832SOL    MW431649   4.260   4.322   2.046
 7833SOL     OW31650   5.350   5.072   2.854
 7833SOL    HW231651   5.385   5.054   2.767
 7833SOL    HW331652   5.255   5.073   2.841
 7833SOL    MW431653   5.342   5.069   2.841
 7834SOL     OW31654   4.779   4.720   3.223
 7834SOL    HW231655   4.822   4.755   3.301
 7834SOL    HW331656   4.762   4.797   3.169
 7834SOL    MW431657   4.782   4.735   3.226
 7835SOL     OW31658   5.310   4.207   2.096
 7835SOL    HW231659   5.302   4.278   2.033
 7835SOL    HW331660   5.328   4.251   2.179
 7835SOL    MW431661   5.311   4.221   2.098
 7836SOL     OW31662   4.170   3.862   2.525
 7836SOL    HW231663   4.220   3.905   2.456
 7836SOL    HW331664   4.085   3.906   2.525
 7836SOL    MW431665   4.167   3.875   2.516
 7837SOL     OW31666   4.437   4.251   3.352
 7837SOL    HW231667   4.409   4.339   3.376
 7837SOL    HW331668   4.406   4.195   3.423
 7837SOL    MW431669   4.429   4.254   3.364
 7838SOL     OW31670   4.979   4.469   2.071
 7838SOL    HW231671   5.026   4.487   1.990
 7838SOL    HW331672   4.945   4.553   2.099
 7838SOL    MW431673   4.981   4.483   2.064
 7839SOL     OW31674   4.092   4.647   2.565
 7839SOL    HW231675   4.150   4.703   2.513
 7839SOL    HW331676   4.136   4.562   2.567
 7839SOL    MW431677   4.105   4.644   2.558
 7840SOL     OW31678   5.232   3.999   2.402
 7840SOL    HW231679   5.154   3.949   2.427
 7840SOL    HW331680   5.203   4.090   2.402
 7840SOL    MW431681   5.218   4.003   2.405
 7841SOL     OW31682   4.818   3.961   2.561
 7841SOL    HW231683   4.838   4.036   2.505
 7841SOL    HW331684   4.798   4.000   2.646
 7841SOL    MW431685   4.819   3.977   2.565
 7842SOL     OW31686   4.714   5.211   1.893
 7842SOL    HW231687   4.741   5.289   1.845
 7842SOL    HW331688   4.621   5.226   1.912
 7842SOL    MW431689   4.705   5.224   1.889
 7843SOL     OW31690   5.578   4.734   3.580
 7843SOL    HW231691   5.491   4.714   3.616
 7843SOL    HW331692   5.632   4.660   3.605
 7843SOL    MW431693   5.573   4.723   3.588
 7844SOL     OW31694   3.799   5.247   2.737
 7844SOL    HW231695   3.831   5.251   2.828
 7844SOL    HW331696   3.704   5.255   2.745
 7844SOL    MW431697   3.791   5.250   2.750
 7845SOL     OW31698   3.754   4.373   2.284
 7845SOL    HW231699   3.694   4.345   2.354
 7845SOL    HW331700   3.828   4.313   2.290
 7845SOL    MW431701   3.756   4.362   2.293
 7846SOL     OW31702   5.322   5.585   3.718
 7846SOL    HW231703   5.367   5.509   3.683
 7846SOL    HW331704   5.360   5.598   3.805
 7846SOL    MW431705   5.332   5.578   3.724
 7847SOL     OW31706   4.180   4.112   3.173
 7847SOL    HW231707   4.213   4.193   3.213
 7847SOL    HW331708   4.153   4.138   3.085
 7847SOL    MW431709   4.179   4.126   3.167
 7848SOL     OW31710   4.134   4.079   2.909
 7848SOL    HW231711   4.164   3.993   2.880
 7848SOL    HW331712   4.039   4.072   2.912
 7848SOL    MW431713   4.126   4.068   2.907
 7849SOL     OW31714   4.963   4.288   3.600
 7849SOL    HW231715   5.015   4.223   3.553
 7849SOL    HW331716   4.921   4.339   3.530
 7849SOL    MW431717   4.964   4.285   3.583
 7850SOL     OW31718   5.062   4.083   3.461
 7850SOL    HW231719   4.969   4.067   3.448
 7850SOL    HW331720   5.088   4.021   3.529
 7850SOL    MW431721   5.052   4.073   3.468
 7851SOL     OW31722   4.277   3.857   2.800
 7851SOL    HW231723   4.287   3.766   2.826
 7851SOL    HW331724   4.233   3.853   2.715
 7851SOL    MW431725   4.273   3.845   2.792
 7852SOL     OW31726   5.428   4.179   2.971
 7852SOL    HW231727   5.361   4.212   3.031
 7852SOL    HW331728   5.471   4.257   2.937
 7852SOL    MW431729   5.426   4.194   2.975
 7853SOL     OW31730   5.606   4.899   2.941
 7853SOL    HW231731   5.599   4.839   2.866
 7853SOL    HW331732   5.532   4.959   2.930
 7853SOL    MW431733   5.596   4.899   2.930
 7854SOL     OW31734   4.988   4.761   2.859
 7854SOL    HW231735   5.002   4.733   2.950
 7854SOL    HW331736   5.074   4.792   2.831
 7854SOL    MW431737   5.001   4.762   2.868
 7855SOL     OW31738   5.071   4.256   3.138
 7855SOL    HW231739   5.092   4.257   3.045
 7855SOL    HW331740   5.116   4.178   3.171
 7855SOL    MW431741   5.078   4.246   3.130
 7856SOL     OW31742   5.564   4.387   3.680
 7856SOL    HW231743   5.601   4.332   3.749
 7856SOL    HW331744   5.589   4.344   3.598
 7856SOL    MW431745   5.571   4.375   3.679
 7857SOL     OW31746   5.111   4.685   3.731
 7857SOL    HW231747   5.177   4.633   3.685
 7857SOL    HW331748   5.131   4.672   3.824
 7857SOL    MW431749   5.122   4.676   3.738
 7858SOL     OW31750   5.062   3.771   2.080
 7858SOL    HW231751   5.136   3.815   2.123
 7858SOL    HW331752   4.986   3.825   2.102
 7858SOL    MW431753   5.062   3.783   2.088
 7859SOL     OW31754   5.122   4.546   2.358
 7859SOL    HW231755   5.037   4.516   2.328
 7859SOL    HW331756   5.114   4.553   2.453
 7859SOL    MW431757   5.110   4.544   2.367
 7860SOL     OW31758   4.198   5.009   3.089
 7860SOL    HW231759   4.210   5.036   3.180
 7860SOL    HW331760   4.179   5.090   3.042
 7860SOL    MW431761   4.197   5.024   3.094
 7861SOL     OW31762   4.482   3.989   2.912
 7861SOL    HW231763   4.455   3.991   3.003
 7861SOL    HW331764   4.412   3.941   2.867
 7861SOL    MW431765   4.470   3.985   2.919
 7862SOL     OW31766   5.238   5.066   3.306
 7862SOL    HW231767   5.223   4.995   3.369
 7862SOL    HW331768   5.284   5.024   3.234
 7862SOL    MW431769   5.244   5.050   3.306
 7863SOL     OW31770   4.312   4.797   3.423
 7863SOL    HW231771   4.349   4.802   3.335
 7863SOL    HW331772   4.351   4.870   3.470
 7863SOL    MW431773   4.322   4.807   3.418
 7864SOL     OW31774   4.492   4.840   3.235
 7864SOL    HW231775   4.551   4.786   3.288
 7864SOL    HW331776   4.507   4.812   3.145
 7864SOL    MW431777   4.502   4.829   3.231
 7865SOL     OW31778   4.495   4.212   2.084
 7865SOL    HW231779   4.568   4.261   2.047
 7865SOL    HW331780   4.511   4.121   2.058
 7865SOL    MW431781   4.507   4.207   2.077
 7866SOL     OW31782   5.303   5.329   3.407
 7866SOL    HW231783   5.345   5.314   3.492
 7866SOL    HW331784   5.294   5.242   3.369
 7866SOL    MW431785   5.307   5.317   3.414
 7867SOL     OW31786   4.963   3.808   2.998
 7867SOL    HW231787   5.018   3.817   2.920
 7867SOL    HW331788   5.018   3.842   3.069
 7867SOL    MW431789   4.977   3.813   2.997
 7868SOL     OW31790   3.970   4.721   2.182
 7868SOL    HW231791   3.907   4.737   2.111
 7868SOL    HW331792   3.917   4.684   2.253
 7868SOL    MW431793   3.955   4.718   2.182
 7869SOL     OW31794   4.326   5.075   2.041
 7869SOL    HW231795   4.341   5.051   2.133
 7869SOL    HW331796   4.234   5.053   2.025
 7869SOL    MW431797   4.316   5.068   2.051
 7870SOL     OW31798   4.741   4.942   3.005
 7870SOL    HW231799   4.673   4.876   3.021
 7870SOL    HW331800   4.759   4.936   2.912
 7870SOL    MW431801   4.734   4.933   2.996
 7871SOL     OW31802   4.734   4.081   2.826
 7871SOL    HW231803   4.664   4.033   2.871
 7871SOL    HW331804   4.766   4.144   2.890
 7871SOL    MW431805   4.729   4.083   2.840
 7872SOL     OW31806   4.385   4.517   3.446
 7872SOL    HW231807   4.378   4.612   3.434
 7872SOL    HW331808   4.394   4.506   3.541
 7872SOL    MW431809   4.386   4.529   3.456
 7873SOL     OW31810   4.106   5.032   3.704
 7873SOL    HW231811   4.178   5.034   3.641
 7873SOL    HW331812   4.076   4.941   3.703
 7873SOL    MW431813   4.111   5.021   3.696
 7874SOL     OW31814   5.190   3.795   3.171
 7874SOL    HW231815   5.261   3.741   3.135
 7874SOL    HW331816   5.189   3.774   3.264
 7874SOL    MW431817   5.199   3.786   3.179
 7875SOL     OW31818   5.390   5.325   3.655
 7875SOL    HW231819   5.363   5.322   3.746
 7875SOL    HW331820   5.486   5.329   3.658
 7875SOL    MW431821   5.400   5.325   3.667
 7876SOL     OW31822   4.201   4.187   2.639
 7876SOL    HW231823   4.272   4.135   2.602
 7876SOL    HW331824   4.187   4.152   2.726
 7876SOL    MW431825   4.209   4.176   2.646
 7877SOL     OW31826   4.837   4.128   2.363
 7877SOL    HW231827   4.859   4.065   2.295
 7877SOL    HW331828   4.742   4.120   2.374
 7877SOL    MW431829   4.827   4.119   2.355
 7878SOL     OW31830   3.922   3.818   2.295
 7878SOL    HW231831   3.993   3.839   2.234
 7878SOL    HW331832   3.876   3.746   2.253
 7878SOL    MW431833   3.926   3.812   2.281
 7879SOL     OW31834   3.753   4.285   3.438
 7879SOL    HW231835   3.817   4.351   3.413
 7879SOL    HW331836   3.672   4.312   3.395
 7879SOL    MW431837   3.751   4.297   3.430
 7880SOL     OW31838   5.491   5.192   2.395
 7880SOL    HW231839   5.461   5.125   2.456
 7880SOL    HW331840   5.585   5.198   2.409
 7880SOL    MW431841   5.499   5.184   2.405
 7881SOL     OW31842   4.709   3.789   2.378
 7881SOL    HW231843   4.746   3.848   2.443
 7881SOL    HW331844   4.686   3.845   2.304
 7881SOL    MW431845   4.710   3.804   2.377
 7882SOL     OW31846   5.562   4.671   2.800
 7882SOL    HW231847   5.553   4.703   2.711
 7882SOL    HW331848   5.515   4.587   2.800
 7882SOL    MW431849   5.555   4.664   2.790
 7883SOL     OW31850   5.474   4.602   2.501
 7883SOL    HW231851   5.568   4.591   2.489
 7883SOL    HW331852   5.450   4.674   2.442
 7883SOL    MW431853   5.484   4.610   2.492
 7884SOL     OW31854   3.923   4.526   3.646
 7884SOL    HW231855   3.849   4.470   3.672
 7884SOL    HW331856   3.918   4.529   3.551
 7884SOL    MW431857   3.912   4.519   3.636
 7885SOL     OW31858   4.089   3.813   3.096
 7885SOL    HW231859   4.132   3.897   3.116
 7885SOL    HW331860   4.162   3.751   3.089
 7885SOL    MW431861   4.104   3.816   3.097
 7886SOL     OW31862   4.130   4.480   2.274
 7886SOL    HW231863   4.130   4.575   2.259
 7886SOL    HW331864   4.207   4.464   2.328
 7886SOL    MW431865   4.140   4.491   2.279
 7887SOL     OW31866   4.906   4.339   3.338
 7887SOL    HW231867   4.942   4.312   3.254
 7887SOL    HW331868   4.819   4.373   3.317
 7887SOL    MW431869   4.900   4.340   3.325
 7888SOL     OW31870   3.889   4.211   2.563
 7888SOL    HW231871   3.951   4.218   2.636
 7888SOL    HW331872   3.889   4.118   2.540
 7888SOL    MW431873   3.897   4.200   2.570
 7889SOL     OW31874   4.571   4.472   3.047
 7889SOL    HW231875   4.529   4.390   3.023
 7889SOL    HW331876   4.572   4.471   3.143
 7889SOL    MW431877   4.564   4.461   3.056
 7890SOL     OW31878   5.242   5.605   3.446
 7890SOL    HW231879   5.245   5.511   3.429
 7890SOL    HW331880   5.265   5.613   3.538
 7890SOL    MW431881   5.245   5.593   3.456
 7891SOL     OW31882   4.375   3.942   3.152
 7891SOL    HW231883   4.306   4.005   3.173
 7891SOL    HW331884   4.402   3.906   3.237
 7891SOL    MW431885   4.369   3.945   3.165
 7892SOL     OW31886   3.758   4.783   2.021
 7892SOL    HW231887   3.727   4.848   2.084
 7892SOL    HW331888   3.707   4.705   2.040
 7892SOL    MW431889   3.748   4.780   2.031
 7893SOL     OW31890   5.170   3.795   2.769
 7893SOL    HW231891   5.258   3.804   2.806
 7893SOL    HW331892   5.180   3.736   2.695
 7893SOL    MW431893   5.184   3.789   2.763
 7894SOL     OW31894   5.202   4.534   2.613
 7894SOL    HW231895   5.282   4.549   2.562
 7894SOL    HW331896   5.195   4.439   2.619
 7894SOL    MW431897   5.211   4.523   2.608
 7895SOL     OW31898   4.652   4.460   3.310
 7895SOL    HW231899   4.721   4.527   3.307
 7895SOL    HW331900   4.585   4.498   3.366
 7895SOL    MW431901   4.653   4.473   3.317
 7896SOL     OW31902   4.070   4.760   3.558
 7896SOL    HW231903   4.024   4.676   3.560
 7896SOL    HW331904   4.127   4.754   3.482
 7896SOL    MW431905   4.072   4.748   3.550
 7897SOL     OW31906   5.187   4.403   1.879
 7897SOL    HW231907   5.115   4.379   1.821
 7897SOL    HW331908   5.253   4.440   1.821
 7897SOL    MW431909   5.186   4.405   1.864
 7898SOL     OW31910   4.321   5.135   2.559
 7898SOL    HW231911   4.386   5.068   2.580
 7898SOL    HW331912   4.373   5.212   2.536
 7898SOL    MW431913   4.336   5.137   2.558
 7899SOL     OW31914   4.582   4.300   2.689
 7899SOL    HW231915   4.522   4.318   2.761
 7899SOL    HW331916   4.616   4.212   2.708
 7899SOL    MW431917   4.578   4.290   2.702
 7900SOL     OW31918   5.523   3.799   3.358
 7900SOL    HW231919   5.444   3.845   3.386
 7900SOL    HW331920   5.558   3.853   3.287
 7900SOL    MW431921   5.517   3.812   3.352
 7901SOL     OW31922   4.807   4.883   2.708
 7901SOL    HW231923   4.899   4.864   2.726
 7901SOL    HW331924   4.780   4.813   2.648
 7901SOL    MW431925   4.815   4.871   2.702
 7902SOL     OW31926   4.600   4.703   2.063
 7902SOL    HW231927   4.586   4.615   2.028
 7902SOL    HW331928   4.551   4.760   2.004
 7902SOL    MW431929   4.592   4.698   2.051
 7903SOL     OW31930   5.081   5.121   2.804
 7903SOL    HW231931   5.054   5.205   2.769
 7903SOL    HW331932   5.041   5.116   2.891
 7903SOL    MW431933   5.074   5.130   2.810
 7904SOL     OW31934   5.000   5.069   3.072
 7904SOL    HW231935   5.011   5.036   3.161
 7904SOL    HW331936   4.919   5.028   3.041
 7904SOL    MW431937   4.990   5.061   3.078
 7905SOL     OW31938   4.013   4.427   2.842
 7905SOL    HW231939   3.963   4.426   2.923
 7905SOL    HW331940   4.033   4.519   2.826
 7905SOL    MW431941   4.009   4.439   2.850
 7906SOL     OW31942   5.080   5.191   3.604
 7906SOL    HW231943   5.080   5.285   3.620
 7906SOL    HW331944   5.125   5.181   3.520
 7906SOL    MW431945   5.086   5.201   3.595
 7907SOL     OW31946   5.319   3.909   2.165
 7907SOL    HW231947   5.312   3.913   2.260
 7907SOL    HW331948   5.331   4.000   2.138
 7907SOL    MW431949   5.320   3.922   2.173
 7908SOL     OW31950   4.608   4.472   2.279
 7908SOL    HW231951   4.588   4.458   2.186
 7908SOL    HW331952   4.701   4.451   2.286
 7908SOL    MW431953   4.618   4.467   2.268
 7909SOL     OW31954   3.935   4.095   3.583
 7909SOL    HW231955   3.892   4.154   3.520
 7909SOL    HW331956   4.003   4.150   3.623
 7909SOL    MW431957   3.939   4.110   3.580
 7910SOL     OW31958   5.047   4.715   3.128
 7910SOL    HW231959   5.110   4.712   3.201
 7910SOL    HW331960   4.963   4.733   3.170
 7910SOL    MW431961   5.043   4.717   3.143
 7911SOL     OW31962   5.386   3.892   2.907
 7911SOL    HW231963   5.431   3.810   2.926
 7911SOL    HW331964   5.406   3.948   2.983
 7911SOL    MW431965   5.396   3.888   2.919
 7912SOL     OW31966   3.834   3.735   3.006
 7912SOL    HW231967   3.825   3.736   2.911
 7912SOL    HW331968   3.928   3.747   3.021
 7912SOL    MW431969   3.846   3.738   2.997
 7913SOL     OW31970   5.471   4.928   2.626
 7913SOL    HW231971   5.450   4.874   2.549
 7913SOL    HW331972   5.567   4.926   2.630
 7913SOL    MW431973   5.480   4.921   2.615
 7914SOL     OW31974   4.163   5.073   3.369
 7914SOL    HW231975   4.084   5.023   3.392
 7914SOL    HW331976   4.233   5.032   3.419
 7914SOL    MW431977   4.161   5.061   3.379
 7915SOL     OW31978   4.047   3.862   2.052
 7915SOL    HW231979   3.976   3.917   2.020
 7915SOL    HW331980   4.089   3.828   1.973
 7915SOL    MW431981   4.043   3.864   2.038
 7916SOL     OW31982   5.171   4.359   2.888
 7916SOL    HW231983   5.094   4.405   2.854
 7916SOL    HW331984   5.228   4.428   2.922
 7916SOL    MW431985   5.168   4.374   2.888
 7917SOL     OW31986   3.803   3.961   1.901
 7917SOL    HW231987   3.770   4.040   1.945
 7917SOL    HW331988   3.858   3.994   1.830
 7917SOL    MW431989   3.806   3.975   1.898
 7918SOL     OW31990   3.837   5.218   2.090
 7918SOL    HW231991   3.854   5.302   2.132
 7918SOL    HW331992   3.872   5.227   2.002
 7918SOL    MW431993   3.842   5.231   2.084
 7919SOL     OW31994   5.109   5.307   2.307
 7919SOL    HW231995   5.172   5.297   2.236
 7919SOL    HW331996   5.026   5.327   2.262
 7919SOL    MW431997   5.106   5.308   2.292
 7920SOL     OW31998   5.472   4.575   3.993
 7920SOL    HW231999   5.513   4.517   4.058
 7920SOL    HW332000   5.379   4.567   4.010
 7920SOL    MW432001   5.466   4.567   4.003
 7921SOL     OW32002   5.338   4.507   4.988
 7921SOL    HW232003   5.293   4.574   5.039
 7921SOL    HW332004   5.426   4.543   4.974
 7921SOL    MW432005   5.344   4.520   4.992
 7922SOL     OW32006   4.266   4.758   4.222
 7922SOL    HW232007   4.356   4.733   4.206
 7922SOL    HW332008   4.262   4.851   4.199
 7922SOL    MW432009   4.278   4.767   4.217
 7923SOL     OW32010   5.382   5.461   4.364
 7923SOL    HW232011   5.394   5.407   4.442
 7923SOL    HW332012   5.419   5.409   4.293
 7923SOL    MW432013   5.388   5.446   4.365
 7924SOL     OW32014   4.761   5.346   5.365
 7924SOL    HW232015   4.802   5.382   5.286
 7924SOL    HW332016   4.796   5.257   5.372
 7924SOL    MW432017   4.772   5.339   5.356
 7925SOL     OW32018   5.318   4.901   4.969
 7925SOL    HW232019   5.239   4.866   4.927
 7925SOL    HW332020   5.345   4.973   4.913
 7925SOL    MW432021   5.311   4.906   4.956
 7926SOL     OW32022   4.550   4.214   4.235
 7926SOL    HW232023   4.525   4.302   4.263
 7926SOL    HW332024   4.547   4.217   4.139
 7926SOL    MW432025   4.546   4.226   4.227
 7927SOL     OW32026   3.992   4.242   4.163
 7927SOL    HW232027   4.024   4.330   4.145
 7927SOL    HW332028   3.980   4.240   4.258
 7927SOL    MW432029   3.995   4.254   4.175
 7928SOL     OW32030   4.070   4.655   5.064
 7928SOL    HW232031   4.133   4.602   5.015
 7928SOL    HW332032   4.051   4.729   5.007
 7928SOL    MW432033   4.076   4.657   5.051
 7929SOL     OW32034   4.391   3.997   4.250
 7929SOL    HW232035   4.449   4.073   4.252
 7929SOL    HW332036   4.326   4.018   4.183
 7929SOL    MW432037   4.390   4.009   4.241
 7930SOL     OW32038   4.478   4.924   4.425
 7930SOL    HW232039   4.558   4.927   4.477
 7930SOL    HW332040   4.506   4.891   4.339
 7930SOL    MW432041   4.492   4.920   4.420
 7931SOL     OW32042   4.503   5.265   5.328
 7931SOL    HW232043   4.587   5.291   5.367
 7931SOL    HW332044   4.527   5.209   5.254
 7931SOL    MW432045   4.517   5.261   5.323
 7932SOL     OW32046   4.255   4.428   4.416
 7932SOL    HW232047   4.240   4.348   4.467
 7932SOL    HW332048   4.337   4.463   4.450
 7932SOL    MW432049   4.263   4.420   4.428
 7933SOL     OW32050   4.592   5.114   5.101
 7933SOL    HW232051   4.556   5.180   5.041
 7933SOL    HW332052   4.520   5.052   5.114
 7933SOL    MW432053   4.578   5.114   5.095
 7934SOL     OW32054   4.397   4.254   4.793
 7934SOL    HW232055   4.303   4.250   4.811
 7934SOL    HW332056   4.427   4.163   4.802
 7934SOL    MW432057   4.388   4.242   4.796
 7935SOL     OW32058   4.143   4.668   4.697
 7935SOL    HW232059   4.098   4.675   4.613
 7935SOL    HW332060   4.123   4.751   4.741
 7935SOL    MW432061   4.135   4.680   4.691
 7936SOL     OW32062   3.840   5.514   4.572
 7936SOL    HW232063   3.929   5.506   4.607
 7936SOL    HW332064   3.804   5.426   4.577
 7936SOL    MW432065   3.847   5.501   4.577
 7937SOL     OW32066   5.105   4.906   3.941
 7937SOL    HW232067   5.023   4.942   3.907
 7937SOL    HW332068   5.173   4.949   3.890
 7937SOL    MW432069   5.103   4.916   3.929
 7938SOL     OW32070   4.104   5.041   4.607
 7938SOL    HW232071   4.080   5.094   4.683
 7938SOL    HW332072   4.160   5.099   4.555
 7938SOL    MW432073   4.108   5.056   4.610
 7939SOL     OW32074   4.666   4.685   4.417
 7939SOL    HW232075   4.580   4.672   4.457
 7939SOL    HW332076   4.719   4.612   4.449
 7939SOL    MW432077   4.662   4.674   4.426
 7940SOL     OW32078   4.074   5.337   5.202
 7940SOL    HW232079   3.982   5.313   5.187
 7940SOL    HW332080   4.118   5.254   5.219
 7940SOL    MW432081   4.068   5.322   5.201
 7941SOL     OW32082   4.657   5.047   4.134
 7941SOL    HW232083   4.634   5.109   4.202
 7941SOL    HW332084   4.614   4.965   4.160
 7941SOL    MW432085   4.649   5.043   4.145
 7942SOL     OW32086   5.530   4.048   4.590
 7942SOL    HW232087   5.467   4.028   4.659
 7942SOL    HW332088   5.520   3.977   4.527
 7942SOL    MW432089   5.520   4.035   4.591
 7943SOL     OW32090   4.154   4.020   4.102
 7943SOL    HW232091   4.128   3.982   4.018
 7943SOL    HW332092   4.091   4.090   4.118
 7943SOL    MW432093   4.143   4.023   4.093
 7944SOL     OW32094   4.651   5.444   3.917
 7944SOL    HW232095   4.606   5.460   4.000
 7944SOL    HW332096   4.582   5.409   3.859
 7944SOL    MW432097   4.637   5.441   3.919
 7945SOL     OW32098   5.586   4.217   3.892
 7945SOL    HW232099   5.495   4.219   3.920
 7945SOL    HW332100   5.631   4.279   3.950
 7945SOL    MW432101   5.579   4.225   3.902
 7946SOL     OW32102   5.331   4.820   4.242
 7946SOL    HW232103   5.241   4.820   4.277
 7946SOL    HW332104   5.324   4.866   4.159
 7946SOL    MW432105   5.318   4.826   4.236
 7947SOL     OW32106   5.131   4.455   5.314
 7947SOL    HW232107   5.200   4.393   5.291
 7947SOL    HW332108   5.056   4.429   5.261
 7947SOL    MW432109   5.131   4.442   5.305
 7948SOL     OW32110   3.872   5.335   4.866
 7948SOL    HW232111   3.855   5.281   4.943
 7948SOL    HW332112   3.860   5.425   4.896
 7948SOL    MW432113   3.869   5.339   4.880
 7949SOL     OW32114   4.867   4.842   5.306
 7949SOL    HW232115   4.852   4.935   5.291
 7949SOL    HW332116   4.962   4.832   5.306
 7949SOL    MW432117   4.876   4.852   5.303
 7950SOL     OW32118   4.663   4.266   5.507
 7950SOL    HW232119   4.753   4.267   5.474
 7950SOL    HW332120   4.622   4.191   5.465
 7950SOL    MW432121   4.669   4.256   5.498
 7951SOL     OW32122   5.238   4.798   4.634
 7951SOL    HW232123   5.241   4.732   4.565
 7951SOL    HW332124   5.323   4.841   4.630
 7951SOL    MW432125   5.250   4.794   4.625
 7952SOL     OW32126   4.858   4.401   4.203
 7952SOL    HW232127   4.884   4.425   4.114
 7952SOL    HW332128   4.840   4.308   4.199
 7952SOL    MW432129   4.860   4.393   4.190
 7953SOL     OW32130   5.523   5.021   4.054
 7953SOL    HW232131   5.479   5.062   4.129
 7953SOL    HW332132   5.580   5.089   4.019
 7953SOL    MW432133   5.525   5.035   4.059
 7954SOL     OW32134   4.443   4.070   5.457
 7954SOL    HW232135   4.453   3.996   5.397
 7954SOL    HW332136   4.479   4.039   5.540
 7954SOL    MW432137   4.449   4.056   5.459
 7955SOL     OW32138   4.179   5.437   4.372
 7955SOL    HW232139   4.211   5.525   4.350
 7955SOL    HW332140   4.132   5.409   4.294
 7955SOL    MW432141   4.178   5.445   4.359
 7956SOL     OW32142   5.563   3.799   4.421
 7956SOL    HW232143   5.617   3.750   4.483
 7956SOL    HW332144   5.506   3.733   4.382
 7956SOL    MW432145   5.563   3.783   4.423
 7957SOL     OW32146   4.682   3.752   4.834
 7957SOL    HW232147   4.641   3.830   4.796
 7957SOL    HW332148   4.776   3.770   4.829
 7957SOL    MW432149   4.688   3.764   4.829
 7958SOL     OW32150   5.299   5.305   3.920
 7958SOL    HW232151   5.347   5.374   3.966
 7958SOL    HW332152   5.220   5.349   3.889
 7958SOL    MW432153   5.294   5.319   3.923
 7959SOL     OW32154   4.697   4.430   3.864
 7959SOL    HW232155   4.699   4.377   3.785
 7959SOL    HW332156   4.785   4.467   3.870
 7959SOL    MW432157   4.709   4.429   3.853
 7960SOL     OW32158   5.311   4.356   4.200
 7960SOL    HW232159   5.350   4.356   4.287
 7960SOL    HW332160   5.252   4.432   4.200
 7960SOL    MW432161   5.308   4.367   4.211
 7961SOL     OW32162   4.628   4.723   5.329
 7961SOL    HW232163   4.605   4.703   5.419
 7961SOL    HW332164   4.713   4.767   5.334
 7961SOL    MW432165   4.635   4.726   5.341
 7962SOL     OW32166   4.708   3.860   5.089
 7962SOL    HW232167   4.714   3.822   5.002
 7962SOL    HW332168   4.697   3.954   5.074
 7962SOL    MW432169   4.709   3.868   5.077
 7963SOL     OW32170   4.797   4.349   4.923
 7963SOL    HW232171   4.872   4.378   4.870
 7963SOL    HW332172   4.729   4.414   4.907
 7963SOL    MW432173   4.798   4.361   4.913
 7964SOL     OW32174   5.347   4.317   5.200
 7964SOL    HW232175   5.328   4.226   5.179
 7964SOL    HW332176   5.325   4.366   5.121
 7964SOL    MW432177   5.342   4.310   5.187
 7965SOL     OW32178   5.489   5.411   5.104
 7965SOL    HW232179   5.417   5.373   5.155
 7965SOL    HW332180   5.506   5.496   5.145
 7965SOL    MW432181   5.483   5.416   5.116
 7966SOL     OW32182   4.794   4.055   5.306
 7966SOL    HW232183   4.760   4.094   5.225
 7966SOL    HW332184   4.772   3.963   5.299
 7966SOL    MW432185   4.787   4.048   5.296
 7967SOL     OW32186   5.203   4.869   5.382
 7967SOL    HW232187   5.285   4.910   5.412
 7967SOL    HW332188   5.166   4.831   5.462
 7967SOL    MW432189   5.209   4.870   5.397
 7968SOL     OW32190   5.498   4.242   4.366
 7968SOL    HW232191   5.587   4.211   4.383
 7968SOL    HW332192   5.441   4.182   4.414
 7968SOL    MW432193   5.501   4.230   4.375
 7969SOL     OW32194   3.924   3.956   4.395
 7969SOL    HW232195   3.915   3.896   4.321
 7969SOL    HW332196   3.857   3.927   4.458
 7969SOL    MW432197   3.914   3.943   4.393
 7970SOL     OW32198   4.867   5.049   3.956
 7970SOL    HW232199   4.817   5.051   4.038
 7970SOL    HW332200   4.801   5.067   3.888
 7970SOL    MW432201   4.853   5.051   3.958
 7971SOL     OW32202   3.871   4.129   4.758
 7971SOL    HW232203   3.843   4.220   4.767
 7971SOL    HW332204   3.808   4.090   4.697
 7971SOL    MW432205   3.858   4.135   4.752
 7972SOL     OW32206   5.458   4.987   5.461
 7972SOL    HW232207   5.508   4.913   5.493
 7972SOL    HW332208   5.404   5.014   5.536
 7972SOL    MW432209   5.458   4.981   5.474
 7973SOL     OW32210   4.466   4.882   3.771
 7973SOL    HW232211   4.388   4.828   3.758
 7973SOL    HW332212   4.437   4.955   3.824
 7973SOL    MW432213   4.452   4.884   3.776
 7974SOL     OW32214   5.592   4.622   4.963
 7974SOL    HW232215   5.608   4.660   4.876
 7974SOL    HW332216   5.626   4.688   5.024
 7974SOL    MW432217   5.599   4.635   4.959
 7975SOL     OW32218   5.384   5.331   4.632
 7975SOL    HW232219   5.413   5.398   4.693
 7975SOL    HW332220   5.365   5.255   4.687
 7975SOL    MW432221   5.386   5.331   4.647
 7976SOL     OW32222   5.047   5.398   3.839
 7976SOL    HW232223   4.973   5.361   3.889
 7976SOL    HW332224   5.055   5.488   3.872
 7976SOL    MW432225   5.038   5.405   3.851
 7977SOL     OW32226   3.855   4.404   4.928
 7977SOL    HW232227   3.917   4.434   4.994
 7977SOL    HW332228   3.789   4.473   4.922
 7977SOL    MW432229   3.854   4.417   4.935
 7978SOL     OW32230   5.271   5.072   3.781
 7978SOL    HW232231   5.218   5.121   3.717
 7978SOL    HW332232   5.302   5.138   3.842
 7978SOL    MW432233   5.269   5.086   3.779
 7979SOL     OW32234   4.496   3.961   3.836
 7979SOL    HW232235   4.444   3.881   3.824
 7979SOL    HW332236   4.583   3.938   3.804
 7979SOL    MW432237   4.499   3.947   3.830
 7980SOL     OW32238   3.950   5.513   5.380
 7980SOL    HW232239   3.924   5.581   5.318
 7980SOL    HW332240   3.998   5.450   5.328
 7980SOL    MW432241   3.952   5.513   5.366
 7981SOL     OW32242   4.002   4.832   4.887
 7981SOL    HW232243   4.055   4.907   4.912
 7981SOL    HW332244   3.921   4.870   4.853
 7981SOL    MW432245   3.998   4.847   4.887
 7982SOL     OW32246   4.542   4.736   4.875
 7982SOL    HW232247   4.570   4.645   4.887
 7982SOL    HW332248   4.471   4.730   4.811
 7982SOL    MW432249   4.535   4.724   4.870
 7983SOL     OW32250   3.857   4.601   4.293
 7983SOL    HW232251   3.948   4.616   4.320
 7983SOL    HW332252   3.860   4.522   4.239
 7983SOL    MW432253   3.869   4.593   4.291
 7984SOL     OW32254   4.093   4.309   5.547
 7984SOL    HW232255   4.040   4.389   5.554
 7984SOL    HW332256   4.163   4.321   5.612
 7984SOL    MW432257   4.095   4.322   5.555
 7985SOL     OW32258   4.479   3.859   5.254
 7985SOL    HW232259   4.456   3.767   5.256
 7985SOL    HW332260   4.565   3.861   5.211
 7985SOL    MW432261   4.486   3.849   5.250
 7986SOL     OW32262   4.163   4.383   5.293
 7986SOL    HW232263   4.243   4.433   5.279
 7986SOL    HW332264   4.154   4.377   5.388
 7986SOL    MW432265   4.172   4.389   5.303
 7987SOL     OW32266   4.484   5.533   4.667
 7987SOL    HW232267   4.573   5.548   4.697
 7987SOL    HW332268   4.479   5.580   4.583
 7987SOL    MW432269   4.494   5.541   4.660
 7988SOL     OW32270   5.140   3.908   5.564
 7988SOL    HW232271   5.196   3.835   5.590
 7988SOL    HW332272   5.110   3.946   5.646
 7988SOL    MW432273   5.144   3.903   5.577
 7989SOL     OW32274   3.865   5.213   4.332
 7989SOL    HW232275   3.837   5.252   4.414
 7989SOL    HW332276   3.885   5.122   4.354
 7989SOL    MW432277   3.863   5.205   4.345
 7990SOL     OW32278   4.698   5.256   4.367
 7990SOL    HW232279   4.781   5.210   4.351
 7990SOL    HW332280   4.688   5.255   4.463
 7990SOL    MW432281   4.708   5.249   4.377
 7991SOL     OW32282   5.530   4.401   4.681
 7991SOL    HW232283   5.619   4.431   4.663
 7991SOL    HW332284   5.510   4.341   4.610
 7991SOL    MW432285   5.539   4.398   4.670
 7992SOL     OW32286   5.381   4.580   5.561
 7992SOL    HW232287   5.436   4.504   5.542
 7992SOL    HW332288   5.383   4.588   5.656
 7992SOL    MW432289   5.389   4.571   5.569
 7993SOL     OW32290   4.869   3.958   3.995
 7993SOL    HW232291   4.802   3.934   3.932
 7993SOL    HW332292   4.934   4.007   3.944
 7993SOL    MW432293   4.869   3.960   3.980
 7994SOL     OW32294   4.676   4.142   5.080
 7994SOL    HW232295   4.595   4.183   5.108
 7994SOL    HW332296   4.723   4.210   5.032
 7994SOL    MW432297   4.671   4.157   5.078
 7995SOL     OW32298   4.936   4.480   4.703
 7995SOL    HW232299   4.949   4.574   4.713
 7995SOL    HW332300   4.897   4.470   4.617
 7995SOL    MW432301   4.932   4.491   4.693
 7996SOL     OW32302   4.388   4.675   4.507
 7996SOL    HW232303   4.299   4.666   4.540
 7996SOL    HW332304   4.392   4.765   4.475
 7996SOL    MW432305   4.377   4.686   4.507
 7997SOL     OW32306   5.187   4.258   4.502
 7997SOL    HW232307   5.132   4.179   4.501
 7997SOL    HW332308   5.169   4.299   4.586
 7997SOL    MW432309   5.177   4.253   4.511
 7998SOL     OW32310   4.158   3.945   5.319
 7998SOL    HW232311   4.079   3.963   5.371
 7998SOL    HW332312   4.153   4.007   5.246
 7998SOL    MW432313   4.148   3.955   5.316
 7999SOL     OW32314   4.806   4.462   4.459
 7999SOL    HW232315   4.743   4.394   4.483
 7999SOL    HW332316   4.826   4.443   4.367
 7999SOL    MW432317   4.800   4.449   4.451
 8000SOL     OW32318   4.062   5.357   4.161
 8000SOL    HW232319   4.023   5.404   4.087
 8000SOL    HW332320   3.996   5.292   4.186
 8000SOL    MW432321   4.049   5.355   4.155
 8001SOL     OW32322   4.554   4.766   4.185
 8001SOL    HW232323   4.556   4.740   4.092
 8001SOL    HW332324   4.612   4.703   4.228
 8001SOL    MW432325   4.562   4.755   4.179
 8002SOL     OW32326   5.107   5.326   4.957
 8002SOL    HW232327   5.032   5.372   4.995
 8002SOL    HW332328   5.089   5.233   4.974
 8002SOL    MW432329   5.096   5.320   4.965
 8003SOL     OW32330   5.111   5.534   4.387
 8003SOL    HW232331   5.054   5.487   4.326
 8003SOL    HW332332   5.197   5.495   4.374
 8003SOL    MW432333   5.114   5.525   4.377
 8004SOL     OW32334   5.064   4.010   4.518
 8004SOL    HW232335   5.092   3.942   4.579
 8004SOL    HW332336   4.978   3.981   4.488
 8004SOL    MW432337   5.057   3.997   4.522
 8005SOL     OW32338   3.869   4.944   4.452
 8005SOL    HW232339   3.933   4.976   4.515
 8005SOL    HW332340   3.918   4.880   4.400
 8005SOL    MW432341   3.884   4.940   4.453
 8006SOL     OW32342   4.369   5.020   5.434
 8006SOL    HW232343   4.417   5.103   5.421
 8006SOL    HW332344   4.426   4.968   5.490
 8006SOL    MW432345   4.383   5.024   5.440
 8007SOL     OW32346   3.945   5.262   5.574
 8007SOL    HW232347   4.001   5.186   5.589
 8007SOL    HW332348   3.894   5.240   5.496
 8007SOL    MW432349   3.945   5.249   5.565
 8008SOL     OW32350   5.044   4.114   3.853
 8008SOL    HW232351   5.017   4.180   3.789
 8008SOL    HW332352   5.114   4.157   3.903
 8008SOL    MW432353   5.049   4.127   3.850
 8009SOL     OW32354   4.712   3.819   3.790
 8009SOL    HW232355   4.768   3.811   3.712
 8009SOL    HW332356   4.689   3.729   3.812
 8009SOL    MW432357   4.717   3.806   3.783
 8010SOL     OW32358   5.217   4.670   3.995
 8010SOL    HW232359   5.184   4.759   3.985
 8010SOL    HW332360   5.182   4.641   4.080
 8010SOL    MW432361   5.207   4.679   4.006
 8011SOL     OW32362   4.830   5.099   5.183
 8011SOL    HW232363   4.741   5.105   5.151
 8011SOL    HW332364   4.874   5.178   5.151
 8011SOL    MW432365   4.825   5.109   5.175
 8012SOL     OW32366   4.123   3.767   5.525
 8012SOL    HW232367   4.051   3.732   5.473
 8012SOL    HW332368   4.181   3.808   5.460
 8012SOL    MW432369   4.121   3.768   5.510
 8013SOL     OW32370   4.147   5.257   4.824
 8013SOL    HW232371   4.192   5.319   4.881
 8013SOL    HW332372   4.054   5.276   4.837
 8013SOL    MW432373   4.140   5.267   4.831
 8014SOL     OW32374   5.587   4.786   5.178
 8014SOL    HW232375   5.502   4.799   5.137
 8014SOL    HW332376   5.567   4.750   5.265
 8014SOL    MW432377   5.574   4.782   5.183
 8015SOL     OW32378   4.569   5.325   4.932
 8015SOL    HW232379   4.593   5.314   4.841
 8015SOL    HW332380   4.492   5.382   4.930
 8015SOL    MW432381   4.561   5.330   4.921
 8016SOL     OW32382   4.211   4.708   3.787
 8016SOL    HW232383   4.134   4.721   3.843
 8016SOL    HW332384   4.175   4.672   3.706
 8016SOL    MW432385   4.197   4.704   3.784
 8017SOL     OW32386   4.864   4.681   4.030
 8017SOL    HW232387   4.774   4.702   4.005
 8017SOL    HW332388   4.891   4.754   4.086
 8017SOL    MW432389   4.856   4.693   4.033
 8018SOL     OW32390   4.364   5.030   4.722
 8018SOL    HW232391   4.357   5.009   4.816
 8018SOL    HW332392   4.282   4.998   4.685
 8018SOL    MW432393   4.352   5.024   4.729
 8019SOL     OW32394   5.228   4.040   5.124
 8019SOL    HW232395   5.175   4.042   5.204
 8019SOL    HW332396   5.213   3.953   5.087
 8019SOL    MW432397   5.220   4.030   5.129
 8020SOL     OW32398   5.564   3.964   4.997
 8020SOL    HW232399   5.545   4.031   4.932
 8020SOL    HW332400   5.621   3.902   4.952
 8020SOL    MW432401   5.568   3.965   4.983
 8021SOL     OW32402   3.810   5.122   5.385
 8021SOL    HW232403   3.854   5.055   5.331
 8021SOL    HW332404   3.725   5.084   5.405
 8021SOL    MW432405   3.805   5.108   5.381
 8022SOL     OW32406   4.493   3.797   4.437
 8022SOL    HW232407   4.422   3.858   4.419
 8022SOL    HW332408   4.544   3.794   4.356
 8022SOL    MW432409   4.489   3.803   4.424
 8023SOL     OW32410   4.846   5.430   5.095
 8023SOL    HW232411   4.766   5.415   5.045
 8023SOL    HW332412   4.853   5.525   5.102
 8023SOL    MW432413   4.837   5.441   5.089
 8024SOL     OW32414   4.960   5.395   4.585
 8024SOL    HW232415   5.007   5.468   4.544
 8024SOL    HW332416   4.881   5.434   4.621
 8024SOL    MW432417   4.955   5.410   4.584
 8025SOL     OW32418   5.368   5.490   4.860
 8025SOL    HW232419   5.411   5.460   4.940
 8025SOL    HW332420   5.287   5.438   4.857
 8025SOL    MW432421   5.363   5.479   4.870
 8026SOL     OW32422   4.453   4.454   5.567
 8026SOL    HW232423   4.523   4.396   5.539
 8026SOL    HW332424   4.396   4.399   5.622
 8026SOL    MW432425   4.455   4.441   5.571
 8027SOL     OW32426   5.240   4.666   5.200
 8027SOL    HW232427   5.245   4.719   5.280
 8027SOL    HW332428   5.202   4.583   5.228
 8027SOL    MW432429   5.236   4.661   5.215
 8028SOL     OW32430   4.880   3.801   5.446
 8028SOL    HW232431   4.875   3.708   5.427
 8028SOL    HW332432   4.963   3.812   5.492
 8028SOL    MW432433   4.888   3.790   5.450
 8029SOL     OW32434   4.254   4.321   3.900
 8029SOL    HW232435   4.220   4.377   3.970
 8029SOL    HW332436   4.325   4.271   3.940
 8029SOL    MW432437   4.260   4.322   3.914
 8030SOL     OW32438   5.350   5.072   4.722
 8030SOL    HW232439   5.385   5.054   4.635
 8030SOL    HW332440   5.255   5.073   4.709
 8030SOL    MW432441   5.342   5.069   4.709
 8031SOL     OW32442   4.779   4.720   5.091
 8031SOL    HW232443   4.822   4.755   5.169
 8031SOL    HW332444   4.762   4.797   5.037
 8031SOL    MW432445   4.782   4.735   5.094
 8032SOL     OW32446   5.310   4.207   3.964
 8032SOL    HW232447   5.302   4.278   3.901
 8032SOL    HW332448   5.328   4.251   4.047
 8032SOL    MW432449   5.311   4.221   3.966
 8033SOL     OW32450   4.170   3.862   4.393
 8033SOL    HW232451   4.220   3.905   4.324
 8033SOL    HW332452   4.085   3.906   4.393
 8033SOL    MW432453   4.167   3.875   4.384
 8034SOL     OW32454   3.929   4.924   5.253
 8034SOL    HW232455   3.957   4.877   5.331
 8034SOL    HW332456   3.850   4.879   5.224
 8034SOL    MW432457   3.922   4.913   5.259
 8035SOL     OW32458   4.437   4.251   5.220
 8035SOL    HW232459   4.409   4.339   5.244
 8035SOL    HW332460   4.406   4.195   5.291
 8035SOL    MW432461   4.429   4.254   5.232
 8036SOL     OW32462   4.979   4.469   3.939
 8036SOL    HW232463   5.026   4.487   3.858
 8036SOL    HW332464   4.945   4.553   3.967
 8036SOL    MW432465   4.981   4.483   3.932
 8037SOL     OW32466   4.092   4.647   4.433
 8037SOL    HW232467   4.150   4.703   4.381
 8037SOL    HW332468   4.136   4.562   4.435
 8037SOL    MW432469   4.105   4.644   4.426
 8038SOL     OW32470   5.232   3.999   4.270
 8038SOL    HW232471   5.154   3.949   4.295
 8038SOL    HW332472   5.203   4.090   4.270
 8038SOL    MW432473   5.218   4.003   4.273
 8039SOL     OW32474   4.818   3.961   4.429
 8039SOL    HW232475   4.838   4.036   4.373
 8039SOL    HW332476   4.798   4.000   4.514
 8039SOL    MW432477   4.819   3.977   4.433
 8040SOL     OW32478   4.714   5.211   3.761
 8040SOL    HW232479   4.741   5.289   3.713
 8040SOL    HW332480   4.621   5.226   3.780
 8040SOL    MW432481   4.705   5.224   3.757
 8041SOL     OW32482   5.578   4.734   5.448
 8041SOL    HW232483   5.491   4.714   5.484
 8041SOL    HW332484   5.632   4.660   5.473
 8041SOL    MW432485   5.573   4.723   5.456
 8042SOL     OW32486   3.799   5.247   4.605
 8042SOL    HW232487   3.831   5.251   4.696
 8042SOL    HW332488   3.704   5.255   4.613
 8042SOL    MW432489   3.791   5.250   4.618
 8043SOL     OW32490   3.754   4.373   4.152
 8043SOL    HW232491   3.694   4.345   4.222
 8043SOL    HW332492   3.828   4.313   4.158
 8043SOL    MW432493   3.756   4.362   4.161
 8044SOL     OW32494   5.322   5.585   5.586
 8044SOL    HW232495   5.367   5.509   5.551
 8044SOL    HW332496   5.360   5.598   5.673
 8044SOL    MW432497   5.332   5.578   5.592
 8045SOL     OW32498   4.922   5.104   4.312
 8045SOL    HW232499   4.945   5.055   4.390
 8045SOL    HW332500   5.003   5.146   4.284
 8045SOL    MW432501   4.935   5.104   4.319
 8046SOL     OW32502   4.180   4.112   5.041
 8046SOL    HW232503   4.213   4.193   5.081
 8046SOL    HW332504   4.153   4.138   4.953
 8046SOL    MW432505   4.179   4.126   5.035
 8047SOL     OW32506   4.134   4.079   4.777
 8047SOL    HW232507   4.164   3.993   4.748
 8047SOL    HW332508   4.039   4.072   4.780
 8047SOL    MW432509   4.126   4.068   4.775
 8048SOL     OW32510   4.963   4.288   5.468
 8048SOL    HW232511   5.015   4.223   5.421
 8048SOL    HW332512   4.921   4.339   5.398
 8048SOL    MW432513   4.964   4.285   5.451
 8049SOL     OW32514   5.062   4.083   5.329
 8049SOL    HW232515   4.969   4.067   5.316
 8049SOL    HW332516   5.088   4.021   5.397
 8049SOL    MW432517   5.052   4.073   5.336
 8050SOL     OW32518   4.277   3.857   4.668
 8050SOL    HW232519   4.287   3.766   4.694
 8050SOL    HW332520   4.233   3.853   4.583
 8050SOL    MW432521   4.273   3.845   4.660
 8051SOL     OW32522   4.371   5.472   5.214
 8051SOL    HW232523   4.288   5.457   5.259
 8051SOL    HW332524   4.430   5.405   5.249
 8051SOL    MW432525   4.369   5.462   5.224
 8052SOL     OW32526   5.428   4.179   4.839
 8052SOL    HW232527   5.361   4.212   4.899
 8052SOL    HW332528   5.471   4.257   4.805
 8052SOL    MW432529   5.426   4.194   4.843
 8053SOL     OW32530   5.606   4.899   4.809
 8053SOL    HW232531   5.599   4.839   4.734
 8053SOL    HW332532   5.532   4.959   4.798
 8053SOL    MW432533   5.596   4.899   4.798
 8054SOL     OW32534   4.988   4.761   4.727
 8054SOL    HW232535   5.002   4.733   4.818
 8054SOL    HW332536   5.074   4.792   4.699
 8054SOL    MW432537   5.001   4.762   4.736
 8055SOL     OW32538   5.071   4.256   5.006
 8055SOL    HW232539   5.092   4.257   4.913
 8055SOL    HW332540   5.116   4.178   5.039
 8055SOL    MW432541   5.078   4.246   4.998
 8056SOL     OW32542   5.564   4.387   5.548
 8056SOL    HW232543   5.601   4.332   5.617
 8056SOL    HW332544   5.589   4.344   5.466
 8056SOL    MW432545   5.571   4.375   5.547
 8057SOL     OW32546   5.111   4.685   5.600
 8057SOL    HW232547   5.177   4.633   5.554
 8057SOL    HW332548   5.131   4.672   5.693
 8057SOL    MW432549   5.122   4.676   5.607
 8058SOL     OW32550   5.062   3.771   3.948
 8058SOL    HW232551   5.136   3.815   3.991
 8058SOL    HW332552   4.986   3.825   3.970
 8058SOL    MW432553   5.062   3.783   3.956
 8059SOL     OW32554   5.122   4.546   4.226
 8059SOL    HW232555   5.037   4.516   4.196
 8059SOL    HW332556   5.114   4.553   4.321
 8059SOL    MW432557   5.110   4.544   4.235
 8060SOL     OW32558   4.198   5.009   4.957
 8060SOL    HW232559   4.210   5.036   5.048
 8060SOL    HW332560   4.179   5.090   4.910
 8060SOL    MW432561   4.197   5.024   4.962
 8061SOL     OW32562   4.482   3.989   4.780
 8061SOL    HW232563   4.455   3.991   4.871
 8061SOL    HW332564   4.412   3.941   4.735
 8061SOL    MW432565   4.470   3.985   4.787
 8062SOL     OW32566   4.336   5.481   4.942
 8062SOL    HW232567   4.388   5.558   4.919
 8062SOL    HW332568   4.345   5.473   5.037
 8062SOL    MW432569   4.345   5.488   4.953
 8063SOL     OW32570   5.238   5.066   5.174
 8063SOL    HW232571   5.223   4.995   5.237
 8063SOL    HW332572   5.284   5.024   5.102
 8063SOL    MW432573   5.244   5.050   5.174
 8064SOL     OW32574   4.312   4.797   5.291
 8064SOL    HW232575   4.349   4.802   5.203
 8064SOL    HW332576   4.351   4.870   5.338
 8064SOL    MW432577   4.322   4.807   5.286
 8065SOL     OW32578   4.492   4.840   5.103
 8065SOL    HW232579   4.551   4.786   5.156
 8065SOL    HW332580   4.507   4.812   5.013
 8065SOL    MW432581   4.502   4.829   5.099
 8066SOL     OW32582   4.495   4.212   3.952
 8066SOL    HW232583   4.568   4.261   3.915
 8066SOL    HW332584   4.511   4.121   3.926
 8066SOL    MW432585   4.507   4.207   3.945
 8067SOL     OW32586   5.303   5.329   5.275
 8067SOL    HW232587   5.345   5.314   5.360
 8067SOL    HW332588   5.294   5.242   5.237
 8067SOL    MW432589   5.307   5.317   5.282
 8068SOL     OW32590   4.963   3.808   4.866
 8068SOL    HW232591   5.018   3.817   4.788
 8068SOL    HW332592   5.018   3.842   4.937
 8068SOL    MW432593   4.977   3.813   4.865
 8069SOL     OW32594   3.970   4.721   4.050
 8069SOL    HW232595   3.907   4.737   3.979
 8069SOL    HW332596   3.917   4.684   4.121
 8069SOL    MW432597   3.955   4.718   4.050
 8070SOL     OW32598   4.326   5.075   3.909
 8070SOL    HW232599   4.341   5.051   4.001
 8070SOL    HW332600   4.234   5.053   3.893
 8070SOL    MW432601   4.316   5.068   3.919
 8071SOL     OW32602   4.865   5.306   4.061
 8071SOL    HW232603   4.873   5.224   4.012
 8071SOL    HW332604   4.784   5.345   4.028
 8071SOL    MW432605   4.855   5.301   4.051
 8072SOL     OW32606   4.124   5.464   4.630
 8072SOL    HW232607   4.128   5.375   4.665
 8072SOL    HW332608   4.150   5.455   4.539
 8072SOL    MW432609   4.127   5.452   4.622
 8073SOL     OW32610   4.741   4.942   4.873
 8073SOL    HW232611   4.673   4.876   4.889
 8073SOL    HW332612   4.759   4.936   4.780
 8073SOL    MW432613   4.734   4.933   4.864
 8074SOL     OW32614   3.830   5.217   5.124
 8074SOL    HW232615   3.820   5.175   5.210
 8074SOL    HW332616   3.751   5.270   5.114
 8074SOL    MW432617   3.819   5.218   5.135
 8075SOL     OW32618   4.734   4.081   4.694
 8075SOL    HW232619   4.664   4.033   4.739
 8075SOL    HW332620   4.766   4.144   4.758
 8075SOL    MW432621   4.729   4.083   4.708
 8076SOL     OW32622   4.385   4.517   5.314
 8076SOL    HW232623   4.378   4.612   5.302
 8076SOL    HW332624   4.394   4.506   5.409
 8076SOL    MW432625   4.386   4.529   5.324
 8077SOL     OW32626   4.106   5.032   5.572
 8077SOL    HW232627   4.178   5.034   5.509
 8077SOL    HW332628   4.076   4.941   5.571
 8077SOL    MW432629   4.111   5.021   5.564
 8078SOL     OW32630   5.190   3.795   5.039
 8078SOL    HW232631   5.261   3.741   5.003
 8078SOL    HW332632   5.189   3.774   5.132
 8078SOL    MW432633   5.199   3.786   5.047
 8079SOL     OW32634   5.390   5.325   5.523
 8079SOL    HW232635   5.363   5.322   5.614
 8079SOL    HW332636   5.486   5.329   5.526
 8079SOL    MW432637   5.400   5.325   5.535
 8080SOL     OW32638   4.201   4.187   4.507
 8080SOL    HW232639   4.272   4.135   4.470
 8080SOL    HW332640   4.187   4.152   4.594
 8080SOL    MW432641   4.209   4.176   4.514
 8081SOL     OW32642   3.756   5.522   5.579
 8081SOL    HW232643   3.806   5.500   5.501
 8081SOL    HW332644   3.764   5.617   5.587
 8081SOL    MW432645   3.764   5.531   5.570
 8082SOL     OW32646   4.517   5.280   4.583
 8082SOL    HW232647   4.445   5.217   4.596
 8082SOL    HW332648   4.478   5.365   4.601
 8082SOL    MW432649   4.501   5.283   4.586
 8083SOL     OW32650   4.837   4.128   4.231
 8083SOL    HW232651   4.859   4.065   4.163
 8083SOL    HW332652   4.742   4.120   4.242
 8083SOL    MW432653   4.827   4.119   4.223
 8084SOL     OW32654   3.922   3.818   4.163
 8084SOL    HW232655   3.993   3.839   4.102
 8084SOL    HW332656   3.876   3.746   4.121
 8084SOL    MW432657   3.926   3.812   4.149
 8085SOL     OW32658   3.753   4.285   5.306
 8085SOL    HW232659   3.817   4.351   5.281
 8085SOL    HW332660   3.672   4.312   5.263
 8085SOL    MW432661   3.751   4.297   5.298
 8086SOL     OW32662   5.491   5.192   4.263
 8086SOL    HW232663   5.461   5.125   4.324
 8086SOL    HW332664   5.585   5.198   4.277
 8086SOL    MW432665   5.499   5.184   4.273
 8087SOL     OW32666   5.047   4.869   4.193
 8087SOL    HW232667   5.019   4.955   4.226
 8087SOL    HW332668   5.075   4.885   4.103
 8087SOL    MW432669   5.047   4.883   4.185
 8088SOL     OW32670   4.709   3.789   4.246
 8088SOL    HW232671   4.746   3.848   4.311
 8088SOL    HW332672   4.686   3.845   4.172
 8088SOL    MW432673   4.710   3.804   4.245
 8089SOL     OW32674   5.562   4.671   4.668
 8089SOL    HW232675   5.553   4.703   4.579
 8089SOL    HW332676   5.515   4.587   4.668
 8089SOL    MW432677   5.555   4.664   4.658
 8090SOL     OW32678   3.938   4.511   5.247
 8090SOL    HW232679   3.959   4.580   5.185
 8090SOL    HW332680   4.018   4.458   5.252
 8090SOL    MW432681   3.951   4.512   5.241
 8091SOL     OW32682   5.474   4.602   4.369
 8091SOL    HW232683   5.568   4.591   4.357
 8091SOL    HW332684   5.450   4.674   4.310
 8091SOL    MW432685   5.484   4.610   4.360
 8092SOL     OW32686   3.923   4.526   5.514
 8092SOL    HW232687   3.849   4.470   5.540
 8092SOL    HW332688   3.918   4.529   5.419
 8092SOL    MW432689   3.912   4.519   5.504
 8093SOL     OW32690   4.089   3.813   4.964
 8093SOL    HW232691   4.132   3.897   4.984
 8093SOL    HW332692   4.162   3.751   4.957
 8093SOL    MW432693   4.104   3.816   4.965
 8094SOL     OW32694   4.130   4.480   4.142
 8094SOL    HW232695   4.130   4.575   4.127
 8094SOL    HW332696   4.207   4.464   4.196
 8094SOL    MW432697   4.140   4.491   4.147
 8095SOL     OW32698   4.906   4.339   5.206
 8095SOL    HW232699   4.942   4.312   5.122
 8095SOL    HW332700   4.819   4.373   5.185
 8095SOL    MW432701   4.900   4.340   5.193
 8096SOL     OW32702   3.889   4.211   4.431
 8096SOL    HW232703   3.951   4.218   4.504
 8096SOL    HW332704   3.889   4.118   4.408
 8096SOL    MW432705   3.897   4.200   4.438
 8097SOL     OW32706   5.436   5.551   3.963
 8097SOL    HW232707   5.503   5.584   3.903
 8097SOL    HW332708   5.393   5.630   3.997
 8097SOL    MW432709   5.438   5.566   3.959
 8098SOL     OW32710   4.571   4.472   4.915
 8098SOL    HW232711   4.529   4.390   4.891
 8098SOL    HW332712   4.572   4.471   5.011
 8098SOL    MW432713   4.564   4.461   4.924
 8099SOL     OW32714   5.242   5.605   5.314
 8099SOL    HW232715   5.245   5.511   5.297
 8099SOL    HW332716   5.265   5.613   5.406
 8099SOL    MW432717   5.245   5.593   5.324
 8100SOL     OW32718   4.375   3.942   5.020
 8100SOL    HW232719   4.306   4.005   5.041
 8100SOL    HW332720   4.402   3.906   5.105
 8100SOL    MW432721   4.369   3.945   5.033
 8101SOL     OW32722   3.758   4.783   3.889
 8101SOL    HW232723   3.727   4.848   3.952
 8101SOL    HW332724   3.707   4.705   3.908
 8101SOL    MW432725   3.748   4.780   3.899
 8102SOL     OW32726   5.170   3.795   4.637
 8102SOL    HW232727   5.258   3.804   4.674
 8102SOL    HW332728   5.180   3.736   4.563
 8102SOL    MW432729   5.184   3.789   4.631
 8103SOL     OW32730   5.202   4.534   4.481
 8103SOL    HW232731   5.282   4.549   4.430
 8103SOL    HW332732   5.195   4.439   4.487
 8103SOL    MW432733   5.211   4.523   4.476
 8104SOL     OW32734   4.652   4.460   5.178
 8104SOL    HW232735   4.721   4.527   5.175
 8104SOL    HW332736   4.585   4.498   5.234
 8104SOL    MW432737   4.653   4.473   5.185
 8105SOL     OW32738   4.070   4.760   5.426
 8105SOL    HW232739   4.024   4.676   5.428
 8105SOL    HW332740   4.127   4.754   5.350
 8105SOL    MW432741   4.072   4.748   5.418
 8106SOL     OW32742   5.187   4.403   3.747
 8106SOL    HW232743   5.115   4.379   3.689
 8106SOL    HW332744   5.253   4.440   3.689
 8106SOL    MW432745   5.186   4.405   3.732
 8107SOL     OW32746   4.321   5.135   4.427
 8107SOL    HW232747   4.386   5.068   4.448
 8107SOL    HW332748   4.373   5.212   4.404
 8107SOL    MW432749   4.336   5.137   4.426
 8108SOL     OW32750   4.582   4.300   4.557
 8108SOL    HW232751   4.522   4.318   4.629
 8108SOL    HW332752   4.616   4.212   4.576
 8108SOL    MW432753   4.578   4.290   4.570
 8109SOL     OW32754   5.523   3.799   5.226
 8109SOL    HW232755   5.444   3.845   5.254
 8109SOL    HW332756   5.558   3.853   5.155
 8109SOL    MW432757   5.517   3.812   5.220
 8110SOL     OW32758   4.807   4.883   4.576
 8110SOL    HW232759   4.899   4.864   4.594
 8110SOL    HW332760   4.780   4.813   4.516
 8110SOL    MW432761   4.815   4.871   4.570
 8111SOL     OW32762   4.600   4.703   3.931
 8111SOL    HW232763   4.586   4.615   3.896
 8111SOL    HW332764   4.551   4.760   3.872
 8111SOL    MW432765   4.592   4.698   3.919
 8112SOL     OW32766   5.081   5.121   4.672
 8112SOL    HW232767   5.054   5.205   4.637
 8112SOL    HW332768   5.041   5.116   4.759
 8112SOL    MW432769   5.074   5.130   4.678
 8113SOL     OW32770   5.000   5.069   4.940
 8113SOL    HW232771   5.011   5.036   5.029
 8113SOL    HW332772   4.919   5.028   4.909
 8113SOL    MW432773   4.990   5.061   4.946
 8114SOL     OW32774   4.013   4.427   4.710
 8114SOL    HW232775   3.963   4.426   4.791
 8114SOL    HW332776   4.033   4.519   4.694
 8114SOL    MW432777   4.009   4.439   4.718
 8115SOL     OW32778   5.080   5.191   5.472
 8115SOL    HW232779   5.080   5.285   5.488
 8115SOL    HW332780   5.125   5.181   5.388
 8115SOL    MW432781   5.086   5.201   5.463
 8116SOL     OW32782   5.319   3.909   4.033
 8116SOL    HW232783   5.312   3.913   4.128
 8116SOL    HW332784   5.331   4.000   4.006
 8116SOL    MW432785   5.320   3.922   4.041
 8117SOL     OW32786   4.608   4.472   4.147
 8117SOL    HW232787   4.588   4.458   4.054
 8117SOL    HW332788   4.701   4.451   4.154
 8117SOL    MW432789   4.618   4.467   4.136
 8118SOL     OW32790   3.935   4.095   5.451
 8118SOL    HW232791   3.892   4.154   5.388
 8118SOL    HW332792   4.003   4.150   5.491
 8118SOL    MW432793   3.939   4.110   5.448
 8119SOL     OW32794   5.047   4.715   4.996
 8119SOL    HW232795   5.110   4.712   5.069
 8119SOL    HW332796   4.963   4.733   5.038
 8119SOL    MW432797   5.043   4.717   5.011
 8120SOL     OW32798   4.591   5.430   4.185
 8120SOL    HW232799   4.649   5.501   4.212
 8120SOL    HW332800   4.614   5.358   4.243
 8120SOL    MW432801   4.602   5.430   4.196
 8121SOL     OW32802   5.386   3.892   4.775
 8121SOL    HW232803   5.431   3.810   4.794
 8121SOL    HW332804   5.406   3.948   4.851
 8121SOL    MW432805   5.396   3.888   4.787
 8122SOL     OW32806   3.834   3.735   4.874
 8122SOL    HW232807   3.825   3.736   4.779
 8122SOL    HW332808   3.928   3.747   4.889
 8122SOL    MW432809   3.846   3.738   4.865
 8123SOL     OW32810   5.471   4.928   4.494
 8123SOL    HW232811   5.450   4.874   4.417
 8123SOL    HW332812   5.567   4.926   4.498
 8123SOL    MW432813   5.480   4.921   4.483
 8124SOL     OW32814   4.163   5.073   5.237
 8124SOL    HW232815   4.084   5.023   5.260
 8124SOL    HW332816   4.233   5.032   5.287
 8124SOL    MW432817   4.161   5.061   5.247
 8125SOL     OW32818   4.047   3.862   3.920
 8125SOL    HW232819   3.976   3.917   3.888
 8125SOL    HW332820   4.089   3.828   3.841
 8125SOL    MW432821   4.043   3.864   3.906
 8126SOL     OW32822   5.171   4.359   4.756
 8126SOL    HW232823   5.094   4.405   4.722
 8126SOL    HW332824   5.228   4.428   4.790
 8126SOL    MW432825   5.168   4.374   4.756
 8127SOL     OW32826   3.803   3.961   3.769
 8127SOL    HW232827   3.770   4.040   3.813
 8127SOL    HW332828   3.858   3.994   3.698
 8127SOL    MW432829   3.806   3.975   3.766
 8128SOL     OW32830   5.109   5.307   4.175
 8128SOL    HW232831   5.172   5.297   4.104
 8128SOL    HW332832   5.026   5.327   4.130
 8128SOL    MW432833   5.106   5.308   4.160
 8129SOL     OW32834   5.472   4.575   5.862
 8129SOL    HW232835   5.513   4.517   5.927
 8129SOL    HW332836   5.379   4.567   5.879
 8129SOL    MW432837   5.466   4.567   5.872
 8130SOL     OW32838   4.266   4.758   6.091
 8130SOL    HW232839   4.356   4.733   6.075
 8130SOL    HW332840   4.262   4.851   6.068
 8130SOL    MW432841   4.278   4.767   6.086
 8131SOL     OW32842   5.382   5.461   6.233
 8131SOL    HW232843   5.394   5.407   6.311
 8131SOL    HW332844   5.419   5.409   6.162
 8131SOL    MW432845   5.388   5.446   6.234
 8132SOL     OW32846   4.550   4.214   6.104
 8132SOL    HW232847   4.525   4.302   6.132
 8132SOL    HW332848   4.547   4.217   6.008
 8132SOL    MW432849   4.546   4.226   6.096
 8133SOL     OW32850   3.992   4.242   6.032
 8133SOL    HW232851   4.024   4.330   6.014
 8133SOL    HW332852   3.980   4.240   6.127
 8133SOL    MW432853   3.995   4.254   6.044
 8134SOL     OW32854   4.391   3.997   6.119
 8134SOL    HW232855   4.449   4.073   6.121
 8134SOL    HW332856   4.326   4.018   6.052
 8134SOL    MW432857   4.390   4.009   6.110
 8135SOL     OW32858   4.478   4.924   6.294
 8135SOL    HW232859   4.558   4.927   6.346
 8135SOL    HW332860   4.506   4.891   6.208
 8135SOL    MW432861   4.492   4.920   6.289
 8136SOL     OW32862   4.255   4.428   6.285
 8136SOL    HW232863   4.240   4.348   6.336
 8136SOL    HW332864   4.337   4.463   6.319
 8136SOL    MW432865   4.263   4.420   6.297
 8137SOL     OW32866   4.397   4.254   6.662
 8137SOL    HW232867   4.303   4.250   6.680
 8137SOL    HW332868   4.427   4.163   6.671
 8137SOL    MW432869   4.388   4.242   6.665
 8138SOL     OW32870   4.143   4.668   6.566
 8138SOL    HW232871   4.098   4.675   6.482
 8138SOL    HW332872   4.123   4.751   6.610
 8138SOL    MW432873   4.135   4.680   6.560
 8139SOL     OW32874   3.840   5.514   6.441
 8139SOL    HW232875   3.929   5.506   6.476
 8139SOL    HW332876   3.804   5.426   6.446
 8139SOL    MW432877   3.847   5.501   6.446
 8140SOL     OW32878   5.105   4.906   5.810
 8140SOL    HW232879   5.023   4.942   5.776
 8140SOL    HW332880   5.173   4.949   5.759
 8140SOL    MW432881   5.103   4.916   5.798
 8141SOL     OW32882   4.104   5.041   6.476
 8141SOL    HW232883   4.080   5.094   6.552
 8141SOL    HW332884   4.160   5.099   6.424
 8141SOL    MW432885   4.108   5.056   6.479
 8142SOL     OW32886   4.666   4.685   6.286
 8142SOL    HW232887   4.580   4.672   6.326
 8142SOL    HW332888   4.719   4.612   6.318
 8142SOL    MW432889   4.662   4.674   6.295
 8143SOL     OW32890   4.154   4.020   5.971
 8143SOL    HW232891   4.128   3.982   5.887
 8143SOL    HW332892   4.091   4.090   5.987
 8143SOL    MW432893   4.143   4.023   5.962
 8144SOL     OW32894   3.989   4.981   6.008
 8144SOL    HW232895   3.937   5.049   5.964
 8144SOL    HW332896   3.986   4.907   5.948
 8144SOL    MW432897   3.981   4.980   5.995
 8145SOL     OW32898   4.651   5.444   5.786
 8145SOL    HW232899   4.606   5.460   5.869
 8145SOL    HW332900   4.582   5.409   5.728
 8145SOL    MW432901   4.637   5.441   5.788
 8146SOL     OW32902   5.586   4.217   5.761
 8146SOL    HW232903   5.495   4.219   5.789
 8146SOL    HW332904   5.631   4.279   5.819
 8146SOL    MW432905   5.579   4.225   5.771
 8147SOL     OW32906   5.331   4.820   6.111
 8147SOL    HW232907   5.241   4.820   6.146
 8147SOL    HW332908   5.324   4.866   6.028
 8147SOL    MW432909   5.318   4.826   6.105
 8148SOL     OW32910   3.872   5.335   6.735
 8148SOL    HW232911   3.855   5.281   6.812
 8148SOL    HW332912   3.860   5.425   6.765
 8148SOL    MW432913   3.869   5.339   6.749
 8149SOL     OW32914   5.238   4.798   6.503
 8149SOL    HW232915   5.241   4.732   6.434
 8149SOL    HW332916   5.323   4.841   6.499
 8149SOL    MW432917   5.250   4.794   6.494
 8150SOL     OW32918   4.858   4.401   6.072
 8150SOL    HW232919   4.884   4.425   5.983
 8150SOL    HW332920   4.840   4.308   6.068
 8150SOL    MW432921   4.860   4.393   6.059
 8151SOL     OW32922   5.523   5.021   5.923
 8151SOL    HW232923   5.479   5.062   5.998
 8151SOL    HW332924   5.580   5.089   5.888
 8151SOL    MW432925   5.525   5.035   5.928
 8152SOL     OW32926   4.179   5.437   6.241
 8152SOL    HW232927   4.211   5.525   6.219
 8152SOL    HW332928   4.132   5.409   6.163
 8152SOL    MW432929   4.178   5.445   6.228
 8153SOL     OW32930   5.563   3.799   6.290
 8153SOL    HW232931   5.617   3.750   6.352
 8153SOL    HW332932   5.506   3.733   6.251
 8153SOL    MW432933   5.563   3.783   6.292
 8154SOL     OW32934   3.895   5.497   5.818
 8154SOL    HW232935   3.924   5.587   5.810
 8154SOL    HW332936   3.845   5.480   5.739
 8154SOL    MW432937   3.893   5.505   5.807
 8155SOL     OW32938   5.299   5.305   5.789
 8155SOL    HW232939   5.347   5.374   5.835
 8155SOL    HW332940   5.220   5.349   5.758
 8155SOL    MW432941   5.294   5.319   5.792
 8156SOL     OW32942   4.697   4.430   5.733
 8156SOL    HW232943   4.699   4.377   5.654
 8156SOL    HW332944   4.785   4.467   5.739
 8156SOL    MW432945   4.709   4.429   5.722
 8157SOL     OW32946   5.311   4.356   6.069
 8157SOL    HW232947   5.350   4.356   6.156
 8157SOL    HW332948   5.252   4.432   6.069
 8157SOL    MW432949   5.308   4.367   6.080
 8158SOL     OW32950   4.797   4.349   6.792
 8158SOL    HW232951   4.872   4.378   6.739
 8158SOL    HW332952   4.729   4.414   6.776
 8158SOL    MW432953   4.798   4.361   6.782
 8159SOL     OW32954   5.498   4.242   6.235
 8159SOL    HW232955   5.587   4.211   6.252
 8159SOL    HW332956   5.441   4.182   6.283
 8159SOL    MW432957   5.501   4.230   6.244
 8160SOL     OW32958   3.924   3.956   6.264
 8160SOL    HW232959   3.915   3.896   6.190
 8160SOL    HW332960   3.857   3.927   6.327
 8160SOL    MW432961   3.914   3.943   6.262
 8161SOL     OW32962   4.867   5.049   5.825
 8161SOL    HW232963   4.817   5.051   5.907
 8161SOL    HW332964   4.801   5.067   5.757
 8161SOL    MW432965   4.853   5.051   5.827
 8162SOL     OW32966   3.871   4.129   6.627
 8162SOL    HW232967   3.843   4.220   6.636
 8162SOL    HW332968   3.808   4.090   6.566
 8162SOL    MW432969   3.858   4.135   6.621
 8163SOL     OW32970   4.330   5.467   5.933
 8163SOL    HW232971   4.251   5.425   5.966
 8163SOL    HW332972   4.396   5.450   6.000
 8163SOL    MW432973   4.329   5.459   5.946
 8164SOL     OW32974   4.466   4.882   5.640
 8164SOL    HW232975   4.388   4.828   5.627
 8164SOL    HW332976   4.437   4.955   5.693
 8164SOL    MW432977   4.452   4.884   5.645
 8165SOL     OW32978   5.047   5.398   5.708
 8165SOL    HW232979   4.973   5.361   5.758
 8165SOL    HW332980   5.055   5.488   5.741
 8165SOL    MW432981   5.038   5.405   5.720
 8166SOL     OW32982   5.271   5.072   5.650
 8166SOL    HW232983   5.218   5.121   5.586
 8166SOL    HW332984   5.302   5.138   5.711
 8166SOL    MW432985   5.269   5.086   5.648
 8167SOL     OW32986   4.496   3.961   5.705
 8167SOL    HW232987   4.444   3.881   5.693
 8167SOL    HW332988   4.583   3.938   5.673
 8167SOL    MW432989   4.499   3.947   5.699
 8168SOL     OW32990   4.002   4.832   6.756
 8168SOL    HW232991   4.055   4.907   6.781
 8168SOL    HW332992   3.921   4.870   6.722
 8168SOL    MW432993   3.998   4.847   6.756
 8169SOL     OW32994   4.542   4.736   6.744
 8169SOL    HW232995   4.570   4.645   6.756
 8169SOL    HW332996   4.471   4.730   6.680
 8169SOL    MW432997   4.535   4.724   6.739
 8170SOL     OW32998   3.857   4.601   6.162
 8170SOL    HW232999   3.948   4.616   6.189
 8170SOL    HW333000   3.860   4.522   6.108
 8170SOL    MW433001   3.869   4.593   6.160
 8171SOL     OW33002   4.484   5.533   6.536
 8171SOL    HW233003   4.573   5.548   6.566
 8171SOL    HW333004   4.479   5.580   6.452
 8171SOL    MW433005   4.494   5.541   6.529
 8172SOL     OW33006   3.865   5.213   6.201
 8172SOL    HW233007   3.837   5.252   6.283
 8172SOL    HW333008   3.885   5.122   6.223
 8172SOL    MW433009   3.863   5.205   6.214
 8173SOL     OW33010   4.698   5.256   6.236
 8173SOL    HW233011   4.781   5.210   6.220
 8173SOL    HW333012   4.688   5.255   6.332
 8173SOL    MW433013   4.708   5.249   6.246
 8174SOL     OW33014   5.530   4.401   6.550
 8174SOL    HW233015   5.619   4.431   6.532
 8174SOL    HW333016   5.510   4.341   6.479
 8174SOL    MW433017   5.539   4.398   6.539
 8175SOL     OW33018   4.431   5.313   5.641
 8175SOL    HW233019   4.371   5.382   5.611
 8175SOL    HW333020   4.376   5.255   5.694
 8175SOL    MW433021   4.415   5.315   5.643
 8176SOL     OW33022   4.869   3.958   5.864
 8176SOL    HW233023   4.802   3.934   5.801
 8176SOL    HW333024   4.934   4.007   5.813
 8176SOL    MW433025   4.869   3.960   5.849
 8177SOL     OW33026   4.936   4.480   6.572
 8177SOL    HW233027   4.949   4.574   6.582
 8177SOL    HW333028   4.897   4.470   6.486
 8177SOL    MW433029   4.932   4.491   6.562
 8178SOL     OW33030   4.388   4.675   6.376
 8178SOL    HW233031   4.299   4.666   6.409
 8178SOL    HW333032   4.392   4.765   6.344
 8178SOL    MW433033   4.377   4.686   6.376
 8179SOL     OW33034   5.187   4.258   6.371
 8179SOL    HW233035   5.132   4.179   6.370
 8179SOL    HW333036   5.169   4.299   6.455
 8179SOL    MW433037   5.177   4.253   6.380
 8180SOL     OW33038   4.806   4.462   6.328
 8180SOL    HW233039   4.743   4.394   6.352
 8180SOL    HW333040   4.826   4.443   6.236
 8180SOL    MW433041   4.800   4.449   6.320
 8181SOL     OW33042   4.062   5.357   6.030
 8181SOL    HW233043   4.023   5.404   5.956
 8181SOL    HW333044   3.996   5.292   6.055
 8181SOL    MW433045   4.049   5.355   6.024
 8182SOL     OW33046   4.554   4.766   6.054
 8182SOL    HW233047   4.556   4.740   5.961
 8182SOL    HW333048   4.612   4.703   6.097
 8182SOL    MW433049   4.562   4.755   6.048
 8183SOL     OW33050   5.111   5.534   6.256
 8183SOL    HW233051   5.054   5.487   6.195
 8183SOL    HW333052   5.197   5.495   6.243
 8183SOL    MW433053   5.114   5.525   6.246
 8184SOL     OW33054   5.064   4.010   6.387
 8184SOL    HW233055   5.092   3.942   6.448
 8184SOL    HW333056   4.978   3.981   6.357
 8184SOL    MW433057   5.057   3.997   6.391
 8185SOL     OW33058   3.869   4.944   6.321
 8185SOL    HW233059   3.933   4.976   6.384
 8185SOL    HW333060   3.918   4.880   6.269
 8185SOL    MW433061   3.884   4.940   6.322
 8186SOL     OW33062   5.044   4.114   5.722
 8186SOL    HW233063   5.017   4.180   5.658
 8186SOL    HW333064   5.114   4.157   5.772
 8186SOL    MW433065   5.049   4.127   5.719
 8187SOL     OW33066   4.712   3.819   5.659
 8187SOL    HW233067   4.768   3.811   5.581
 8187SOL    HW333068   4.689   3.729   5.681
 8187SOL    MW433069   4.717   3.806   5.652
 8188SOL     OW33070   5.217   4.670   5.864
 8188SOL    HW233071   5.184   4.759   5.854
 8188SOL    HW333072   5.182   4.641   5.949
 8188SOL    MW433073   5.207   4.679   5.875
 8189SOL     OW33074   4.147   5.257   6.693
 8189SOL    HW233075   4.192   5.319   6.750
 8189SOL    HW333076   4.054   5.276   6.706
 8189SOL    MW433077   4.140   5.267   6.700
 8190SOL     OW33078   4.569   5.325   6.801
 8190SOL    HW233079   4.593   5.314   6.710
 8190SOL    HW333080   4.492   5.382   6.799
 8190SOL    MW433081   4.561   5.330   6.790
 8191SOL     OW33082   4.211   4.708   5.656
 8191SOL    HW233083   4.134   4.721   5.712
 8191SOL    HW333084   4.175   4.672   5.575
 8191SOL    MW433085   4.197   4.704   5.653
 8192SOL     OW33086   4.864   4.681   5.899
 8192SOL    HW233087   4.774   4.702   5.874
 8192SOL    HW333088   4.891   4.754   5.955
 8192SOL    MW433089   4.856   4.693   5.902
 8193SOL     OW33090   4.364   5.030   6.591
 8193SOL    HW233091   4.357   5.009   6.685
 8193SOL    HW333092   4.282   4.998   6.554
 8193SOL    MW433093   4.352   5.024   6.598
 8194SOL     OW33094   4.493   3.797   6.306
 8194SOL    HW233095   4.422   3.858   6.288
 8194SOL    HW333096   4.544   3.794   6.225
 8194SOL    MW433097   4.489   3.803   6.293
 8195SOL     OW33098   4.251   5.037   6.055
 8195SOL    HW233099   4.244   5.069   6.145
 8195SOL    HW333100   4.161   5.021   6.027
 8195SOL    MW433101   4.239   5.039   6.062
 8196SOL     OW33102   4.960   5.395   6.454
 8196SOL    HW233103   5.007   5.468   6.413
 8196SOL    HW333104   4.881   5.434   6.490
 8196SOL    MW433105   4.955   5.410   6.453
 8197SOL     OW33106   4.254   4.321   5.769
 8197SOL    HW233107   4.220   4.377   5.839
 8197SOL    HW333108   4.325   4.271   5.809
 8197SOL    MW433109   4.260   4.322   5.783
 8198SOL     OW33110   5.350   5.072   6.591
 8198SOL    HW233111   5.385   5.054   6.504
 8198SOL    HW333112   5.255   5.073   6.578
 8198SOL    MW433113   5.342   5.069   6.578
 8199SOL     OW33114   5.310   4.207   5.833
 8199SOL    HW233115   5.302   4.278   5.770
 8199SOL    HW333116   5.328   4.251   5.916
 8199SOL    MW433117   5.311   4.221   5.835
 8200SOL     OW33118   4.170   3.862   6.262
 8200SOL    HW233119   4.220   3.905   6.193
 8200SOL    HW333120   4.085   3.906   6.262
 8200SOL    MW433121   4.167   3.875   6.253
 8201SOL     OW33122   4.979   4.469   5.808
 8201SOL    HW233123   5.026   4.487   5.727
 8201SOL    HW333124   4.945   4.553   5.836
 8201SOL    MW433125   4.981   4.483   5.801
 8202SOL     OW33126   4.092   4.647   6.302
 8202SOL    HW233127   4.150   4.703   6.250
 8202SOL    HW333128   4.136   4.562   6.304
 8202SOL    MW433129   4.105   4.644   6.295
 8203SOL     OW33130   5.232   3.999   6.139
 8203SOL    HW233131   5.154   3.949   6.164
 8203SOL    HW333132   5.203   4.090   6.139
 8203SOL    MW433133   5.218   4.003   6.142
 8204SOL     OW33134   4.818   3.961   6.298
 8204SOL    HW233135   4.838   4.036   6.242
 8204SOL    HW333136   4.798   4.000   6.383
 8204SOL    MW433137   4.819   3.977   6.302
 8205SOL     OW33138   4.714   5.211   5.630
 8205SOL    HW233139   4.741   5.289   5.582
 8205SOL    HW333140   4.621   5.226   5.649
 8205SOL    MW433141   4.705   5.224   5.626
 8206SOL     OW33142   3.799   5.247   6.474
 8206SOL    HW233143   3.831   5.251   6.565
 8206SOL    HW333144   3.704   5.255   6.482
 8206SOL    MW433145   3.791   5.250   6.487
 8207SOL     OW33146   3.754   4.373   6.021
 8207SOL    HW233147   3.694   4.345   6.091
 8207SOL    HW333148   3.828   4.313   6.027
 8207SOL    MW433149   3.756   4.362   6.030
 8208SOL     OW33150   4.922   5.104   6.181
 8208SOL    HW233151   4.945   5.055   6.259
 8208SOL    HW333152   5.003   5.146   6.153
 8208SOL    MW433153   4.935   5.104   6.188
 8209SOL     OW33154   4.134   4.079   6.646
 8209SOL    HW233155   4.164   3.993   6.617
 8209SOL    HW333156   4.039   4.072   6.649
 8209SOL    MW433157   4.126   4.068   6.644
 8210SOL     OW33158   4.277   3.857   6.537
 8210SOL    HW233159   4.287   3.766   6.563
 8210SOL    HW333160   4.233   3.853   6.452
 8210SOL    MW433161   4.273   3.845   6.529
 8211SOL     OW33162   5.428   4.179   6.708
 8211SOL    HW233163   5.361   4.212   6.768
 8211SOL    HW333164   5.471   4.257   6.674
 8211SOL    MW433165   5.426   4.194   6.712
 8212SOL     OW33166   5.606   4.899   6.678
 8212SOL    HW233167   5.599   4.839   6.603
 8212SOL    HW333168   5.532   4.959   6.667
 8212SOL    MW433169   5.596   4.899   6.667
 8213SOL     OW33170   4.988   4.761   6.596
 8213SOL    HW233171   5.002   4.733   6.687
 8213SOL    HW333172   5.074   4.792   6.568
 8213SOL    MW433173   5.001   4.762   6.605
 8214SOL     OW33174   5.062   3.771   5.817
 8214SOL    HW233175   5.136   3.815   5.860
 8214SOL    HW333176   4.986   3.825   5.839
 8214SOL    MW433177   5.062   3.783   5.825
 8215SOL     OW33178   5.122   4.546   6.095
 8215SOL    HW233179   5.037   4.516   6.065
 8215SOL    HW333180   5.114   4.553   6.190
 8215SOL    MW433181   5.110   4.544   6.104
 8216SOL     OW33182   4.482   3.989   6.649
 8216SOL    HW233183   4.455   3.991   6.740
 8216SOL    HW333184   4.412   3.941   6.604
 8216SOL    MW433185   4.470   3.985   6.656
 8217SOL     OW33186   4.495   4.212   5.821
 8217SOL    HW233187   4.568   4.261   5.784
 8217SOL    HW333188   4.511   4.121   5.795
 8217SOL    MW433189   4.507   4.207   5.814
 8218SOL     OW33190   4.963   3.808   6.735
 8218SOL    HW233191   5.018   3.817   6.657
 8218SOL    HW333192   5.018   3.842   6.806
 8218SOL    MW433193   4.977   3.813   6.734
 8219SOL     OW33194   3.970   4.721   5.919
 8219SOL    HW233195   3.907   4.737   5.848
 8219SOL    HW333196   3.917   4.684   5.990
 8219SOL    MW433197   3.955   4.718   5.919
 8220SOL     OW33198   4.326   5.075   5.778
 8220SOL    HW233199   4.341   5.051   5.870
 8220SOL    HW333200   4.234   5.053   5.762
 8220SOL    MW433201   4.316   5.068   5.788
 8221SOL     OW33202   4.865   5.306   5.930
 8221SOL    HW233203   4.873   5.224   5.881
 8221SOL    HW333204   4.784   5.345   5.897
 8221SOL    MW433205   4.855   5.301   5.920
 8222SOL     OW33206   4.124   5.464   6.499
 8222SOL    HW233207   4.128   5.375   6.534
 8222SOL    HW333208   4.150   5.455   6.408
 8222SOL    MW433209   4.127   5.452   6.491
 8223SOL     OW33210   4.741   4.942   6.742
 8223SOL    HW233211   4.673   4.876   6.758
 8223SOL    HW333212   4.759   4.936   6.649
 8223SOL    MW433213   4.734   4.933   6.733
 8224SOL     OW33214   4.734   4.081   6.563
 8224SOL    HW233215   4.664   4.033   6.608
 8224SOL    HW333216   4.766   4.144   6.627
 8224SOL    MW433217   4.729   4.083   6.577
 8225SOL     OW33218   4.201   4.187   6.376
 8225SOL    HW233219   4.272   4.135   6.339
 8225SOL    HW333220   4.187   4.152   6.463
 8225SOL    MW433221   4.209   4.176   6.383
 8226SOL     OW33222   4.517   5.280   6.452
 8226SOL    HW233223   4.445   5.217   6.465
 8226SOL    HW333224   4.478   5.365   6.470
 8226SOL    MW433225   4.501   5.283   6.455
 8227SOL     OW33226   4.837   4.128   6.100
 8227SOL    HW233227   4.859   4.065   6.032
 8227SOL    HW333228   4.742   4.120   6.111
 8227SOL    MW433229   4.827   4.119   6.092
 8228SOL     OW33230   3.922   3.818   6.032
 8228SOL    HW233231   3.993   3.839   5.971
 8228SOL    HW333232   3.876   3.746   5.990
 8228SOL    MW433233   3.926   3.812   6.018
 8229SOL     OW33234   5.491   5.192   6.132
 8229SOL    HW233235   5.461   5.125   6.193
 8229SOL    HW333236   5.585   5.198   6.146
 8229SOL    MW433237   5.499   5.184   6.142
 8230SOL     OW33238   5.047   4.869   6.062
 8230SOL    HW233239   5.019   4.955   6.095
 8230SOL    HW333240   5.075   4.885   5.972
 8230SOL    MW433241   5.047   4.883   6.054
 8231SOL     OW33242   4.709   3.789   6.115
 8231SOL    HW233243   4.746   3.848   6.180
 8231SOL    HW333244   4.686   3.845   6.041
 8231SOL    MW433245   4.710   3.804   6.114
 8232SOL     OW33246   5.562   4.671   6.537
 8232SOL    HW233247   5.553   4.703   6.448
 8232SOL    HW333248   5.515   4.587   6.537
 8232SOL    MW433249   5.555   4.664   6.527
 8233SOL     OW33250   5.474   4.602   6.238
 8233SOL    HW233251   5.568   4.591   6.226
 8233SOL    HW333252   5.450   4.674   6.179
 8233SOL    MW433253   5.484   4.610   6.229
 8234SOL     OW33254   4.130   4.480   6.011
 8234SOL    HW233255   4.130   4.575   5.996
 8234SOL    HW333256   4.207   4.464   6.065
 8234SOL    MW433257   4.140   4.491   6.016
 8235SOL     OW33258   3.889   4.211   6.300
 8235SOL    HW233259   3.951   4.218   6.373
 8235SOL    HW333260   3.889   4.118   6.277
 8235SOL    MW433261   3.897   4.200   6.307
 8236SOL     OW33262   5.436   5.551   5.832
 8236SOL    HW233263   5.503   5.584   5.772
 8236SOL    HW333264   5.393   5.630   5.866
 8236SOL    MW433265   5.438   5.566   5.828
 8237SOL     OW33266   4.571   4.472   6.784
 8237SOL    HW233267   4.529   4.390   6.760
 8237SOL    HW333268   4.572   4.471   6.880
 8237SOL    MW433269   4.564   4.461   6.793
 8238SOL     OW33270   3.758   4.783   5.758
 8238SOL    HW233271   3.727   4.848   5.821
 8238SOL    HW333272   3.707   4.705   5.777
 8238SOL    MW433273   3.748   4.780   5.768
 8239SOL     OW33274   5.202   4.534   6.350
 8239SOL    HW233275   5.282   4.549   6.299
 8239SOL    HW333276   5.195   4.439   6.356
 8239SOL    MW433277   5.211   4.523   6.345
 8240SOL     OW33278   4.342   5.583   5.700
 8240SOL    HW233279   4.247   5.583   5.692
 8240SOL    HW333280   4.358   5.529   5.778
 8240SOL    MW433281   4.332   5.577   5.709
 8241SOL     OW33282   5.187   4.403   5.615
 8241SOL    HW233283   5.115   4.379   5.557
 8241SOL    HW333284   5.253   4.440   5.557
 8241SOL    MW433285   5.186   4.405   5.600
 8242SOL     OW33286   4.321   5.135   6.296
 8242SOL    HW233287   4.386   5.068   6.317
 8242SOL    HW333288   4.373   5.212   6.273
 8242SOL    MW433289   4.336   5.137   6.295
 8243SOL     OW33290   4.582   4.300   6.426
 8243SOL    HW233291   4.522   4.318   6.498
 8243SOL    HW333292   4.616   4.212   6.445
 8243SOL    MW433293   4.578   4.290   6.439
 8244SOL     OW33294   4.807   4.883   6.445
 8244SOL    HW233295   4.899   4.864   6.463
 8244SOL    HW333296   4.780   4.813   6.385
 8244SOL    MW433297   4.815   4.871   6.439
 8245SOL     OW33298   4.600   4.703   5.800
 8245SOL    HW233299   4.586   4.615   5.765
 8245SOL    HW333300   4.551   4.760   5.741
 8245SOL    MW433301   4.592   4.698   5.788
 8246SOL     OW33302   5.081   5.121   6.541
 8246SOL    HW233303   5.054   5.205   6.506
 8246SOL    HW333304   5.041   5.116   6.628
 8246SOL    MW433305   5.074   5.130   6.547
 8247SOL     OW33306   4.013   4.427   6.579
 8247SOL    HW233307   3.963   4.426   6.660
 8247SOL    HW333308   4.033   4.519   6.563
 8247SOL    MW433309   4.009   4.439   6.587
 8248SOL     OW33310   5.319   3.909   5.902
 8248SOL    HW233311   5.312   3.913   5.997
 8248SOL    HW333312   5.331   4.000   5.875
 8248SOL    MW433313   5.320   3.922   5.910
 8249SOL     OW33314   4.608   4.472   6.016
 8249SOL    HW233315   4.588   4.458   5.923
 8249SOL    HW333316   4.701   4.451   6.023
 8249SOL    MW433317   4.618   4.467   6.005
 8250SOL     OW33318   4.591   5.430   6.054
 8250SOL    HW233319   4.649   5.501   6.081
 8250SOL    HW333320   4.614   5.358   6.112
 8250SOL    MW433321   4.602   5.430   6.065
 8251SOL     OW33322   3.834   3.735   6.743
 8251SOL    HW233323   3.825   3.736   6.648
 8251SOL    HW333324   3.928   3.747   6.758
 8251SOL    MW433325   3.846   3.738   6.734
 8252SOL     OW33326   5.471   4.928   6.363
 8252SOL    HW233327   5.450   4.874   6.286
 8252SOL    HW333328   5.567   4.926   6.367
 8252SOL    MW433329   5.480   4.921   6.352
 8253SOL     OW33330   4.047   3.862   5.789
 8253SOL    HW233331   3.976   3.917   5.757
 8253SOL    HW333332   4.089   3.828   5.710
 8253SOL    MW433333   4.043   3.864   5.775
 8254SOL     OW33334   5.171   4.359   6.625
 8254SOL    HW233335   5.094   4.405   6.591
 8254SOL    HW333336   5.228   4.428   6.659
 8254SOL    MW433337   5.168   4.374   6.625
 8255SOL     OW33338   3.803   3.961   5.638
 8255SOL    HW233339   3.770   4.040   5.682
 8255SOL    HW333340   3.858   3.994   5.567
 8255SOL    MW433341   3.806   3.975   5.635
 8256SOL     OW33342   3.837   5.218   5.827
 8256SOL    HW233343   3.854   5.302   5.869
 8256SOL    HW333344   3.872   5.227   5.739
 8256SOL    MW433345   3.842   5.231   5.821
 8257SOL     OW33346   5.109   5.307   6.044
 8257SOL    HW233347   5.172   5.297   5.973
 8257SOL    HW333348   5.026   5.327   5.999
 8257SOL    MW433349   5.106   5.308   6.029
 8258SOL     OW33350   5.472   6.444   0.257
 8258SOL    HW233351   5.513   6.386   0.322
 8258SOL    HW333352   5.379   6.436   0.274
 8258SOL    MW433353   5.466   6.436   0.267
 8259SOL     OW33354   5.338   6.376   1.252
 8259SOL    HW233355   5.293   6.443   1.303
 8259SOL    HW333356   5.426   6.412   1.238
 8259SOL    MW433357   5.344   6.389   1.256
 8260SOL     OW33358   4.266   6.627   0.486
 8260SOL    HW233359   4.356   6.602   0.470
 8260SOL    HW333360   4.262   6.720   0.463
 8260SOL    MW433361   4.278   6.636   0.481
 8261SOL     OW33362   5.382   7.330   0.628
 8261SOL    HW233363   5.394   7.276   0.706
 8261SOL    HW333364   5.419   7.278   0.557
 8261SOL    MW433365   5.388   7.315   0.629
 8262SOL     OW33366   4.761   7.215   1.629
 8262SOL    HW233367   4.802   7.251   1.550
 8262SOL    HW333368   4.796   7.126   1.636
 8262SOL    MW433369   4.772   7.208   1.620
 8263SOL     OW33370   5.318   6.770   1.233
 8263SOL    HW233371   5.239   6.735   1.191
 8263SOL    HW333372   5.345   6.842   1.177
 8263SOL    MW433373   5.311   6.775   1.220
 8264SOL     OW33374   4.550   6.083   0.499
 8264SOL    HW233375   4.525   6.171   0.527
 8264SOL    HW333376   4.547   6.086   0.403
 8264SOL    MW433377   4.546   6.095   0.491
 8265SOL     OW33378   3.992   6.111   0.427
 8265SOL    HW233379   4.024   6.199   0.409
 8265SOL    HW333380   3.980   6.109   0.522
 8265SOL    MW433381   3.995   6.123   0.439
 8266SOL     OW33382   4.070   6.524   1.328
 8266SOL    HW233383   4.133   6.471   1.279
 8266SOL    HW333384   4.051   6.598   1.271
 8266SOL    MW433385   4.076   6.526   1.315
 8267SOL     OW33386   4.391   5.866   0.514
 8267SOL    HW233387   4.449   5.942   0.516
 8267SOL    HW333388   4.326   5.887   0.447
 8267SOL    MW433389   4.390   5.878   0.505
 8268SOL     OW33390   4.478   6.793   0.689
 8268SOL    HW233391   4.558   6.796   0.741
 8268SOL    HW333392   4.506   6.760   0.603
 8268SOL    MW433393   4.492   6.789   0.684
 8269SOL     OW33394   4.503   7.134   1.592
 8269SOL    HW233395   4.587   7.160   1.631
 8269SOL    HW333396   4.527   7.078   1.518
 8269SOL    MW433397   4.517   7.130   1.587
 8270SOL     OW33398   4.255   6.297   0.680
 8270SOL    HW233399   4.240   6.217   0.731
 8270SOL    HW333400   4.337   6.332   0.714
 8270SOL    MW433401   4.263   6.289   0.692
 8271SOL     OW33402   4.592   6.983   1.365
 8271SOL    HW233403   4.556   7.049   1.305
 8271SOL    HW333404   4.520   6.921   1.378
 8271SOL    MW433405   4.578   6.983   1.359
 8272SOL     OW33406   4.397   6.123   1.057
 8272SOL    HW233407   4.303   6.119   1.075
 8272SOL    HW333408   4.427   6.032   1.066
 8272SOL    MW433409   4.388   6.111   1.060
 8273SOL     OW33410   4.143   6.537   0.961
 8273SOL    HW233411   4.098   6.544   0.877
 8273SOL    HW333412   4.123   6.620   1.005
 8273SOL    MW433413   4.135   6.549   0.955
 8274SOL     OW33414   3.840   7.383   0.836
 8274SOL    HW233415   3.929   7.375   0.871
 8274SOL    HW333416   3.804   7.295   0.841
 8274SOL    MW433417   3.847   7.370   0.841
 8275SOL     OW33418   5.105   6.775   0.205
 8275SOL    HW233419   5.023   6.811   0.171
 8275SOL    HW333420   5.173   6.818   0.154
 8275SOL    MW433421   5.103   6.785   0.193
 8276SOL     OW33422   4.104   6.910   0.871
 8276SOL    HW233423   4.080   6.963   0.947
 8276SOL    HW333424   4.160   6.968   0.819
 8276SOL    MW433425   4.108   6.925   0.874
 8277SOL     OW33426   4.666   6.554   0.681
 8277SOL    HW233427   4.580   6.541   0.721
 8277SOL    HW333428   4.719   6.481   0.713
 8277SOL    MW433429   4.662   6.543   0.690
 8278SOL     OW33430   4.074   7.206   1.466
 8278SOL    HW233431   3.982   7.182   1.451
 8278SOL    HW333432   4.118   7.123   1.483
 8278SOL    MW433433   4.068   7.191   1.465
 8279SOL     OW33434   4.657   6.916   0.398
 8279SOL    HW233435   4.634   6.978   0.466
 8279SOL    HW333436   4.614   6.834   0.424
 8279SOL    MW433437   4.649   6.912   0.409
 8280SOL     OW33438   5.530   5.917   0.854
 8280SOL    HW233439   5.467   5.897   0.923
 8280SOL    HW333440   5.520   5.846   0.791
 8280SOL    MW433441   5.520   5.904   0.855
 8281SOL     OW33442   4.154   5.889   0.366
 8281SOL    HW233443   4.128   5.851   0.282
 8281SOL    HW333444   4.091   5.959   0.382
 8281SOL    MW433445   4.143   5.892   0.357
 8282SOL     OW33446   4.651   7.313   0.181
 8282SOL    HW233447   4.606   7.329   0.264
 8282SOL    HW333448   4.582   7.278   0.123
 8282SOL    MW433449   4.637   7.310   0.183
 8283SOL     OW33450   5.331   6.689   0.506
 8283SOL    HW233451   5.241   6.689   0.541
 8283SOL    HW333452   5.324   6.735   0.423
 8283SOL    MW433453   5.318   6.695   0.500
 8284SOL     OW33454   5.131   6.324   1.578
 8284SOL    HW233455   5.200   6.262   1.555
 8284SOL    HW333456   5.056   6.298   1.525
 8284SOL    MW433457   5.131   6.311   1.569
 8285SOL     OW33458   3.872   7.204   1.130
 8285SOL    HW233459   3.855   7.150   1.207
 8285SOL    HW333460   3.860   7.294   1.160
 8285SOL    MW433461   3.869   7.208   1.144
 8286SOL     OW33462   4.867   6.711   1.570
 8286SOL    HW233463   4.852   6.804   1.555
 8286SOL    HW333464   4.962   6.701   1.570
 8286SOL    MW433465   4.876   6.721   1.567
 8287SOL     OW33466   4.663   6.135   1.771
 8287SOL    HW233467   4.753   6.136   1.738
 8287SOL    HW333468   4.622   6.060   1.729
 8287SOL    MW433469   4.669   6.125   1.762
 8288SOL     OW33470   5.238   6.667   0.898
 8288SOL    HW233471   5.241   6.601   0.829
 8288SOL    HW333472   5.323   6.710   0.894
 8288SOL    MW433473   5.250   6.663   0.889
 8289SOL     OW33474   4.858   6.270   0.467
 8289SOL    HW233475   4.884   6.294   0.378
 8289SOL    HW333476   4.840   6.177   0.463
 8289SOL    MW433477   4.860   6.262   0.454
 8290SOL     OW33478   5.523   6.890   0.318
 8290SOL    HW233479   5.479   6.931   0.393
 8290SOL    HW333480   5.580   6.958   0.283
 8290SOL    MW433481   5.525   6.904   0.323
 8291SOL     OW33482   4.443   5.939   1.721
 8291SOL    HW233483   4.453   5.865   1.661
 8291SOL    HW333484   4.479   5.908   1.804
 8291SOL    MW433485   4.449   5.925   1.723
 8292SOL     OW33486   4.179   7.306   0.636
 8292SOL    HW233487   4.211   7.394   0.614
 8292SOL    HW333488   4.132   7.278   0.558
 8292SOL    MW433489   4.178   7.314   0.623
 8293SOL     OW33490   5.563   5.668   0.685
 8293SOL    HW233491   5.617   5.619   0.747
 8293SOL    HW333492   5.506   5.602   0.646
 8293SOL    MW433493   5.563   5.652   0.687
 8294SOL     OW33494   4.682   5.621   1.098
 8294SOL    HW233495   4.641   5.699   1.060
 8294SOL    HW333496   4.776   5.639   1.093
 8294SOL    MW433497   4.688   5.633   1.093
 8295SOL     OW33498   4.697   6.299   0.128
 8295SOL    HW233499   4.699   6.246   0.049
 8295SOL    HW333500   4.785   6.336   0.134
 8295SOL    MW433501   4.709   6.298   0.117
 8296SOL     OW33502   5.311   6.225   0.464
 8296SOL    HW233503   5.350   6.225   0.551
 8296SOL    HW333504   5.252   6.301   0.464
 8296SOL    MW433505   5.308   6.236   0.475
 8297SOL     OW33506   4.628   6.592   1.593
 8297SOL    HW233507   4.605   6.572   1.683
 8297SOL    HW333508   4.713   6.636   1.598
 8297SOL    MW433509   4.635   6.595   1.605
 8298SOL     OW33510   4.797   6.218   1.187
 8298SOL    HW233511   4.872   6.247   1.134
 8298SOL    HW333512   4.729   6.283   1.171
 8298SOL    MW433513   4.798   6.230   1.177
 8299SOL     OW33514   5.347   6.186   1.464
 8299SOL    HW233515   5.328   6.095   1.443
 8299SOL    HW333516   5.325   6.235   1.385
 8299SOL    MW433517   5.342   6.179   1.451
 8300SOL     OW33518   5.489   7.280   1.368
 8300SOL    HW233519   5.417   7.242   1.419
 8300SOL    HW333520   5.506   7.365   1.409
 8300SOL    MW433521   5.483   7.285   1.380
 8301SOL     OW33522   4.794   5.924   1.570
 8301SOL    HW233523   4.760   5.963   1.489
 8301SOL    HW333524   4.772   5.832   1.563
 8301SOL    MW433525   4.787   5.917   1.560
 8302SOL     OW33526   5.203   6.738   1.646
 8302SOL    HW233527   5.285   6.779   1.676
 8302SOL    HW333528   5.166   6.700   1.726
 8302SOL    MW433529   5.209   6.739   1.661
 8303SOL     OW33530   5.498   6.111   0.630
 8303SOL    HW233531   5.587   6.080   0.647
 8303SOL    HW333532   5.441   6.051   0.678
 8303SOL    MW433533   5.501   6.099   0.639
 8304SOL     OW33534   3.924   5.825   0.659
 8304SOL    HW233535   3.915   5.765   0.585
 8304SOL    HW333536   3.857   5.796   0.722
 8304SOL    MW433537   3.914   5.812   0.657
 8305SOL     OW33538   4.867   6.918   0.220
 8305SOL    HW233539   4.817   6.920   0.302
 8305SOL    HW333540   4.801   6.936   0.152
 8305SOL    MW433541   4.853   6.920   0.222
 8306SOL     OW33542   3.871   5.998   1.022
 8306SOL    HW233543   3.843   6.089   1.031
 8306SOL    HW333544   3.808   5.959   0.961
 8306SOL    MW433545   3.858   6.004   1.016
 8307SOL     OW33546   4.330   7.336   0.328
 8307SOL    HW233547   4.251   7.294   0.361
 8307SOL    HW333548   4.396   7.319   0.395
 8307SOL    MW433549   4.329   7.328   0.341
 8308SOL     OW33550   5.458   6.856   1.725
 8308SOL    HW233551   5.508   6.782   1.757
 8308SOL    HW333552   5.404   6.883   1.800
 8308SOL    MW433553   5.458   6.850   1.738
 8309SOL     OW33554   4.466   6.751   0.035
 8309SOL    HW233555   4.388   6.697   0.022
 8309SOL    HW333556   4.437   6.824   0.088
 8309SOL    MW433557   4.452   6.753   0.040
 8310SOL     OW33558   5.592   6.491   1.227
 8310SOL    HW233559   5.608   6.529   1.140
 8310SOL    HW333560   5.626   6.557   1.288
 8310SOL    MW433561   5.599   6.504   1.223
 8311SOL     OW33562   5.384   7.200   0.896
 8311SOL    HW233563   5.413   7.267   0.957
 8311SOL    HW333564   5.365   7.124   0.951
 8311SOL    MW433565   5.386   7.200   0.911
 8312SOL     OW33566   5.047   7.267   0.103
 8312SOL    HW233567   4.973   7.230   0.153
 8312SOL    HW333568   5.055   7.357   0.136
 8312SOL    MW433569   5.038   7.274   0.115
 8313SOL     OW33570   3.855   6.273   1.192
 8313SOL    HW233571   3.917   6.303   1.258
 8313SOL    HW333572   3.789   6.342   1.186
 8313SOL    MW433573   3.854   6.286   1.199
 8314SOL     OW33574   5.271   6.941   0.045
 8314SOL    HW233575   5.218   6.990  -0.019
 8314SOL    HW333576   5.302   7.007   0.106
 8314SOL    MW433577   5.269   6.955   0.043
 8315SOL     OW33578   4.496   5.830   0.100
 8315SOL    HW233579   4.444   5.750   0.088
 8315SOL    HW333580   4.583   5.807   0.068
 8315SOL    MW433581   4.499   5.816   0.094
 8316SOL     OW33582   3.950   7.382   1.644
 8316SOL    HW233583   3.924   7.450   1.582
 8316SOL    HW333584   3.998   7.319   1.592
 8316SOL    MW433585   3.952   7.382   1.630
 8317SOL     OW33586   4.002   6.701   1.151
 8317SOL    HW233587   4.055   6.776   1.176
 8317SOL    HW333588   3.921   6.739   1.117
 8317SOL    MW433589   3.998   6.716   1.151
 8318SOL     OW33590   4.542   6.605   1.139
 8318SOL    HW233591   4.570   6.514   1.151
 8318SOL    HW333592   4.471   6.599   1.075
 8318SOL    MW433593   4.535   6.593   1.134
 8319SOL     OW33594   3.857   6.470   0.557
 8319SOL    HW233595   3.948   6.485   0.584
 8319SOL    HW333596   3.860   6.391   0.503
 8319SOL    MW433597   3.869   6.462   0.555
 8320SOL     OW33598   4.093   6.178   1.811
 8320SOL    HW233599   4.040   6.258   1.818
 8320SOL    HW333600   4.163   6.190   1.876
 8320SOL    MW433601   4.095   6.191   1.819
 8321SOL     OW33602   4.163   6.252   1.557
 8321SOL    HW233603   4.243   6.302   1.543
 8321SOL    HW333604   4.154   6.246   1.652
 8321SOL    MW433605   4.172   6.258   1.567
 8322SOL     OW33606   4.484   7.402   0.931
 8322SOL    HW233607   4.573   7.417   0.961
 8322SOL    HW333608   4.479   7.449   0.847
 8322SOL    MW433609   4.494   7.410   0.924
 8323SOL     OW33610   3.865   7.082   0.596
 8323SOL    HW233611   3.837   7.121   0.678
 8323SOL    HW333612   3.885   6.991   0.618
 8323SOL    MW433613   3.863   7.074   0.609
 8324SOL     OW33614   4.698   7.125   0.631
 8324SOL    HW233615   4.781   7.079   0.615
 8324SOL    HW333616   4.688   7.124   0.727
 8324SOL    MW433617   4.708   7.118   0.641
 8325SOL     OW33618   5.530   6.270   0.945
 8325SOL    HW233619   5.619   6.300   0.927
 8325SOL    HW333620   5.510   6.210   0.874
 8325SOL    MW433621   5.539   6.267   0.934
 8326SOL     OW33622   5.381   6.449   1.825
 8326SOL    HW233623   5.436   6.373   1.806
 8326SOL    HW333624   5.383   6.457   1.920
 8326SOL    MW433625   5.389   6.440   1.833
 8327SOL     OW33626   4.431   7.182   0.036
 8327SOL    HW233627   4.371   7.251   0.006
 8327SOL    HW333628   4.376   7.124   0.089
 8327SOL    MW433629   4.415   7.184   0.038
 8328SOL     OW33630   4.869   5.827   0.259
 8328SOL    HW233631   4.802   5.803   0.196
 8328SOL    HW333632   4.934   5.876   0.208
 8328SOL    MW433633   4.869   5.829   0.244
 8329SOL     OW33634   4.676   6.011   1.344
 8329SOL    HW233635   4.595   6.052   1.372
 8329SOL    HW333636   4.723   6.079   1.296
 8329SOL    MW433637   4.671   6.026   1.342
 8330SOL     OW33638   4.936   6.349   0.967
 8330SOL    HW233639   4.949   6.443   0.977
 8330SOL    HW333640   4.897   6.339   0.881
 8330SOL    MW433641   4.932   6.360   0.957
 8331SOL     OW33642   4.388   6.544   0.771
 8331SOL    HW233643   4.299   6.535   0.804
 8331SOL    HW333644   4.392   6.634   0.739
 8331SOL    MW433645   4.377   6.555   0.771
 8332SOL     OW33646   5.187   6.127   0.766
 8332SOL    HW233647   5.132   6.048   0.765
 8332SOL    HW333648   5.169   6.168   0.850
 8332SOL    MW433649   5.177   6.122   0.775
 8333SOL     OW33650   4.158   5.814   1.583
 8333SOL    HW233651   4.079   5.832   1.635
 8333SOL    HW333652   4.153   5.876   1.510
 8333SOL    MW433653   4.148   5.824   1.580
 8334SOL     OW33654   4.806   6.331   0.723
 8334SOL    HW233655   4.743   6.263   0.747
 8334SOL    HW333656   4.826   6.312   0.631
 8334SOL    MW433657   4.800   6.318   0.715
 8335SOL     OW33658   4.062   7.226   0.425
 8335SOL    HW233659   4.023   7.273   0.351
 8335SOL    HW333660   3.996   7.161   0.450
 8335SOL    MW433661   4.049   7.224   0.419
 8336SOL     OW33662   4.554   6.635   0.449
 8336SOL    HW233663   4.556   6.609   0.356
 8336SOL    HW333664   4.612   6.572   0.492
 8336SOL    MW433665   4.562   6.624   0.443
 8337SOL     OW33666   5.107   7.195   1.221
 8337SOL    HW233667   5.032   7.241   1.259
 8337SOL    HW333668   5.089   7.102   1.238
 8337SOL    MW433669   5.096   7.189   1.229
 8338SOL     OW33670   5.111   7.403   0.651
 8338SOL    HW233671   5.054   7.356   0.590
 8338SOL    HW333672   5.197   7.364   0.638
 8338SOL    MW433673   5.114   7.394   0.641
 8339SOL     OW33674   5.064   5.879   0.782
 8339SOL    HW233675   5.092   5.811   0.843
 8339SOL    HW333676   4.978   5.850   0.752
 8339SOL    MW433677   5.057   5.866   0.786
 8340SOL     OW33678   3.869   6.813   0.716
 8340SOL    HW233679   3.933   6.845   0.779
 8340SOL    HW333680   3.918   6.749   0.664
 8340SOL    MW433681   3.884   6.809   0.717
 8341SOL     OW33682   4.369   6.889   1.698
 8341SOL    HW233683   4.417   6.972   1.685
 8341SOL    HW333684   4.426   6.837   1.754
 8341SOL    MW433685   4.383   6.893   1.704
 8342SOL     OW33686   3.945   7.131   1.838
 8342SOL    HW233687   4.001   7.055   1.853
 8342SOL    HW333688   3.894   7.109   1.760
 8342SOL    MW433689   3.945   7.118   1.829
 8343SOL     OW33690   5.044   5.983   0.117
 8343SOL    HW233691   5.017   6.049   0.053
 8343SOL    HW333692   5.114   6.026   0.167
 8343SOL    MW433693   5.049   5.996   0.114
 8344SOL     OW33694   4.712   5.688   0.054
 8344SOL    HW233695   4.768   5.680  -0.024
 8344SOL    HW333696   4.689   5.598   0.076
 8344SOL    MW433697   4.717   5.675   0.047
 8345SOL     OW33698   5.217   6.539   0.259
 8345SOL    HW233699   5.184   6.628   0.249
 8345SOL    HW333700   5.182   6.510   0.344
 8345SOL    MW433701   5.207   6.548   0.270
 8346SOL     OW33702   4.830   6.968   1.447
 8346SOL    HW233703   4.741   6.974   1.415
 8346SOL    HW333704   4.874   7.047   1.415
 8346SOL    MW433705   4.825   6.978   1.439
 8347SOL     OW33706   4.123   5.636   1.789
 8347SOL    HW233707   4.051   5.601   1.737
 8347SOL    HW333708   4.181   5.677   1.724
 8347SOL    MW433709   4.121   5.637   1.774
 8348SOL     OW33710   4.147   7.126   1.088
 8348SOL    HW233711   4.192   7.188   1.145
 8348SOL    HW333712   4.054   7.145   1.101
 8348SOL    MW433713   4.140   7.136   1.095
 8349SOL     OW33714   5.587   6.655   1.442
 8349SOL    HW233715   5.502   6.668   1.401
 8349SOL    HW333716   5.567   6.619   1.529
 8349SOL    MW433717   5.574   6.651   1.447
 8350SOL     OW33718   4.569   7.194   1.196
 8350SOL    HW233719   4.593   7.183   1.105
 8350SOL    HW333720   4.492   7.251   1.194
 8350SOL    MW433721   4.561   7.199   1.185
 8351SOL     OW33722   4.211   6.577   0.051
 8351SOL    HW233723   4.134   6.590   0.107
 8351SOL    HW333724   4.175   6.541  -0.030
 8351SOL    MW433725   4.197   6.573   0.048
 8352SOL     OW33726   4.864   6.550   0.294
 8352SOL    HW233727   4.774   6.571   0.269
 8352SOL    HW333728   4.891   6.623   0.350
 8352SOL    MW433729   4.856   6.562   0.297
 8353SOL     OW33730   4.364   6.899   0.986
 8353SOL    HW233731   4.357   6.878   1.080
 8353SOL    HW333732   4.282   6.867   0.949
 8353SOL    MW433733   4.352   6.893   0.993
 8354SOL     OW33734   5.564   5.833   1.261
 8354SOL    HW233735   5.545   5.900   1.196
 8354SOL    HW333736   5.621   5.771   1.216
 8354SOL    MW433737   5.568   5.834   1.247
 8355SOL     OW33738   3.810   6.991   1.649
 8355SOL    HW233739   3.854   6.924   1.595
 8355SOL    HW333740   3.725   6.953   1.669
 8355SOL    MW433741   3.805   6.977   1.645
 8356SOL     OW33742   4.493   5.666   0.701
 8356SOL    HW233743   4.422   5.727   0.683
 8356SOL    HW333744   4.544   5.663   0.620
 8356SOL    MW433745   4.489   5.672   0.688
 8357SOL     OW33746   4.251   6.906   0.450
 8357SOL    HW233747   4.244   6.938   0.540
 8357SOL    HW333748   4.161   6.890   0.422
 8357SOL    MW433749   4.239   6.908   0.457
 8358SOL     OW33750   4.846   7.299   1.359
 8358SOL    HW233751   4.766   7.284   1.309
 8358SOL    HW333752   4.853   7.394   1.366
 8358SOL    MW433753   4.837   7.310   1.353
 8359SOL     OW33754   4.960   7.264   0.849
 8359SOL    HW233755   5.007   7.337   0.808
 8359SOL    HW333756   4.881   7.303   0.885
 8359SOL    MW433757   4.955   7.279   0.848
 8360SOL     OW33758   5.368   7.359   1.124
 8360SOL    HW233759   5.411   7.329   1.204
 8360SOL    HW333760   5.287   7.307   1.121
 8360SOL    MW433761   5.363   7.348   1.134
 8361SOL     OW33762   4.453   6.323   1.831
 8361SOL    HW233763   4.523   6.265   1.803
 8361SOL    HW333764   4.396   6.268   1.886
 8361SOL    MW433765   4.455   6.310   1.835
 8362SOL     OW33766   5.240   6.535   1.464
 8362SOL    HW233767   5.245   6.588   1.544
 8362SOL    HW333768   5.202   6.452   1.492
 8362SOL    MW433769   5.236   6.530   1.479
 8363SOL     OW33770   4.254   6.190   0.164
 8363SOL    HW233771   4.220   6.246   0.234
 8363SOL    HW333772   4.325   6.140   0.204
 8363SOL    MW433773   4.260   6.191   0.178
 8364SOL     OW33774   5.350   6.941   0.986
 8364SOL    HW233775   5.385   6.923   0.899
 8364SOL    HW333776   5.255   6.942   0.973
 8364SOL    MW433777   5.342   6.938   0.973
 8365SOL     OW33778   4.779   6.589   1.355
 8365SOL    HW233779   4.822   6.624   1.433
 8365SOL    HW333780   4.762   6.666   1.301
 8365SOL    MW433781   4.782   6.604   1.358
 8366SOL     OW33782   5.310   6.076   0.228
 8366SOL    HW233783   5.302   6.147   0.165
 8366SOL    HW333784   5.328   6.120   0.311
 8366SOL    MW433785   5.311   6.090   0.230
 8367SOL     OW33786   4.170   5.731   0.657
 8367SOL    HW233787   4.220   5.774   0.588
 8367SOL    HW333788   4.085   5.775   0.657
 8367SOL    MW433789   4.167   5.744   0.648
 8368SOL     OW33790   3.929   6.793   1.517
 8368SOL    HW233791   3.957   6.746   1.595
 8368SOL    HW333792   3.850   6.748   1.488
 8368SOL    MW433793   3.922   6.782   1.523
 8369SOL     OW33794   4.437   6.120   1.484
 8369SOL    HW233795   4.409   6.208   1.508
 8369SOL    HW333796   4.406   6.064   1.555
 8369SOL    MW433797   4.429   6.123   1.496
 8370SOL     OW33798   4.979   6.338   0.203
 8370SOL    HW233799   5.026   6.356   0.122
 8370SOL    HW333800   4.945   6.422   0.231
 8370SOL    MW433801   4.981   6.352   0.196
 8371SOL     OW33802   4.092   6.516   0.697
 8371SOL    HW233803   4.150   6.572   0.645
 8371SOL    HW333804   4.136   6.431   0.699
 8371SOL    MW433805   4.105   6.513   0.690
 8372SOL     OW33806   5.232   5.868   0.534
 8372SOL    HW233807   5.154   5.818   0.559
 8372SOL    HW333808   5.203   5.959   0.534
 8372SOL    MW433809   5.218   5.872   0.537
 8373SOL     OW33810   4.818   5.830   0.693
 8373SOL    HW233811   4.838   5.905   0.637
 8373SOL    HW333812   4.798   5.869   0.778
 8373SOL    MW433813   4.819   5.846   0.697
 8374SOL     OW33814   4.714   7.080   0.025
 8374SOL    HW233815   4.741   7.158  -0.023
 8374SOL    HW333816   4.621   7.095   0.044
 8374SOL    MW433817   4.705   7.093   0.021
 8375SOL     OW33818   5.578   6.603   1.712
 8375SOL    HW233819   5.491   6.583   1.748
 8375SOL    HW333820   5.632   6.529   1.737
 8375SOL    MW433821   5.573   6.592   1.720
 8376SOL     OW33822   3.799   7.116   0.869
 8376SOL    HW233823   3.831   7.120   0.960
 8376SOL    HW333824   3.704   7.124   0.877
 8376SOL    MW433825   3.791   7.119   0.882
 8377SOL     OW33826   3.754   6.242   0.416
 8377SOL    HW233827   3.694   6.214   0.486
 8377SOL    HW333828   3.828   6.182   0.422
 8377SOL    MW433829   3.756   6.231   0.425
 8378SOL     OW33830   4.922   6.973   0.576
 8378SOL    HW233831   4.945   6.924   0.654
 8378SOL    HW333832   5.003   7.015   0.548
 8378SOL    MW433833   4.935   6.973   0.583
 8379SOL     OW33834   4.180   5.981   1.305
 8379SOL    HW233835   4.213   6.062   1.345
 8379SOL    HW333836   4.153   6.007   1.217
 8379SOL    MW433837   4.179   5.995   1.299
 8380SOL     OW33838   4.134   5.948   1.041
 8380SOL    HW233839   4.164   5.862   1.012
 8380SOL    HW333840   4.039   5.941   1.044
 8380SOL    MW433841   4.126   5.937   1.039
 8381SOL     OW33842   4.963   6.157   1.732
 8381SOL    HW233843   5.015   6.092   1.685
 8381SOL    HW333844   4.921   6.208   1.662
 8381SOL    MW433845   4.964   6.154   1.715
 8382SOL     OW33846   5.062   5.952   1.593
 8382SOL    HW233847   4.969   5.936   1.580
 8382SOL    HW333848   5.088   5.890   1.661
 8382SOL    MW433849   5.052   5.942   1.600
 8383SOL     OW33850   4.277   5.726   0.932
 8383SOL    HW233851   4.287   5.635   0.958
 8383SOL    HW333852   4.233   5.722   0.847
 8383SOL    MW433853   4.273   5.714   0.924
 8384SOL     OW33854   4.371   7.341   1.478
 8384SOL    HW233855   4.288   7.326   1.523
 8384SOL    HW333856   4.430   7.274   1.513
 8384SOL    MW433857   4.369   7.331   1.488
 8385SOL     OW33858   5.428   6.048   1.103
 8385SOL    HW233859   5.361   6.081   1.163
 8385SOL    HW333860   5.471   6.126   1.069
 8385SOL    MW433861   5.426   6.063   1.107
 8386SOL     OW33862   5.606   6.768   1.073
 8386SOL    HW233863   5.599   6.708   0.998
 8386SOL    HW333864   5.532   6.828   1.062
 8386SOL    MW433865   5.596   6.768   1.062
 8387SOL     OW33866   4.988   6.630   0.991
 8387SOL    HW233867   5.002   6.602   1.082
 8387SOL    HW333868   5.074   6.661   0.963
 8387SOL    MW433869   5.001   6.631   1.000
 8388SOL     OW33870   5.564   6.256   1.812
 8388SOL    HW233871   5.601   6.201   1.881
 8388SOL    HW333872   5.589   6.213   1.730
 8388SOL    MW433873   5.571   6.244   1.811
 8389SOL     OW33874   5.111   6.554   1.863
 8389SOL    HW233875   5.177   6.502   1.817
 8389SOL    HW333876   5.131   6.541   1.956
 8389SOL    MW433877   5.122   6.545   1.870
 8390SOL     OW33878   5.062   5.640   0.212
 8390SOL    HW233879   5.136   5.684   0.255
 8390SOL    HW333880   4.986   5.694   0.234
 8390SOL    MW433881   5.062   5.652   0.220
 8391SOL     OW33882   5.122   6.415   0.490
 8391SOL    HW233883   5.037   6.385   0.460
 8391SOL    HW333884   5.114   6.422   0.585
 8391SOL    MW433885   5.110   6.413   0.499
 8392SOL     OW33886   4.198   6.878   1.221
 8392SOL    HW233887   4.210   6.905   1.312
 8392SOL    HW333888   4.179   6.959   1.174
 8392SOL    MW433889   4.197   6.893   1.226
 8393SOL     OW33890   4.482   5.858   1.044
 8393SOL    HW233891   4.455   5.860   1.135
 8393SOL    HW333892   4.412   5.810   0.999
 8393SOL    MW433893   4.470   5.854   1.051
 8394SOL     OW33894   4.336   7.350   1.206
 8394SOL    HW233895   4.388   7.427   1.183
 8394SOL    HW333896   4.345   7.342   1.301
 8394SOL    MW433897   4.345   7.357   1.217
 8395SOL     OW33898   5.238   6.935   1.438
 8395SOL    HW233899   5.223   6.864   1.501
 8395SOL    HW333900   5.284   6.893   1.366
 8395SOL    MW433901   5.244   6.919   1.438
 8396SOL     OW33902   4.312   6.666   1.555
 8396SOL    HW233903   4.349   6.671   1.467
 8396SOL    HW333904   4.351   6.739   1.602
 8396SOL    MW433905   4.322   6.676   1.550
 8397SOL     OW33906   4.492   6.709   1.367
 8397SOL    HW233907   4.551   6.655   1.420
 8397SOL    HW333908   4.507   6.681   1.277
 8397SOL    MW433909   4.502   6.698   1.363
 8398SOL     OW33910   4.495   6.081   0.216
 8398SOL    HW233911   4.568   6.130   0.179
 8398SOL    HW333912   4.511   5.990   0.190
 8398SOL    MW433913   4.507   6.076   0.209
 8399SOL     OW33914   5.303   7.198   1.539
 8399SOL    HW233915   5.345   7.183   1.624
 8399SOL    HW333916   5.294   7.111   1.501
 8399SOL    MW433917   5.307   7.186   1.546
 8400SOL     OW33918   3.970   6.590   0.314
 8400SOL    HW233919   3.907   6.606   0.243
 8400SOL    HW333920   3.917   6.553   0.385
 8400SOL    MW433921   3.955   6.587   0.314
 8401SOL     OW33922   4.326   6.944   0.173
 8401SOL    HW233923   4.341   6.920   0.265
 8401SOL    HW333924   4.234   6.922   0.157
 8401SOL    MW433925   4.316   6.937   0.183
 8402SOL     OW33926   4.865   7.175   0.325
 8402SOL    HW233927   4.873   7.093   0.276
 8402SOL    HW333928   4.784   7.214   0.292
 8402SOL    MW433929   4.855   7.170   0.315
 8403SOL     OW33930   4.124   7.333   0.894
 8403SOL    HW233931   4.128   7.244   0.929
 8403SOL    HW333932   4.150   7.324   0.803
 8403SOL    MW433933   4.127   7.321   0.886
 8404SOL     OW33934   4.741   6.811   1.137
 8404SOL    HW233935   4.673   6.745   1.153
 8404SOL    HW333936   4.759   6.805   1.044
 8404SOL    MW433937   4.734   6.802   1.128
 8405SOL     OW33938   3.830   7.086   1.388
 8405SOL    HW233939   3.820   7.044   1.474
 8405SOL    HW333940   3.751   7.139   1.378
 8405SOL    MW433941   3.819   7.087   1.399
 8406SOL     OW33942   4.734   5.950   0.958
 8406SOL    HW233943   4.664   5.902   1.003
 8406SOL    HW333944   4.766   6.013   1.022
 8406SOL    MW433945   4.729   5.952   0.972
 8407SOL     OW33946   4.385   6.386   1.578
 8407SOL    HW233947   4.378   6.481   1.566
 8407SOL    HW333948   4.394   6.375   1.673
 8407SOL    MW433949   4.386   6.398   1.588
 8408SOL     OW33950   4.106   6.901   1.836
 8408SOL    HW233951   4.178   6.903   1.773
 8408SOL    HW333952   4.076   6.810   1.835
 8408SOL    MW433953   4.111   6.890   1.828
 8409SOL     OW33954   5.390   7.194   1.787
 8409SOL    HW233955   5.363   7.191   1.878
 8409SOL    HW333956   5.486   7.198   1.790
 8409SOL    MW433957   5.400   7.194   1.799
 8410SOL     OW33958   4.201   6.056   0.771
 8410SOL    HW233959   4.272   6.004   0.734
 8410SOL    HW333960   4.187   6.021   0.858
 8410SOL    MW433961   4.209   6.045   0.778
 8411SOL     OW33962   4.517   7.149   0.847
 8411SOL    HW233963   4.445   7.086   0.860
 8411SOL    HW333964   4.478   7.234   0.865
 8411SOL    MW433965   4.501   7.152   0.850
 8412SOL     OW33966   4.837   5.997   0.495
 8412SOL    HW233967   4.859   5.934   0.427
 8412SOL    HW333968   4.742   5.989   0.506
 8412SOL    MW433969   4.827   5.988   0.487
 8413SOL     OW33970   3.922   5.687   0.427
 8413SOL    HW233971   3.993   5.708   0.366
 8413SOL    HW333972   3.876   5.615   0.385
 8413SOL    MW433973   3.926   5.681   0.413
 8414SOL     OW33974   3.753   6.154   1.570
 8414SOL    HW233975   3.817   6.220   1.545
 8414SOL    HW333976   3.672   6.181   1.527
 8414SOL    MW433977   3.751   6.166   1.562
 8415SOL     OW33978   5.491   7.061   0.527
 8415SOL    HW233979   5.461   6.994   0.588
 8415SOL    HW333980   5.585   7.067   0.541
 8415SOL    MW433981   5.499   7.053   0.537
 8416SOL     OW33982   5.047   6.738   0.457
 8416SOL    HW233983   5.019   6.824   0.490
 8416SOL    HW333984   5.075   6.754   0.367
 8416SOL    MW433985   5.047   6.752   0.449
 8417SOL     OW33986   4.709   5.658   0.510
 8417SOL    HW233987   4.746   5.717   0.575
 8417SOL    HW333988   4.686   5.714   0.436
 8417SOL    MW433989   4.710   5.673   0.509
 8418SOL     OW33990   5.562   6.540   0.932
 8418SOL    HW233991   5.553   6.572   0.843
 8418SOL    HW333992   5.515   6.456   0.932
 8418SOL    MW433993   5.555   6.533   0.922
 8419SOL     OW33994   3.938   6.380   1.511
 8419SOL    HW233995   3.959   6.449   1.449
 8419SOL    HW333996   4.018   6.327   1.516
 8419SOL    MW433997   3.951   6.381   1.505
 8420SOL     OW33998   5.474   6.471   0.633
 8420SOL    HW233999   5.568   6.460   0.621
 8420SOL    HW334000   5.450   6.543   0.574
 8420SOL    MW434001   5.484   6.479   0.624
 8421SOL     OW34002   3.923   6.395   1.778
 8421SOL    HW234003   3.849   6.339   1.804
 8421SOL    HW334004   3.918   6.398   1.683
 8421SOL    MW434005   3.912   6.388   1.768
 8422SOL     OW34006   4.089   5.682   1.228
 8422SOL    HW234007   4.132   5.766   1.248
 8422SOL    HW334008   4.162   5.620   1.221
 8422SOL    MW434009   4.104   5.685   1.229
 8423SOL     OW34010   4.130   6.349   0.406
 8423SOL    HW234011   4.130   6.444   0.391
 8423SOL    HW334012   4.207   6.333   0.460
 8423SOL    MW434013   4.140   6.360   0.411
 8424SOL     OW34014   4.906   6.208   1.470
 8424SOL    HW234015   4.942   6.181   1.386
 8424SOL    HW334016   4.819   6.242   1.449
 8424SOL    MW434017   4.900   6.209   1.457
 8425SOL     OW34018   3.889   6.080   0.695
 8425SOL    HW234019   3.951   6.087   0.768
 8425SOL    HW334020   3.889   5.987   0.672
 8425SOL    MW434021   3.897   6.069   0.702
 8426SOL     OW34022   4.571   6.341   1.179
 8426SOL    HW234023   4.529   6.259   1.155
 8426SOL    HW334024   4.572   6.340   1.275
 8426SOL    MW434025   4.564   6.330   1.188
 8427SOL     OW34026   3.758   6.652   0.153
 8427SOL    HW234027   3.727   6.717   0.216
 8427SOL    HW334028   3.707   6.574   0.172
 8427SOL    MW434029   3.748   6.649   0.163
 8428SOL     OW34030   5.170   5.664   0.901
 8428SOL    HW234031   5.258   5.673   0.938
 8428SOL    HW334032   5.180   5.605   0.827
 8428SOL    MW434033   5.184   5.658   0.895
 8429SOL     OW34034   5.202   6.403   0.745
 8429SOL    HW234035   5.282   6.418   0.694
 8429SOL    HW334036   5.195   6.308   0.751
 8429SOL    MW434037   5.211   6.392   0.740
 8430SOL     OW34038   4.342   7.452   0.095
 8430SOL    HW234039   4.247   7.452   0.087
 8430SOL    HW334040   4.358   7.398   0.173
 8430SOL    MW434041   4.332   7.446   0.104
 8431SOL     OW34042   4.652   6.329   1.442
 8431SOL    HW234043   4.721   6.396   1.439
 8431SOL    HW334044   4.585   6.367   1.498
 8431SOL    MW434045   4.653   6.342   1.449
 8432SOL     OW34046   4.070   6.629   1.690
 8432SOL    HW234047   4.024   6.545   1.692
 8432SOL    HW334048   4.127   6.623   1.614
 8432SOL    MW434049   4.072   6.617   1.682
 8433SOL     OW34050   5.187   6.272   0.011
 8433SOL    HW234051   5.115   6.248  -0.047
 8433SOL    HW334052   5.253   6.309  -0.047
 8433SOL    MW434053   5.186   6.274  -0.004
 8434SOL     OW34054   4.321   7.004   0.691
 8434SOL    HW234055   4.386   6.937   0.712
 8434SOL    HW334056   4.373   7.081   0.668
 8434SOL    MW434057   4.336   7.006   0.690
 8435SOL     OW34058   4.582   6.169   0.821
 8435SOL    HW234059   4.522   6.187   0.893
 8435SOL    HW334060   4.616   6.081   0.840
 8435SOL    MW434061   4.578   6.159   0.834
 8436SOL     OW34062   5.523   5.668   1.490
 8436SOL    HW234063   5.444   5.714   1.518
 8436SOL    HW334064   5.558   5.722   1.419
 8436SOL    MW434065   5.517   5.681   1.484
 8437SOL     OW34066   4.807   6.752   0.840
 8437SOL    HW234067   4.899   6.733   0.858
 8437SOL    HW334068   4.780   6.682   0.780
 8437SOL    MW434069   4.815   6.740   0.834
 8438SOL     OW34070   4.600   6.572   0.195
 8438SOL    HW234071   4.586   6.484   0.160
 8438SOL    HW334072   4.551   6.629   0.136
 8438SOL    MW434073   4.592   6.567   0.183
 8439SOL     OW34074   5.081   6.990   0.936
 8439SOL    HW234075   5.054   7.074   0.901
 8439SOL    HW334076   5.041   6.985   1.023
 8439SOL    MW434077   5.074   6.999   0.942
 8440SOL     OW34078   5.000   6.938   1.204
 8440SOL    HW234079   5.011   6.905   1.293
 8440SOL    HW334080   4.919   6.897   1.173
 8440SOL    MW434081   4.990   6.930   1.210
 8441SOL     OW34082   4.013   6.296   0.974
 8441SOL    HW234083   3.963   6.295   1.055
 8441SOL    HW334084   4.033   6.388   0.958
 8441SOL    MW434085   4.009   6.308   0.982
 8442SOL     OW34086   5.080   7.060   1.736
 8442SOL    HW234087   5.080   7.154   1.752
 8442SOL    HW334088   5.125   7.050   1.652
 8442SOL    MW434089   5.086   7.070   1.727
 8443SOL     OW34090   5.319   5.778   0.297
 8443SOL    HW234091   5.312   5.782   0.392
 8443SOL    HW334092   5.331   5.869   0.270
 8443SOL    MW434093   5.320   5.791   0.305
 8444SOL     OW34094   4.608   6.341   0.411
 8444SOL    HW234095   4.588   6.327   0.318
 8444SOL    HW334096   4.701   6.320   0.418
 8444SOL    MW434097   4.618   6.336   0.400
 8445SOL     OW34098   3.935   5.964   1.715
 8445SOL    HW234099   3.892   6.023   1.652
 8445SOL    HW334100   4.003   6.019   1.755
 8445SOL    MW434101   3.939   5.979   1.712
 8446SOL     OW34102   5.047   6.584   1.260
 8446SOL    HW234103   5.110   6.581   1.333
 8446SOL    HW334104   4.963   6.602   1.302
 8446SOL    MW434105   5.043   6.586   1.275
 8447SOL     OW34106   4.591   7.299   0.449
 8447SOL    HW234107   4.649   7.370   0.476
 8447SOL    HW334108   4.614   7.227   0.507
 8447SOL    MW434109   4.602   7.299   0.460
 8448SOL     OW34110   5.386   5.761   1.039
 8448SOL    HW234111   5.431   5.679   1.058
 8448SOL    HW334112   5.406   5.817   1.115
 8448SOL    MW434113   5.396   5.757   1.051
 8449SOL     OW34114   3.834   5.604   1.138
 8449SOL    HW234115   3.825   5.605   1.043
 8449SOL    HW334116   3.928   5.616   1.153
 8449SOL    MW434117   3.846   5.607   1.129
 8450SOL     OW34118   5.471   6.797   0.758
 8450SOL    HW234119   5.450   6.743   0.681
 8450SOL    HW334120   5.567   6.795   0.762
 8450SOL    MW434121   5.480   6.790   0.747
 8451SOL     OW34122   4.163   6.942   1.501
 8451SOL    HW234123   4.084   6.892   1.524
 8451SOL    HW334124   4.233   6.901   1.551
 8451SOL    MW434125   4.161   6.930   1.511
 8452SOL     OW34126   4.047   5.731   0.184
 8452SOL    HW234127   3.976   5.786   0.152
 8452SOL    HW334128   4.089   5.697   0.105
 8452SOL    MW434129   4.043   5.733   0.170
 8453SOL     OW34130   5.171   6.228   1.020
 8453SOL    HW234131   5.094   6.274   0.986
 8453SOL    HW334132   5.228   6.297   1.054
 8453SOL    MW434133   5.168   6.243   1.020
 8454SOL     OW34134   3.803   5.830   0.033
 8454SOL    HW234135   3.770   5.909   0.077
 8454SOL    HW334136   3.858   5.863  -0.038
 8454SOL    MW434137   3.806   5.844   0.030
 8455SOL     OW34138   3.837   7.087   0.222
 8455SOL    HW234139   3.854   7.171   0.264
 8455SOL    HW334140   3.872   7.096   0.134
 8455SOL    MW434141   3.842   7.100   0.216
 8456SOL     OW34142   5.109   7.176   0.439
 8456SOL    HW234143   5.172   7.166   0.368
 8456SOL    HW334144   5.026   7.196   0.394
 8456SOL    MW434145   5.106   7.177   0.424
 8457SOL     OW34146   5.472   6.444   2.125
 8457SOL    HW234147   5.513   6.386   2.190
 8457SOL    HW334148   5.379   6.436   2.142
 8457SOL    MW434149   5.466   6.436   2.135
 8458SOL     OW34150   5.338   6.376   3.120
 8458SOL    HW234151   5.293   6.443   3.171
 8458SOL    HW334152   5.426   6.412   3.106
 8458SOL    MW434153   5.344   6.389   3.124
 8459SOL     OW34154   4.266   6.627   2.354
 8459SOL    HW234155   4.356   6.602   2.338
 8459SOL    HW334156   4.262   6.720   2.331
 8459SOL    MW434157   4.278   6.636   2.349
 8460SOL     OW34158   5.382   7.330   2.496
 8460SOL    HW234159   5.394   7.276   2.574
 8460SOL    HW334160   5.419   7.278   2.425
 8460SOL    MW434161   5.388   7.315   2.497
 8461SOL     OW34162   4.761   7.215   3.497
 8461SOL    HW234163   4.802   7.251   3.418
 8461SOL    HW334164   4.796   7.126   3.504
 8461SOL    MW434165   4.772   7.208   3.488
 8462SOL     OW34166   5.318   6.770   3.101
 8462SOL    HW234167   5.239   6.735   3.059
 8462SOL    HW334168   5.345   6.842   3.045
 8462SOL    MW434169   5.311   6.775   3.088
 8463SOL     OW34170   3.992   6.111   2.295
 8463SOL    HW234171   4.024   6.199   2.277
 8463SOL    HW334172   3.980   6.109   2.390
 8463SOL    MW434173   3.995   6.123   2.307
 8464SOL     OW34174   4.070   6.524   3.196
 8464SOL    HW234175   4.133   6.471   3.147
 8464SOL    HW334176   4.051   6.598   3.139
 8464SOL    MW434177   4.076   6.526   3.183
 8465SOL     OW34178   4.478   6.793   2.557
 8465SOL    HW234179   4.558   6.796   2.609
 8465SOL    HW334180   4.506   6.760   2.471
 8465SOL    MW434181   4.492   6.789   2.552
 8466SOL     OW34182   4.503   7.134   3.460
 8466SOL    HW234183   4.587   7.160   3.499
 8466SOL    HW334184   4.527   7.078   3.386
 8466SOL    MW434185   4.517   7.130   3.455
 8467SOL     OW34186   4.592   6.983   3.233
 8467SOL    HW234187   4.556   7.049   3.173
 8467SOL    HW334188   4.520   6.921   3.246
 8467SOL    MW434189   4.578   6.983   3.227
 8468SOL     OW34190   4.143   6.537   2.829
 8468SOL    HW234191   4.098   6.544   2.745
 8468SOL    HW334192   4.123   6.620   2.873
 8468SOL    MW434193   4.135   6.549   2.823
 8469SOL     OW34194   3.840   7.383   2.704
 8469SOL    HW234195   3.929   7.375   2.739
 8469SOL    HW334196   3.804   7.295   2.709
 8469SOL    MW434197   3.847   7.370   2.709
 8470SOL     OW34198   5.105   6.775   2.073
 8470SOL    HW234199   5.023   6.811   2.039
 8470SOL    HW334200   5.173   6.818   2.022
 8470SOL    MW434201   5.103   6.785   2.061
 8471SOL     OW34202   4.104   6.910   2.739
 8471SOL    HW234203   4.080   6.963   2.815
 8471SOL    HW334204   4.160   6.968   2.687
 8471SOL    MW434205   4.108   6.925   2.742
 8472SOL     OW34206   4.666   6.554   2.549
 8472SOL    HW234207   4.580   6.541   2.589
 8472SOL    HW334208   4.719   6.481   2.581
 8472SOL    MW434209   4.662   6.543   2.558
 8473SOL     OW34210   4.074   7.206   3.334
 8473SOL    HW234211   3.982   7.182   3.319
 8473SOL    HW334212   4.118   7.123   3.351
 8473SOL    MW434213   4.068   7.191   3.333
 8474SOL     OW34214   4.657   6.916   2.266
 8474SOL    HW234215   4.634   6.978   2.334
 8474SOL    HW334216   4.614   6.834   2.292
 8474SOL    MW434217   4.649   6.912   2.277
 8475SOL     OW34218   5.530   5.917   2.722
 8475SOL    HW234219   5.467   5.897   2.791
 8475SOL    HW334220   5.520   5.846   2.659
 8475SOL    MW434221   5.520   5.904   2.723
 8476SOL     OW34222   4.154   5.889   2.234
 8476SOL    HW234223   4.128   5.851   2.150
 8476SOL    HW334224   4.091   5.959   2.250
 8476SOL    MW434225   4.143   5.892   2.225
 8477SOL     OW34226   3.989   6.850   2.271
 8477SOL    HW234227   3.937   6.918   2.227
 8477SOL    HW334228   3.986   6.776   2.211
 8477SOL    MW434229   3.981   6.849   2.258
 8478SOL     OW34230   4.651   7.313   2.049
 8478SOL    HW234231   4.606   7.329   2.132
 8478SOL    HW334232   4.582   7.278   1.991
 8478SOL    MW434233   4.637   7.310   2.051
 8479SOL     OW34234   5.586   6.086   2.024
 8479SOL    HW234235   5.495   6.088   2.052
 8479SOL    HW334236   5.631   6.148   2.082
 8479SOL    MW434237   5.579   6.094   2.034
 8480SOL     OW34238   5.331   6.689   2.374
 8480SOL    HW234239   5.241   6.689   2.409
 8480SOL    HW334240   5.324   6.735   2.291
 8480SOL    MW434241   5.318   6.695   2.368
 8481SOL     OW34242   5.131   6.324   3.446
 8481SOL    HW234243   5.200   6.262   3.423
 8481SOL    HW334244   5.056   6.298   3.393
 8481SOL    MW434245   5.131   6.311   3.437
 8482SOL     OW34246   3.872   7.204   2.998
 8482SOL    HW234247   3.855   7.150   3.075
 8482SOL    HW334248   3.860   7.294   3.028
 8482SOL    MW434249   3.869   7.208   3.012
 8483SOL     OW34250   4.867   6.711   3.438
 8483SOL    HW234251   4.852   6.804   3.423
 8483SOL    HW334252   4.962   6.701   3.438
 8483SOL    MW434253   4.876   6.721   3.435
 8484SOL     OW34254   4.663   6.135   3.639
 8484SOL    HW234255   4.753   6.136   3.606
 8484SOL    HW334256   4.622   6.060   3.597
 8484SOL    MW434257   4.669   6.125   3.630
 8485SOL     OW34258   5.238   6.667   2.766
 8485SOL    HW234259   5.241   6.601   2.697
 8485SOL    HW334260   5.323   6.710   2.762
 8485SOL    MW434261   5.250   6.663   2.757
 8486SOL     OW34262   4.858   6.270   2.335
 8486SOL    HW234263   4.884   6.294   2.246
 8486SOL    HW334264   4.840   6.177   2.331
 8486SOL    MW434265   4.860   6.262   2.322
 8487SOL     OW34266   5.523   6.890   2.186
 8487SOL    HW234267   5.479   6.931   2.261
 8487SOL    HW334268   5.580   6.958   2.151
 8487SOL    MW434269   5.525   6.904   2.191
 8488SOL     OW34270   4.443   5.939   3.589
 8488SOL    HW234271   4.453   5.865   3.529
 8488SOL    HW334272   4.479   5.908   3.672
 8488SOL    MW434273   4.449   5.925   3.591
 8489SOL     OW34274   4.179   7.306   2.504
 8489SOL    HW234275   4.211   7.394   2.482
 8489SOL    HW334276   4.132   7.278   2.426
 8489SOL    MW434277   4.178   7.314   2.491
 8490SOL     OW34278   5.299   7.174   2.052
 8490SOL    HW234279   5.347   7.243   2.098
 8490SOL    HW334280   5.220   7.218   2.021
 8490SOL    MW434281   5.294   7.188   2.055
 8491SOL     OW34282   4.697   6.299   1.996
 8491SOL    HW234283   4.699   6.246   1.917
 8491SOL    HW334284   4.785   6.336   2.002
 8491SOL    MW434285   4.709   6.298   1.985
 8492SOL     OW34286   5.311   6.225   2.332
 8492SOL    HW234287   5.350   6.225   2.419
 8492SOL    HW334288   5.252   6.301   2.332
 8492SOL    MW434289   5.308   6.236   2.343
 8493SOL     OW34290   4.628   6.592   3.461
 8493SOL    HW234291   4.605   6.572   3.551
 8493SOL    HW334292   4.713   6.636   3.466
 8493SOL    MW434293   4.635   6.595   3.473
 8494SOL     OW34294   5.347   6.186   3.332
 8494SOL    HW234295   5.328   6.095   3.311
 8494SOL    HW334296   5.325   6.235   3.253
 8494SOL    MW434297   5.342   6.179   3.319
 8495SOL     OW34298   5.489   7.280   3.236
 8495SOL    HW234299   5.417   7.242   3.287
 8495SOL    HW334300   5.506   7.365   3.277
 8495SOL    MW434301   5.483   7.285   3.248
 8496SOL     OW34302   4.794   5.924   3.438
 8496SOL    HW234303   4.760   5.963   3.357
 8496SOL    HW334304   4.772   5.832   3.431
 8496SOL    MW434305   4.787   5.917   3.428
 8497SOL     OW34306   5.203   6.738   3.514
 8497SOL    HW234307   5.285   6.779   3.544
 8497SOL    HW334308   5.166   6.700   3.594
 8497SOL    MW434309   5.209   6.739   3.529
 8498SOL     OW34310   5.498   6.111   2.498
 8498SOL    HW234311   5.587   6.080   2.515
 8498SOL    HW334312   5.441   6.051   2.546
 8498SOL    MW434313   5.501   6.099   2.507
 8499SOL     OW34314   4.867   6.918   2.088
 8499SOL    HW234315   4.817   6.920   2.170
 8499SOL    HW334316   4.801   6.936   2.020
 8499SOL    MW434317   4.853   6.920   2.090
 8500SOL     OW34318   4.330   7.336   2.196
 8500SOL    HW234319   4.251   7.294   2.229
 8500SOL    HW334320   4.396   7.319   2.263
 8500SOL    MW434321   4.329   7.328   2.209
 8501SOL     OW34322   5.458   6.856   3.593
 8501SOL    HW234323   5.508   6.782   3.625
 8501SOL    HW334324   5.404   6.883   3.668
 8501SOL    MW434325   5.458   6.850   3.606
 8502SOL     OW34326   4.466   6.751   1.903
 8502SOL    HW234327   4.388   6.697   1.890
 8502SOL    HW334328   4.437   6.824   1.956
 8502SOL    MW434329   4.452   6.753   1.908
 8503SOL     OW34330   5.592   6.491   3.095
 8503SOL    HW234331   5.608   6.529   3.008
 8503SOL    HW334332   5.626   6.557   3.156
 8503SOL    MW434333   5.599   6.504   3.091
 8504SOL     OW34334   5.384   7.200   2.764
 8504SOL    HW234335   5.413   7.267   2.825
 8504SOL    HW334336   5.365   7.124   2.819
 8504SOL    MW434337   5.386   7.200   2.779
 8505SOL     OW34338   5.047   7.267   1.971
 8505SOL    HW234339   4.973   7.230   2.021
 8505SOL    HW334340   5.055   7.357   2.004
 8505SOL    MW434341   5.038   7.274   1.983
 8506SOL     OW34342   3.855   6.273   3.060
 8506SOL    HW234343   3.917   6.303   3.126
 8506SOL    HW334344   3.789   6.342   3.054
 8506SOL    MW434345   3.854   6.286   3.067
 8507SOL     OW34346   5.271   6.941   1.913
 8507SOL    HW234347   5.218   6.990   1.849
 8507SOL    HW334348   5.302   7.007   1.974
 8507SOL    MW434349   5.269   6.955   1.911
 8508SOL     OW34350   3.950   7.382   3.512
 8508SOL    HW234351   3.924   7.450   3.450
 8508SOL    HW334352   3.998   7.319   3.460
 8508SOL    MW434353   3.952   7.382   3.498
 8509SOL     OW34354   4.002   6.701   3.019
 8509SOL    HW234355   4.055   6.776   3.044
 8509SOL    HW334356   3.921   6.739   2.985
 8509SOL    MW434357   3.998   6.716   3.019
 8510SOL     OW34358   4.542   6.605   3.007
 8510SOL    HW234359   4.570   6.514   3.019
 8510SOL    HW334360   4.471   6.599   2.943
 8510SOL    MW434361   4.535   6.593   3.002
 8511SOL     OW34362   3.857   6.470   2.425
 8511SOL    HW234363   3.948   6.485   2.452
 8511SOL    HW334364   3.860   6.391   2.371
 8511SOL    MW434365   3.869   6.462   2.423
 8512SOL     OW34366   4.479   5.728   3.386
 8512SOL    HW234367   4.456   5.636   3.388
 8512SOL    HW334368   4.565   5.730   3.343
 8512SOL    MW434369   4.486   5.718   3.382
 8513SOL     OW34370   4.484   7.402   2.799
 8513SOL    HW234371   4.573   7.417   2.829
 8513SOL    HW334372   4.479   7.449   2.715
 8513SOL    MW434373   4.494   7.410   2.792
 8514SOL     OW34374   5.140   5.777   3.696
 8514SOL    HW234375   5.196   5.704   3.722
 8514SOL    HW334376   5.110   5.815   3.778
 8514SOL    MW434377   5.144   5.772   3.709
 8515SOL     OW34378   3.865   7.082   2.464
 8515SOL    HW234379   3.837   7.121   2.546
 8515SOL    HW334380   3.885   6.991   2.486
 8515SOL    MW434381   3.863   7.074   2.477
 8516SOL     OW34382   4.698   7.125   2.499
 8516SOL    HW234383   4.781   7.079   2.483
 8516SOL    HW334384   4.688   7.124   2.595
 8516SOL    MW434385   4.708   7.118   2.509
 8517SOL     OW34386   5.530   6.270   2.813
 8517SOL    HW234387   5.619   6.300   2.795
 8517SOL    HW334388   5.510   6.210   2.742
 8517SOL    MW434389   5.539   6.267   2.802
 8518SOL     OW34390   5.381   6.449   3.693
 8518SOL    HW234391   5.436   6.373   3.674
 8518SOL    HW334392   5.383   6.457   3.788
 8518SOL    MW434393   5.389   6.440   3.701
 8519SOL     OW34394   4.431   7.182   1.904
 8519SOL    HW234395   4.371   7.251   1.874
 8519SOL    HW334396   4.376   7.124   1.957
 8519SOL    MW434397   4.415   7.184   1.906
 8520SOL     OW34398   4.936   6.349   2.835
 8520SOL    HW234399   4.949   6.443   2.845
 8520SOL    HW334400   4.897   6.339   2.749
 8520SOL    MW434401   4.932   6.360   2.825
 8521SOL     OW34402   4.388   6.544   2.639
 8521SOL    HW234403   4.299   6.535   2.672
 8521SOL    HW334404   4.392   6.634   2.607
 8521SOL    MW434405   4.377   6.555   2.639
 8522SOL     OW34406   5.187   6.127   2.634
 8522SOL    HW234407   5.132   6.048   2.633
 8522SOL    HW334408   5.169   6.168   2.718
 8522SOL    MW434409   5.177   6.122   2.643
 8523SOL     OW34410   4.806   6.331   2.591
 8523SOL    HW234411   4.743   6.263   2.615
 8523SOL    HW334412   4.826   6.312   2.499
 8523SOL    MW434413   4.800   6.318   2.583
 8524SOL     OW34414   4.062   7.226   2.293
 8524SOL    HW234415   4.023   7.273   2.219
 8524SOL    HW334416   3.996   7.161   2.318
 8524SOL    MW434417   4.049   7.224   2.287
 8525SOL     OW34418   4.554   6.635   2.317
 8525SOL    HW234419   4.556   6.609   2.224
 8525SOL    HW334420   4.612   6.572   2.360
 8525SOL    MW434421   4.562   6.624   2.311
 8526SOL     OW34422   5.107   7.195   3.089
 8526SOL    HW234423   5.032   7.241   3.127
 8526SOL    HW334424   5.089   7.102   3.106
 8526SOL    MW434425   5.096   7.189   3.097
 8527SOL     OW34426   5.111   7.403   2.519
 8527SOL    HW234427   5.054   7.356   2.458
 8527SOL    HW334428   5.197   7.364   2.506
 8527SOL    MW434429   5.114   7.394   2.509
 8528SOL     OW34430   3.869   6.813   2.584
 8528SOL    HW234431   3.933   6.845   2.647
 8528SOL    HW334432   3.918   6.749   2.532
 8528SOL    MW434433   3.884   6.809   2.585
 8529SOL     OW34434   4.369   6.889   3.566
 8529SOL    HW234435   4.417   6.972   3.553
 8529SOL    HW334436   4.426   6.837   3.622
 8529SOL    MW434437   4.383   6.893   3.572
 8530SOL     OW34438   3.945   7.131   3.706
 8530SOL    HW234439   4.001   7.055   3.721
 8530SOL    HW334440   3.894   7.109   3.628
 8530SOL    MW434441   3.945   7.118   3.697
 8531SOL     OW34442   5.217   6.539   2.127
 8531SOL    HW234443   5.184   6.628   2.117
 8531SOL    HW334444   5.182   6.510   2.212
 8531SOL    MW434445   5.207   6.548   2.138
 8532SOL     OW34446   4.830   6.968   3.315
 8532SOL    HW234447   4.741   6.974   3.283
 8532SOL    HW334448   4.874   7.047   3.283
 8532SOL    MW434449   4.825   6.978   3.307
 8533SOL     OW34450   4.147   7.126   2.956
 8533SOL    HW234451   4.192   7.188   3.013
 8533SOL    HW334452   4.054   7.145   2.969
 8533SOL    MW434453   4.140   7.136   2.963
 8534SOL     OW34454   5.587   6.655   3.310
 8534SOL    HW234455   5.502   6.668   3.269
 8534SOL    HW334456   5.567   6.619   3.397
 8534SOL    MW434457   5.574   6.651   3.315
 8535SOL     OW34458   4.569   7.194   3.064
 8535SOL    HW234459   4.593   7.183   2.973
 8535SOL    HW334460   4.492   7.251   3.062
 8535SOL    MW434461   4.561   7.199   3.053
 8536SOL     OW34462   4.211   6.577   1.919
 8536SOL    HW234463   4.134   6.590   1.975
 8536SOL    HW334464   4.175   6.541   1.838
 8536SOL    MW434465   4.197   6.573   1.916
 8537SOL     OW34466   4.864   6.550   2.162
 8537SOL    HW234467   4.774   6.571   2.137
 8537SOL    HW334468   4.891   6.623   2.218
 8537SOL    MW434469   4.856   6.562   2.165
 8538SOL     OW34470   4.364   6.899   2.854
 8538SOL    HW234471   4.357   6.878   2.948
 8538SOL    HW334472   4.282   6.867   2.817
 8538SOL    MW434473   4.352   6.893   2.861
 8539SOL     OW34474   5.228   5.909   3.256
 8539SOL    HW234475   5.175   5.911   3.336
 8539SOL    HW334476   5.213   5.822   3.219
 8539SOL    MW434477   5.220   5.899   3.261
 8540SOL     OW34478   5.564   5.833   3.129
 8540SOL    HW234479   5.545   5.900   3.064
 8540SOL    HW334480   5.621   5.771   3.084
 8540SOL    MW434481   5.568   5.834   3.115
 8541SOL     OW34482   3.810   6.991   3.517
 8541SOL    HW234483   3.854   6.924   3.463
 8541SOL    HW334484   3.725   6.953   3.537
 8541SOL    MW434485   3.805   6.977   3.513
 8542SOL     OW34486   4.251   6.906   2.318
 8542SOL    HW234487   4.244   6.938   2.408
 8542SOL    HW334488   4.161   6.890   2.290
 8542SOL    MW434489   4.239   6.908   2.325
 8543SOL     OW34490   4.846   7.299   3.227
 8543SOL    HW234491   4.766   7.284   3.177
 8543SOL    HW334492   4.853   7.394   3.234
 8543SOL    MW434493   4.837   7.310   3.221
 8544SOL     OW34494   4.960   7.264   2.717
 8544SOL    HW234495   5.007   7.337   2.676
 8544SOL    HW334496   4.881   7.303   2.753
 8544SOL    MW434497   4.955   7.279   2.716
 8545SOL     OW34498   5.368   7.359   2.992
 8545SOL    HW234499   5.411   7.329   3.072
 8545SOL    HW334500   5.287   7.307   2.989
 8545SOL    MW434501   5.363   7.348   3.002
 8546SOL     OW34502   4.453   6.323   3.699
 8546SOL    HW234503   4.523   6.265   3.671
 8546SOL    HW334504   4.396   6.268   3.754
 8546SOL    MW434505   4.455   6.310   3.703
 8547SOL     OW34506   5.240   6.535   3.332
 8547SOL    HW234507   5.245   6.588   3.412
 8547SOL    HW334508   5.202   6.452   3.360
 8547SOL    MW434509   5.236   6.530   3.347
 8548SOL     OW34510   4.880   5.670   3.578
 8548SOL    HW234511   4.875   5.577   3.559
 8548SOL    HW334512   4.963   5.681   3.624
 8548SOL    MW434513   4.888   5.659   3.582
 8549SOL     OW34514   4.254   6.190   2.032
 8549SOL    HW234515   4.220   6.246   2.102
 8549SOL    HW334516   4.325   6.140   2.072
 8549SOL    MW434517   4.260   6.191   2.046
 8550SOL     OW34518   5.350   6.941   2.854
 8550SOL    HW234519   5.385   6.923   2.767
 8550SOL    HW334520   5.255   6.942   2.841
 8550SOL    MW434521   5.342   6.938   2.841
 8551SOL     OW34522   4.779   6.589   3.223
 8551SOL    HW234523   4.822   6.624   3.301
 8551SOL    HW334524   4.762   6.666   3.169
 8551SOL    MW434525   4.782   6.604   3.226
 8552SOL     OW34526   5.310   6.076   2.096
 8552SOL    HW234527   5.302   6.147   2.033
 8552SOL    HW334528   5.328   6.120   2.179
 8552SOL    MW434529   5.311   6.090   2.098
 8553SOL     OW34530   3.929   6.793   3.385
 8553SOL    HW234531   3.957   6.746   3.463
 8553SOL    HW334532   3.850   6.748   3.356
 8553SOL    MW434533   3.922   6.782   3.391
 8554SOL     OW34534   4.437   6.120   3.352
 8554SOL    HW234535   4.409   6.208   3.376
 8554SOL    HW334536   4.406   6.064   3.423
 8554SOL    MW434537   4.429   6.123   3.364
 8555SOL     OW34538   4.979   6.338   2.071
 8555SOL    HW234539   5.026   6.356   1.990
 8555SOL    HW334540   4.945   6.422   2.099
 8555SOL    MW434541   4.981   6.352   2.064
 8556SOL     OW34542   4.092   6.516   2.565
 8556SOL    HW234543   4.150   6.572   2.513
 8556SOL    HW334544   4.136   6.431   2.567
 8556SOL    MW434545   4.105   6.513   2.558
 8557SOL     OW34546   5.232   5.868   2.402
 8557SOL    HW234547   5.154   5.818   2.427
 8557SOL    HW334548   5.203   5.959   2.402
 8557SOL    MW434549   5.218   5.872   2.405
 8558SOL     OW34550   4.714   7.080   1.893
 8558SOL    HW234551   4.741   7.158   1.845
 8558SOL    HW334552   4.621   7.095   1.912
 8558SOL    MW434553   4.705   7.093   1.889
 8559SOL     OW34554   5.578   6.603   3.580
 8559SOL    HW234555   5.491   6.583   3.616
 8559SOL    HW334556   5.632   6.529   3.605
 8559SOL    MW434557   5.573   6.592   3.588
 8560SOL     OW34558   3.799   7.116   2.737
 8560SOL    HW234559   3.831   7.120   2.828
 8560SOL    HW334560   3.704   7.124   2.745
 8560SOL    MW434561   3.791   7.119   2.750
 8561SOL     OW34562   3.754   6.242   2.284
 8561SOL    HW234563   3.694   6.214   2.354
 8561SOL    HW334564   3.828   6.182   2.290
 8561SOL    MW434565   3.756   6.231   2.293
 8562SOL     OW34566   4.922   6.973   2.444
 8562SOL    HW234567   4.945   6.924   2.522
 8562SOL    HW334568   5.003   7.015   2.416
 8562SOL    MW434569   4.935   6.973   2.451
 8563SOL     OW34570   4.134   5.948   2.909
 8563SOL    HW234571   4.164   5.862   2.880
 8563SOL    HW334572   4.039   5.941   2.912
 8563SOL    MW434573   4.126   5.937   2.907
 8564SOL     OW34574   4.963   6.157   3.600
 8564SOL    HW234575   5.015   6.092   3.553
 8564SOL    HW334576   4.921   6.208   3.530
 8564SOL    MW434577   4.964   6.154   3.583
 8565SOL     OW34578   5.062   5.952   3.461
 8565SOL    HW234579   4.969   5.936   3.448
 8565SOL    HW334580   5.088   5.890   3.529
 8565SOL    MW434581   5.052   5.942   3.468
 8566SOL     OW34582   4.371   7.341   3.346
 8566SOL    HW234583   4.288   7.326   3.391
 8566SOL    HW334584   4.430   7.274   3.381
 8566SOL    MW434585   4.369   7.331   3.356
 8567SOL     OW34586   5.428   6.048   2.971
 8567SOL    HW234587   5.361   6.081   3.031
 8567SOL    HW334588   5.471   6.126   2.937
 8567SOL    MW434589   5.426   6.063   2.975
 8568SOL     OW34590   5.606   6.768   2.941
 8568SOL    HW234591   5.599   6.708   2.866
 8568SOL    HW334592   5.532   6.828   2.930
 8568SOL    MW434593   5.596   6.768   2.930
 8569SOL     OW34594   4.988   6.630   2.859
 8569SOL    HW234595   5.002   6.602   2.950
 8569SOL    HW334596   5.074   6.661   2.831
 8569SOL    MW434597   5.001   6.631   2.868
 8570SOL     OW34598   5.071   6.125   3.138
 8570SOL    HW234599   5.092   6.126   3.045
 8570SOL    HW334600   5.116   6.047   3.171
 8570SOL    MW434601   5.078   6.115   3.130
 8571SOL     OW34602   5.564   6.256   3.680
 8571SOL    HW234603   5.601   6.201   3.749
 8571SOL    HW334604   5.589   6.213   3.598
 8571SOL    MW434605   5.571   6.244   3.679
 8572SOL     OW34606   5.111   6.554   3.731
 8572SOL    HW234607   5.177   6.502   3.685
 8572SOL    HW334608   5.131   6.541   3.824
 8572SOL    MW434609   5.122   6.545   3.738
 8573SOL     OW34610   5.122   6.415   2.358
 8573SOL    HW234611   5.037   6.385   2.328
 8573SOL    HW334612   5.114   6.422   2.453
 8573SOL    MW434613   5.110   6.413   2.367
 8574SOL     OW34614   4.198   6.878   3.089
 8574SOL    HW234615   4.210   6.905   3.180
 8574SOL    HW334616   4.179   6.959   3.042
 8574SOL    MW434617   4.197   6.893   3.094
 8575SOL     OW34618   4.336   7.350   3.074
 8575SOL    HW234619   4.388   7.427   3.051
 8575SOL    HW334620   4.345   7.342   3.169
 8575SOL    MW434621   4.345   7.357   3.085
 8576SOL     OW34622   5.238   6.935   3.306
 8576SOL    HW234623   5.223   6.864   3.369
 8576SOL    HW334624   5.284   6.893   3.234
 8576SOL    MW434625   5.244   6.919   3.306
 8577SOL     OW34626   4.312   6.666   3.423
 8577SOL    HW234627   4.349   6.671   3.335
 8577SOL    HW334628   4.351   6.739   3.470
 8577SOL    MW434629   4.322   6.676   3.418
 8578SOL     OW34630   4.492   6.709   3.235
 8578SOL    HW234631   4.551   6.655   3.288
 8578SOL    HW334632   4.507   6.681   3.145
 8578SOL    MW434633   4.502   6.698   3.231
 8579SOL     OW34634   4.495   6.081   2.084
 8579SOL    HW234635   4.568   6.130   2.047
 8579SOL    HW334636   4.511   5.990   2.058
 8579SOL    MW434637   4.507   6.076   2.077
 8580SOL     OW34638   5.303   7.198   3.407
 8580SOL    HW234639   5.345   7.183   3.492
 8580SOL    HW334640   5.294   7.111   3.369
 8580SOL    MW434641   5.307   7.186   3.414
 8581SOL     OW34642   3.970   6.590   2.182
 8581SOL    HW234643   3.907   6.606   2.111
 8581SOL    HW334644   3.917   6.553   2.253
 8581SOL    MW434645   3.955   6.587   2.182
 8582SOL     OW34646   4.326   6.944   2.041
 8582SOL    HW234647   4.341   6.920   2.133
 8582SOL    HW334648   4.234   6.922   2.025
 8582SOL    MW434649   4.316   6.937   2.051
 8583SOL     OW34650   4.124   7.333   2.762
 8583SOL    HW234651   4.128   7.244   2.797
 8583SOL    HW334652   4.150   7.324   2.671
 8583SOL    MW434653   4.127   7.321   2.754
 8584SOL     OW34654   4.741   6.811   3.005
 8584SOL    HW234655   4.673   6.745   3.021
 8584SOL    HW334656   4.759   6.805   2.912
 8584SOL    MW434657   4.734   6.802   2.996
 8585SOL     OW34658   3.830   7.086   3.256
 8585SOL    HW234659   3.820   7.044   3.342
 8585SOL    HW334660   3.751   7.139   3.246
 8585SOL    MW434661   3.819   7.087   3.267
 8586SOL     OW34662   4.734   5.950   2.826
 8586SOL    HW234663   4.664   5.902   2.871
 8586SOL    HW334664   4.766   6.013   2.890
 8586SOL    MW434665   4.729   5.952   2.840
 8587SOL     OW34666   4.385   6.386   3.446
 8587SOL    HW234667   4.378   6.481   3.434
 8587SOL    HW334668   4.394   6.375   3.541
 8587SOL    MW434669   4.386   6.398   3.456
 8588SOL     OW34670   4.106   6.901   3.704
 8588SOL    HW234671   4.178   6.903   3.641
 8588SOL    HW334672   4.076   6.810   3.703
 8588SOL    MW434673   4.111   6.890   3.696
 8589SOL     OW34674   5.190   5.664   3.171
 8589SOL    HW234675   5.261   5.610   3.135
 8589SOL    HW334676   5.189   5.643   3.264
 8589SOL    MW434677   5.199   5.655   3.179
 8590SOL     OW34678   5.390   7.194   3.655
 8590SOL    HW234679   5.363   7.191   3.746
 8590SOL    HW334680   5.486   7.198   3.658
 8590SOL    MW434681   5.400   7.194   3.667
 8591SOL     OW34682   4.201   6.056   2.639
 8591SOL    HW234683   4.272   6.004   2.602
 8591SOL    HW334684   4.187   6.021   2.726
 8591SOL    MW434685   4.209   6.045   2.646
 8592SOL     OW34686   4.517   7.149   2.715
 8592SOL    HW234687   4.445   7.086   2.728
 8592SOL    HW334688   4.478   7.234   2.733
 8592SOL    MW434689   4.501   7.152   2.718
 8593SOL     OW34690   4.837   5.997   2.363
 8593SOL    HW234691   4.859   5.934   2.295
 8593SOL    HW334692   4.742   5.989   2.374
 8593SOL    MW434693   4.827   5.988   2.355
 8594SOL     OW34694   3.922   5.687   2.295
 8594SOL    HW234695   3.993   5.708   2.234
 8594SOL    HW334696   3.876   5.615   2.253
 8594SOL    MW434697   3.926   5.681   2.281
 8595SOL     OW34698   3.753   6.154   3.438
 8595SOL    HW234699   3.817   6.220   3.413
 8595SOL    HW334700   3.672   6.181   3.395
 8595SOL    MW434701   3.751   6.166   3.430
 8596SOL     OW34702   5.491   7.061   2.395
 8596SOL    HW234703   5.461   6.994   2.456
 8596SOL    HW334704   5.585   7.067   2.409
 8596SOL    MW434705   5.499   7.053   2.405
 8597SOL     OW34706   5.047   6.738   2.325
 8597SOL    HW234707   5.019   6.824   2.358
 8597SOL    HW334708   5.075   6.754   2.235
 8597SOL    MW434709   5.047   6.752   2.317
 8598SOL     OW34710   5.562   6.540   2.800
 8598SOL    HW234711   5.553   6.572   2.711
 8598SOL    HW334712   5.515   6.456   2.800
 8598SOL    MW434713   5.555   6.533   2.790
 8599SOL     OW34714   3.938   6.380   3.379
 8599SOL    HW234715   3.959   6.449   3.317
 8599SOL    HW334716   4.018   6.327   3.384
 8599SOL    MW434717   3.951   6.381   3.373
 8600SOL     OW34718   5.474   6.471   2.501
 8600SOL    HW234719   5.568   6.460   2.489
 8600SOL    HW334720   5.450   6.543   2.442
 8600SOL    MW434721   5.484   6.479   2.492
 8601SOL     OW34722   3.923   6.395   3.646
 8601SOL    HW234723   3.849   6.339   3.672
 8601SOL    HW334724   3.918   6.398   3.551
 8601SOL    MW434725   3.912   6.388   3.636
 8602SOL     OW34726   4.130   6.349   2.274
 8602SOL    HW234727   4.130   6.444   2.259
 8602SOL    HW334728   4.207   6.333   2.328
 8602SOL    MW434729   4.140   6.360   2.279
 8603SOL     OW34730   4.906   6.208   3.338
 8603SOL    HW234731   4.942   6.181   3.254
 8603SOL    HW334732   4.819   6.242   3.317
 8603SOL    MW434733   4.900   6.209   3.325
 8604SOL     OW34734   3.889   6.080   2.563
 8604SOL    HW234735   3.951   6.087   2.636
 8604SOL    HW334736   3.889   5.987   2.540
 8604SOL    MW434737   3.897   6.069   2.570
 8605SOL     OW34738   4.571   6.341   3.047
 8605SOL    HW234739   4.529   6.259   3.023
 8605SOL    HW334740   4.572   6.340   3.143
 8605SOL    MW434741   4.564   6.330   3.056
 8606SOL     OW34742   3.758   6.652   2.021
 8606SOL    HW234743   3.727   6.717   2.084
 8606SOL    HW334744   3.707   6.574   2.040
 8606SOL    MW434745   3.748   6.649   2.031
 8607SOL     OW34746   5.202   6.403   2.613
 8607SOL    HW234747   5.282   6.418   2.562
 8607SOL    HW334748   5.195   6.308   2.619
 8607SOL    MW434749   5.211   6.392   2.608
 8608SOL     OW34750   4.342   7.452   1.963
 8608SOL    HW234751   4.247   7.452   1.955
 8608SOL    HW334752   4.358   7.398   2.041
 8608SOL    MW434753   4.332   7.446   1.972
 8609SOL     OW34754   4.652   6.329   3.310
 8609SOL    HW234755   4.721   6.396   3.307
 8609SOL    HW334756   4.585   6.367   3.366
 8609SOL    MW434757   4.653   6.342   3.317
 8610SOL     OW34758   4.070   6.629   3.558
 8610SOL    HW234759   4.024   6.545   3.560
 8610SOL    HW334760   4.127   6.623   3.482
 8610SOL    MW434761   4.072   6.617   3.550
 8611SOL     OW34762   5.187   6.272   1.879
 8611SOL    HW234763   5.115   6.248   1.821
 8611SOL    HW334764   5.253   6.309   1.821
 8611SOL    MW434765   5.186   6.274   1.864
 8612SOL     OW34766   4.321   7.004   2.559
 8612SOL    HW234767   4.386   6.937   2.580
 8612SOL    HW334768   4.373   7.081   2.536
 8612SOL    MW434769   4.336   7.006   2.558
 8613SOL     OW34770   4.582   6.169   2.689
 8613SOL    HW234771   4.522   6.187   2.761
 8613SOL    HW334772   4.616   6.081   2.708
 8613SOL    MW434773   4.578   6.159   2.702
 8614SOL     OW34774   5.523   5.668   3.358
 8614SOL    HW234775   5.444   5.714   3.386
 8614SOL    HW334776   5.558   5.722   3.287
 8614SOL    MW434777   5.517   5.681   3.352
 8615SOL     OW34778   4.807   6.752   2.708
 8615SOL    HW234779   4.899   6.733   2.726
 8615SOL    HW334780   4.780   6.682   2.648
 8615SOL    MW434781   4.815   6.740   2.702
 8616SOL     OW34782   4.600   6.572   2.063
 8616SOL    HW234783   4.586   6.484   2.028
 8616SOL    HW334784   4.551   6.629   2.004
 8616SOL    MW434785   4.592   6.567   2.051
 8617SOL     OW34786   5.081   6.990   2.804
 8617SOL    HW234787   5.054   7.074   2.769
 8617SOL    HW334788   5.041   6.985   2.891
 8617SOL    MW434789   5.074   6.999   2.810
 8618SOL     OW34790   5.000   6.938   3.072
 8618SOL    HW234791   5.011   6.905   3.161
 8618SOL    HW334792   4.919   6.897   3.041
 8618SOL    MW434793   4.990   6.930   3.078
 8619SOL     OW34794   4.013   6.296   2.842
 8619SOL    HW234795   3.963   6.295   2.923
 8619SOL    HW334796   4.033   6.388   2.826
 8619SOL    MW434797   4.009   6.308   2.850
 8620SOL     OW34798   5.080   7.060   3.604
 8620SOL    HW234799   5.080   7.154   3.620
 8620SOL    HW334800   5.125   7.050   3.520
 8620SOL    MW434801   5.086   7.070   3.595
 8621SOL     OW34802   5.047   6.584   3.128
 8621SOL    HW234803   5.110   6.581   3.201
 8621SOL    HW334804   4.963   6.602   3.170
 8621SOL    MW434805   5.043   6.586   3.143
 8622SOL     OW34806   4.591   7.299   2.317
 8622SOL    HW234807   4.649   7.370   2.344
 8622SOL    HW334808   4.614   7.227   2.375
 8622SOL    MW434809   4.602   7.299   2.328
 8623SOL     OW34810   5.386   5.761   2.907
 8623SOL    HW234811   5.431   5.679   2.926
 8623SOL    HW334812   5.406   5.817   2.983
 8623SOL    MW434813   5.396   5.757   2.919
 8624SOL     OW34814   5.471   6.797   2.626
 8624SOL    HW234815   5.450   6.743   2.549
 8624SOL    HW334816   5.567   6.795   2.630
 8624SOL    MW434817   5.480   6.790   2.615
 8625SOL     OW34818   4.163   6.942   3.369
 8625SOL    HW234819   4.084   6.892   3.392
 8625SOL    HW334820   4.233   6.901   3.419
 8625SOL    MW434821   4.161   6.930   3.379
 8626SOL     OW34822   4.047   5.731   2.052
 8626SOL    HW234823   3.976   5.786   2.020
 8626SOL    HW334824   4.089   5.697   1.973
 8626SOL    MW434825   4.043   5.733   2.038
 8627SOL     OW34826   5.171   6.228   2.888
 8627SOL    HW234827   5.094   6.274   2.854
 8627SOL    HW334828   5.228   6.297   2.922
 8627SOL    MW434829   5.168   6.243   2.888
 8628SOL     OW34830   3.803   5.830   1.901
 8628SOL    HW234831   3.770   5.909   1.945
 8628SOL    HW334832   3.858   5.863   1.830
 8628SOL    MW434833   3.806   5.844   1.898
 8629SOL     OW34834   3.837   7.087   2.090
 8629SOL    HW234835   3.854   7.171   2.132
 8629SOL    HW334836   3.872   7.096   2.002
 8629SOL    MW434837   3.842   7.100   2.084
 8630SOL     OW34838   5.109   7.176   2.307
 8630SOL    HW234839   5.172   7.166   2.236
 8630SOL    HW334840   5.026   7.196   2.262
 8630SOL    MW434841   5.106   7.177   2.292
 8631SOL     OW34842   5.472   6.444   3.993
 8631SOL    HW234843   5.513   6.386   4.058
 8631SOL    HW334844   5.379   6.436   4.010
 8631SOL    MW434845   5.466   6.436   4.003
 8632SOL     OW34846   5.338   6.376   4.988
 8632SOL    HW234847   5.293   6.443   5.039
 8632SOL    HW334848   5.426   6.412   4.974
 8632SOL    MW434849   5.344   6.389   4.992
 8633SOL     OW34850   4.266   6.627   4.222
 8633SOL    HW234851   4.356   6.602   4.206
 8633SOL    HW334852   4.262   6.720   4.199
 8633SOL    MW434853   4.278   6.636   4.217
 8634SOL     OW34854   5.382   7.330   4.364
 8634SOL    HW234855   5.394   7.276   4.442
 8634SOL    HW334856   5.419   7.278   4.293
 8634SOL    MW434857   5.388   7.315   4.365
 8635SOL     OW34858   4.761   7.215   5.365
 8635SOL    HW234859   4.802   7.251   5.286
 8635SOL    HW334860   4.796   7.126   5.372
 8635SOL    MW434861   4.772   7.208   5.356
 8636SOL     OW34862   5.318   6.770   4.969
 8636SOL    HW234863   5.239   6.735   4.927
 8636SOL    HW334864   5.345   6.842   4.913
 8636SOL    MW434865   5.311   6.775   4.956
 8637SOL     OW34866   4.550   6.083   4.235
 8637SOL    HW234867   4.525   6.171   4.263
 8637SOL    HW334868   4.547   6.086   4.139
 8637SOL    MW434869   4.546   6.095   4.227
 8638SOL     OW34870   3.992   6.111   4.163
 8638SOL    HW234871   4.024   6.199   4.145
 8638SOL    HW334872   3.980   6.109   4.258
 8638SOL    MW434873   3.995   6.123   4.175
 8639SOL     OW34874   4.070   6.524   5.064
 8639SOL    HW234875   4.133   6.471   5.015
 8639SOL    HW334876   4.051   6.598   5.007
 8639SOL    MW434877   4.076   6.526   5.051
 8640SOL     OW34878   4.391   5.866   4.250
 8640SOL    HW234879   4.449   5.942   4.252
 8640SOL    HW334880   4.326   5.887   4.183
 8640SOL    MW434881   4.390   5.878   4.241
 8641SOL     OW34882   4.478   6.793   4.425
 8641SOL    HW234883   4.558   6.796   4.477
 8641SOL    HW334884   4.506   6.760   4.339
 8641SOL    MW434885   4.492   6.789   4.420
 8642SOL     OW34886   4.503   7.134   5.328
 8642SOL    HW234887   4.587   7.160   5.367
 8642SOL    HW334888   4.527   7.078   5.254
 8642SOL    MW434889   4.517   7.130   5.323
 8643SOL     OW34890   4.255   6.297   4.416
 8643SOL    HW234891   4.240   6.217   4.467
 8643SOL    HW334892   4.337   6.332   4.450
 8643SOL    MW434893   4.263   6.289   4.428
 8644SOL     OW34894   4.592   6.983   5.101
 8644SOL    HW234895   4.556   7.049   5.041
 8644SOL    HW334896   4.520   6.921   5.114
 8644SOL    MW434897   4.578   6.983   5.095
 8645SOL     OW34898   4.397   6.123   4.793
 8645SOL    HW234899   4.303   6.119   4.811
 8645SOL    HW334900   4.427   6.032   4.802
 8645SOL    MW434901   4.388   6.111   4.796
 8646SOL     OW34902   4.143   6.537   4.697
 8646SOL    HW234903   4.098   6.544   4.613
 8646SOL    HW334904   4.123   6.620   4.741
 8646SOL    MW434905   4.135   6.549   4.691
 8647SOL     OW34906   3.840   7.383   4.572
 8647SOL    HW234907   3.929   7.375   4.607
 8647SOL    HW334908   3.804   7.295   4.577
 8647SOL    MW434909   3.847   7.370   4.577
 8648SOL     OW34910   5.105   6.775   3.941
 8648SOL    HW234911   5.023   6.811   3.907
 8648SOL    HW334912   5.173   6.818   3.890
 8648SOL    MW434913   5.103   6.785   3.929
 8649SOL     OW34914   4.104   6.910   4.607
 8649SOL    HW234915   4.080   6.963   4.683
 8649SOL    HW334916   4.160   6.968   4.555
 8649SOL    MW434917   4.108   6.925   4.610
 8650SOL     OW34918   4.666   6.554   4.417
 8650SOL    HW234919   4.580   6.541   4.457
 8650SOL    HW334920   4.719   6.481   4.449
 8650SOL    MW434921   4.662   6.543   4.426
 8651SOL     OW34922   4.074   7.206   5.202
 8651SOL    HW234923   3.982   7.182   5.187
 8651SOL    HW334924   4.118   7.123   5.219
 8651SOL    MW434925   4.068   7.191   5.201
 8652SOL     OW34926   4.657   6.916   4.134
 8652SOL    HW234927   4.634   6.978   4.202
 8652SOL    HW334928   4.614   6.834   4.160
 8652SOL    MW434929   4.649   6.912   4.145
 8653SOL     OW34930   5.530   5.917   4.590
 8653SOL    HW234931   5.467   5.897   4.659
 8653SOL    HW334932   5.520   5.846   4.527
 8653SOL    MW434933   5.520   5.904   4.591
 8654SOL     OW34934   4.154   5.889   4.102
 8654SOL    HW234935   4.128   5.851   4.018
 8654SOL    HW334936   4.091   5.959   4.118
 8654SOL    MW434937   4.143   5.892   4.093
 8655SOL     OW34938   3.989   6.850   4.139
 8655SOL    HW234939   3.937   6.918   4.095
 8655SOL    HW334940   3.986   6.776   4.079
 8655SOL    MW434941   3.981   6.849   4.126
 8656SOL     OW34942   4.651   7.313   3.917
 8656SOL    HW234943   4.606   7.329   4.000
 8656SOL    HW334944   4.582   7.278   3.859
 8656SOL    MW434945   4.637   7.310   3.919
 8657SOL     OW34946   5.331   6.689   4.242
 8657SOL    HW234947   5.241   6.689   4.277
 8657SOL    HW334948   5.324   6.735   4.159
 8657SOL    MW434949   5.318   6.695   4.236
 8658SOL     OW34950   5.131   6.324   5.314
 8658SOL    HW234951   5.200   6.262   5.291
 8658SOL    HW334952   5.056   6.298   5.261
 8658SOL    MW434953   5.131   6.311   5.305
 8659SOL     OW34954   3.872   7.204   4.866
 8659SOL    HW234955   3.855   7.150   4.943
 8659SOL    HW334956   3.860   7.294   4.896
 8659SOL    MW434957   3.869   7.208   4.880
 8660SOL     OW34958   4.867   6.711   5.306
 8660SOL    HW234959   4.852   6.804   5.291
 8660SOL    HW334960   4.962   6.701   5.306
 8660SOL    MW434961   4.876   6.721   5.303
 8661SOL     OW34962   4.663   6.135   5.507
 8661SOL    HW234963   4.753   6.136   5.474
 8661SOL    HW334964   4.622   6.060   5.465
 8661SOL    MW434965   4.669   6.125   5.498
 8662SOL     OW34966   5.238   6.667   4.634
 8662SOL    HW234967   5.241   6.601   4.565
 8662SOL    HW334968   5.323   6.710   4.630
 8662SOL    MW434969   5.250   6.663   4.625
 8663SOL     OW34970   4.858   6.270   4.203
 8663SOL    HW234971   4.884   6.294   4.114
 8663SOL    HW334972   4.840   6.177   4.199
 8663SOL    MW434973   4.860   6.262   4.190
 8664SOL     OW34974   5.523   6.890   4.054
 8664SOL    HW234975   5.479   6.931   4.129
 8664SOL    HW334976   5.580   6.958   4.019
 8664SOL    MW434977   5.525   6.904   4.059
 8665SOL     OW34978   4.443   5.939   5.457
 8665SOL    HW234979   4.453   5.865   5.397
 8665SOL    HW334980   4.479   5.908   5.540
 8665SOL    MW434981   4.449   5.925   5.459
 8666SOL     OW34982   4.179   7.306   4.372
 8666SOL    HW234983   4.211   7.394   4.350
 8666SOL    HW334984   4.132   7.278   4.294
 8666SOL    MW434985   4.178   7.314   4.359
 8667SOL     OW34986   5.563   5.668   4.421
 8667SOL    HW234987   5.617   5.619   4.483
 8667SOL    HW334988   5.506   5.602   4.382
 8667SOL    MW434989   5.563   5.652   4.423
 8668SOL     OW34990   4.682   5.621   4.834
 8668SOL    HW234991   4.641   5.699   4.796
 8668SOL    HW334992   4.776   5.639   4.829
 8668SOL    MW434993   4.688   5.633   4.829
 8669SOL     OW34994   5.299   7.174   3.920
 8669SOL    HW234995   5.347   7.243   3.966
 8669SOL    HW334996   5.220   7.218   3.889
 8669SOL    MW434997   5.294   7.188   3.923
 8670SOL     OW34998   4.697   6.299   3.864
 8670SOL    HW234999   4.699   6.246   3.785
 8670SOL    HW335000   4.785   6.336   3.870
 8670SOL    MW435001   4.709   6.298   3.853
 8671SOL     OW35002   5.311   6.225   4.200
 8671SOL    HW235003   5.350   6.225   4.287
 8671SOL    HW335004   5.252   6.301   4.200
 8671SOL    MW435005   5.308   6.236   4.211
 8672SOL     OW35006   4.628   6.592   5.329
 8672SOL    HW235007   4.605   6.572   5.419
 8672SOL    HW335008   4.713   6.636   5.334
 8672SOL    MW435009   4.635   6.595   5.341
 8673SOL     OW35010   4.708   5.729   5.089
 8673SOL    HW235011   4.714   5.691   5.002
 8673SOL    HW335012   4.697   5.823   5.074
 8673SOL    MW435013   4.709   5.737   5.077
 8674SOL     OW35014   4.797   6.218   4.923
 8674SOL    HW235015   4.872   6.247   4.870
 8674SOL    HW335016   4.729   6.283   4.907
 8674SOL    MW435017   4.798   6.230   4.913
 8675SOL     OW35018   5.347   6.186   5.200
 8675SOL    HW235019   5.328   6.095   5.179
 8675SOL    HW335020   5.325   6.235   5.121
 8675SOL    MW435021   5.342   6.179   5.187
 8676SOL     OW35022   5.489   7.280   5.104
 8676SOL    HW235023   5.417   7.242   5.155
 8676SOL    HW335024   5.506   7.365   5.145
 8676SOL    MW435025   5.483   7.285   5.116
 8677SOL     OW35026   4.794   5.924   5.306
 8677SOL    HW235027   4.760   5.963   5.225
 8677SOL    HW335028   4.772   5.832   5.299
 8677SOL    MW435029   4.787   5.917   5.296
 8678SOL     OW35030   5.203   6.738   5.382
 8678SOL    HW235031   5.285   6.779   5.412
 8678SOL    HW335032   5.166   6.700   5.462
 8678SOL    MW435033   5.209   6.739   5.397
 8679SOL     OW35034   5.498   6.111   4.366
 8679SOL    HW235035   5.587   6.080   4.383
 8679SOL    HW335036   5.441   6.051   4.414
 8679SOL    MW435037   5.501   6.099   4.375
 8680SOL     OW35038   4.867   6.918   3.956
 8680SOL    HW235039   4.817   6.920   4.038
 8680SOL    HW335040   4.801   6.936   3.888
 8680SOL    MW435041   4.853   6.920   3.958
 8681SOL     OW35042   3.871   5.998   4.758
 8681SOL    HW235043   3.843   6.089   4.767
 8681SOL    HW335044   3.808   5.959   4.697
 8681SOL    MW435045   3.858   6.004   4.752
 8682SOL     OW35046   4.330   7.336   4.064
 8682SOL    HW235047   4.251   7.294   4.097
 8682SOL    HW335048   4.396   7.319   4.131
 8682SOL    MW435049   4.329   7.328   4.077
 8683SOL     OW35050   5.458   6.856   5.461
 8683SOL    HW235051   5.508   6.782   5.493
 8683SOL    HW335052   5.404   6.883   5.536
 8683SOL    MW435053   5.458   6.850   5.474
 8684SOL     OW35054   4.466   6.751   3.771
 8684SOL    HW235055   4.388   6.697   3.758
 8684SOL    HW335056   4.437   6.824   3.824
 8684SOL    MW435057   4.452   6.753   3.776
 8685SOL     OW35058   5.592   6.491   4.963
 8685SOL    HW235059   5.608   6.529   4.876
 8685SOL    HW335060   5.626   6.557   5.024
 8685SOL    MW435061   5.599   6.504   4.959
 8686SOL     OW35062   5.384   7.200   4.632
 8686SOL    HW235063   5.413   7.267   4.693
 8686SOL    HW335064   5.365   7.124   4.687
 8686SOL    MW435065   5.386   7.200   4.647
 8687SOL     OW35066   5.047   7.267   3.839
 8687SOL    HW235067   4.973   7.230   3.889
 8687SOL    HW335068   5.055   7.357   3.872
 8687SOL    MW435069   5.038   7.274   3.851
 8688SOL     OW35070   3.855   6.273   4.928
 8688SOL    HW235071   3.917   6.303   4.994
 8688SOL    HW335072   3.789   6.342   4.922
 8688SOL    MW435073   3.854   6.286   4.935
 8689SOL     OW35074   5.271   6.941   3.781
 8689SOL    HW235075   5.218   6.990   3.717
 8689SOL    HW335076   5.302   7.007   3.842
 8689SOL    MW435077   5.269   6.955   3.779
 8690SOL     OW35078   3.950   7.382   5.380
 8690SOL    HW235079   3.924   7.450   5.318
 8690SOL    HW335080   3.998   7.319   5.328
 8690SOL    MW435081   3.952   7.382   5.366
 8691SOL     OW35082   4.002   6.701   4.887
 8691SOL    HW235083   4.055   6.776   4.912
 8691SOL    HW335084   3.921   6.739   4.853
 8691SOL    MW435085   3.998   6.716   4.887
 8692SOL     OW35086   4.542   6.605   4.875
 8692SOL    HW235087   4.570   6.514   4.887
 8692SOL    HW335088   4.471   6.599   4.811
 8692SOL    MW435089   4.535   6.593   4.870
 8693SOL     OW35090   3.857   6.470   4.293
 8693SOL    HW235091   3.948   6.485   4.320
 8693SOL    HW335092   3.860   6.391   4.239
 8693SOL    MW435093   3.869   6.462   4.291
 8694SOL     OW35094   4.093   6.178   5.547
 8694SOL    HW235095   4.040   6.258   5.554
 8694SOL    HW335096   4.163   6.190   5.612
 8694SOL    MW435097   4.095   6.191   5.555
 8695SOL     OW35098   4.479   5.728   5.254
 8695SOL    HW235099   4.456   5.636   5.256
 8695SOL    HW335100   4.565   5.730   5.211
 8695SOL    MW435101   4.486   5.718   5.250
 8696SOL     OW35102   4.163   6.252   5.293
 8696SOL    HW235103   4.243   6.302   5.279
 8696SOL    HW335104   4.154   6.246   5.388
 8696SOL    MW435105   4.172   6.258   5.303
 8697SOL     OW35106   4.484   7.402   4.667
 8697SOL    HW235107   4.573   7.417   4.697
 8697SOL    HW335108   4.479   7.449   4.583
 8697SOL    MW435109   4.494   7.410   4.660
 8698SOL     OW35110   5.140   5.777   5.564
 8698SOL    HW235111   5.196   5.704   5.590
 8698SOL    HW335112   5.110   5.815   5.646
 8698SOL    MW435113   5.144   5.772   5.577
 8699SOL     OW35114   3.865   7.082   4.332
 8699SOL    HW235115   3.837   7.121   4.414
 8699SOL    HW335116   3.885   6.991   4.354
 8699SOL    MW435117   3.863   7.074   4.345
 8700SOL     OW35118   4.698   7.125   4.367
 8700SOL    HW235119   4.781   7.079   4.351
 8700SOL    HW335120   4.688   7.124   4.463
 8700SOL    MW435121   4.708   7.118   4.377
 8701SOL     OW35122   5.530   6.270   4.681
 8701SOL    HW235123   5.619   6.300   4.663
 8701SOL    HW335124   5.510   6.210   4.610
 8701SOL    MW435125   5.539   6.267   4.670
 8702SOL     OW35126   5.381   6.449   5.561
 8702SOL    HW235127   5.436   6.373   5.542
 8702SOL    HW335128   5.383   6.457   5.656
 8702SOL    MW435129   5.389   6.440   5.569
 8703SOL     OW35130   4.431   7.182   3.772
 8703SOL    HW235131   4.371   7.251   3.742
 8703SOL    HW335132   4.376   7.124   3.825
 8703SOL    MW435133   4.415   7.184   3.774
 8704SOL     OW35134   4.869   5.827   3.995
 8704SOL    HW235135   4.802   5.803   3.932
 8704SOL    HW335136   4.934   5.876   3.944
 8704SOL    MW435137   4.869   5.829   3.980
 8705SOL     OW35138   4.676   6.011   5.080
 8705SOL    HW235139   4.595   6.052   5.108
 8705SOL    HW335140   4.723   6.079   5.032
 8705SOL    MW435141   4.671   6.026   5.078
 8706SOL     OW35142   4.936   6.349   4.703
 8706SOL    HW235143   4.949   6.443   4.713
 8706SOL    HW335144   4.897   6.339   4.617
 8706SOL    MW435145   4.932   6.360   4.693
 8707SOL     OW35146   4.388   6.544   4.507
 8707SOL    HW235147   4.299   6.535   4.540
 8707SOL    HW335148   4.392   6.634   4.475
 8707SOL    MW435149   4.377   6.555   4.507
 8708SOL     OW35150   5.187   6.127   4.502
 8708SOL    HW235151   5.132   6.048   4.501
 8708SOL    HW335152   5.169   6.168   4.586
 8708SOL    MW435153   5.177   6.122   4.511
 8709SOL     OW35154   4.158   5.814   5.319
 8709SOL    HW235155   4.079   5.832   5.371
 8709SOL    HW335156   4.153   5.876   5.246
 8709SOL    MW435157   4.148   5.824   5.316
 8710SOL     OW35158   4.806   6.331   4.459
 8710SOL    HW235159   4.743   6.263   4.483
 8710SOL    HW335160   4.826   6.312   4.367
 8710SOL    MW435161   4.800   6.318   4.451
 8711SOL     OW35162   4.062   7.226   4.161
 8711SOL    HW235163   4.023   7.273   4.087
 8711SOL    HW335164   3.996   7.161   4.186
 8711SOL    MW435165   4.049   7.224   4.155
 8712SOL     OW35166   4.554   6.635   4.185
 8712SOL    HW235167   4.556   6.609   4.092
 8712SOL    HW335168   4.612   6.572   4.228
 8712SOL    MW435169   4.562   6.624   4.179
 8713SOL     OW35170   5.107   7.195   4.957
 8713SOL    HW235171   5.032   7.241   4.995
 8713SOL    HW335172   5.089   7.102   4.974
 8713SOL    MW435173   5.096   7.189   4.965
 8714SOL     OW35174   5.111   7.403   4.387
 8714SOL    HW235175   5.054   7.356   4.326
 8714SOL    HW335176   5.197   7.364   4.374
 8714SOL    MW435177   5.114   7.394   4.377
 8715SOL     OW35178   5.064   5.879   4.518
 8715SOL    HW235179   5.092   5.811   4.579
 8715SOL    HW335180   4.978   5.850   4.488
 8715SOL    MW435181   5.057   5.866   4.522
 8716SOL     OW35182   3.869   6.813   4.452
 8716SOL    HW235183   3.933   6.845   4.515
 8716SOL    HW335184   3.918   6.749   4.400
 8716SOL    MW435185   3.884   6.809   4.453
 8717SOL     OW35186   4.369   6.889   5.434
 8717SOL    HW235187   4.417   6.972   5.421
 8717SOL    HW335188   4.426   6.837   5.490
 8717SOL    MW435189   4.383   6.893   5.440
 8718SOL     OW35190   3.945   7.131   5.574
 8718SOL    HW235191   4.001   7.055   5.589
 8718SOL    HW335192   3.894   7.109   5.496
 8718SOL    MW435193   3.945   7.118   5.565
 8719SOL     OW35194   5.044   5.983   3.853
 8719SOL    HW235195   5.017   6.049   3.789
 8719SOL    HW335196   5.114   6.026   3.903
 8719SOL    MW435197   5.049   5.996   3.850
 8720SOL     OW35198   4.712   5.688   3.790
 8720SOL    HW235199   4.768   5.680   3.712
 8720SOL    HW335200   4.689   5.598   3.812
 8720SOL    MW435201   4.717   5.675   3.783
 8721SOL     OW35202   5.217   6.539   3.995
 8721SOL    HW235203   5.184   6.628   3.985
 8721SOL    HW335204   5.182   6.510   4.080
 8721SOL    MW435205   5.207   6.548   4.006
 8722SOL     OW35206   4.830   6.968   5.183
 8722SOL    HW235207   4.741   6.974   5.151
 8722SOL    HW335208   4.874   7.047   5.151
 8722SOL    MW435209   4.825   6.978   5.175
 8723SOL     OW35210   4.123   5.636   5.525
 8723SOL    HW235211   4.051   5.601   5.473
 8723SOL    HW335212   4.181   5.677   5.460
 8723SOL    MW435213   4.121   5.637   5.510
 8724SOL     OW35214   4.147   7.126   4.824
 8724SOL    HW235215   4.192   7.188   4.881
 8724SOL    HW335216   4.054   7.145   4.837
 8724SOL    MW435217   4.140   7.136   4.831
 8725SOL     OW35218   5.587   6.655   5.178
 8725SOL    HW235219   5.502   6.668   5.137
 8725SOL    HW335220   5.567   6.619   5.265
 8725SOL    MW435221   5.574   6.651   5.183
 8726SOL     OW35222   4.569   7.194   4.932
 8726SOL    HW235223   4.593   7.183   4.841
 8726SOL    HW335224   4.492   7.251   4.930
 8726SOL    MW435225   4.561   7.199   4.921
 8727SOL     OW35226   4.211   6.577   3.787
 8727SOL    HW235227   4.134   6.590   3.843
 8727SOL    HW335228   4.175   6.541   3.706
 8727SOL    MW435229   4.197   6.573   3.784
 8728SOL     OW35230   4.864   6.550   4.030
 8728SOL    HW235231   4.774   6.571   4.005
 8728SOL    HW335232   4.891   6.623   4.086
 8728SOL    MW435233   4.856   6.562   4.033
 8729SOL     OW35234   4.364   6.899   4.722
 8729SOL    HW235235   4.357   6.878   4.816
 8729SOL    HW335236   4.282   6.867   4.685
 8729SOL    MW435237   4.352   6.893   4.729
 8730SOL     OW35238   5.228   5.909   5.124
 8730SOL    HW235239   5.175   5.911   5.204
 8730SOL    HW335240   5.213   5.822   5.087
 8730SOL    MW435241   5.220   5.899   5.129
 8731SOL     OW35242   5.564   5.833   4.997
 8731SOL    HW235243   5.545   5.900   4.932
 8731SOL    HW335244   5.621   5.771   4.952
 8731SOL    MW435245   5.568   5.834   4.983
 8732SOL     OW35246   3.810   6.991   5.385
 8732SOL    HW235247   3.854   6.924   5.331
 8732SOL    HW335248   3.725   6.953   5.405
 8732SOL    MW435249   3.805   6.977   5.381
 8733SOL     OW35250   4.493   5.666   4.437
 8733SOL    HW235251   4.422   5.727   4.419
 8733SOL    HW335252   4.544   5.663   4.356
 8733SOL    MW435253   4.489   5.672   4.424
 8734SOL     OW35254   4.251   6.906   4.186
 8734SOL    HW235255   4.244   6.938   4.276
 8734SOL    HW335256   4.161   6.890   4.158
 8734SOL    MW435257   4.239   6.908   4.193
 8735SOL     OW35258   4.846   7.299   5.095
 8735SOL    HW235259   4.766   7.284   5.045
 8735SOL    HW335260   4.853   7.394   5.102
 8735SOL    MW435261   4.837   7.310   5.089
 8736SOL     OW35262   4.960   7.264   4.585
 8736SOL    HW235263   5.007   7.337   4.544
 8736SOL    HW335264   4.881   7.303   4.621
 8736SOL    MW435265   4.955   7.279   4.584
 8737SOL     OW35266   5.368   7.359   4.860
 8737SOL    HW235267   5.411   7.329   4.940
 8737SOL    HW335268   5.287   7.307   4.857
 8737SOL    MW435269   5.363   7.348   4.870
 8738SOL     OW35270   4.453   6.323   5.567
 8738SOL    HW235271   4.523   6.265   5.539
 8738SOL    HW335272   4.396   6.268   5.622
 8738SOL    MW435273   4.455   6.310   5.571
 8739SOL     OW35274   5.240   6.535   5.200
 8739SOL    HW235275   5.245   6.588   5.280
 8739SOL    HW335276   5.202   6.452   5.228
 8739SOL    MW435277   5.236   6.530   5.215
 8740SOL     OW35278   4.880   5.670   5.446
 8740SOL    HW235279   4.875   5.577   5.427
 8740SOL    HW335280   4.963   5.681   5.492
 8740SOL    MW435281   4.888   5.659   5.450
 8741SOL     OW35282   4.254   6.190   3.900
 8741SOL    HW235283   4.220   6.246   3.970
 8741SOL    HW335284   4.325   6.140   3.940
 8741SOL    MW435285   4.260   6.191   3.914
 8742SOL     OW35286   5.350   6.941   4.722
 8742SOL    HW235287   5.385   6.923   4.635
 8742SOL    HW335288   5.255   6.942   4.709
 8742SOL    MW435289   5.342   6.938   4.709
 8743SOL     OW35290   4.779   6.589   5.091
 8743SOL    HW235291   4.822   6.624   5.169
 8743SOL    HW335292   4.762   6.666   5.037
 8743SOL    MW435293   4.782   6.604   5.094
 8744SOL     OW35294   5.310   6.076   3.964
 8744SOL    HW235295   5.302   6.147   3.901
 8744SOL    HW335296   5.328   6.120   4.047
 8744SOL    MW435297   5.311   6.090   3.966
 8745SOL     OW35298   4.170   5.731   4.393
 8745SOL    HW235299   4.220   5.774   4.324
 8745SOL    HW335300   4.085   5.775   4.393
 8745SOL    MW435301   4.167   5.744   4.384
 8746SOL     OW35302   3.929   6.793   5.253
 8746SOL    HW235303   3.957   6.746   5.331
 8746SOL    HW335304   3.850   6.748   5.224
 8746SOL    MW435305   3.922   6.782   5.259
 8747SOL     OW35306   4.437   6.120   5.220
 8747SOL    HW235307   4.409   6.208   5.244
 8747SOL    HW335308   4.406   6.064   5.291
 8747SOL    MW435309   4.429   6.123   5.232
 8748SOL     OW35310   4.979   6.338   3.939
 8748SOL    HW235311   5.026   6.356   3.858
 8748SOL    HW335312   4.945   6.422   3.967
 8748SOL    MW435313   4.981   6.352   3.932
 8749SOL     OW35314   4.092   6.516   4.433
 8749SOL    HW235315   4.150   6.572   4.381
 8749SOL    HW335316   4.136   6.431   4.435
 8749SOL    MW435317   4.105   6.513   4.426
 8750SOL     OW35318   5.232   5.868   4.270
 8750SOL    HW235319   5.154   5.818   4.295
 8750SOL    HW335320   5.203   5.959   4.270
 8750SOL    MW435321   5.218   5.872   4.273
 8751SOL     OW35322   4.818   5.830   4.429
 8751SOL    HW235323   4.838   5.905   4.373
 8751SOL    HW335324   4.798   5.869   4.514
 8751SOL    MW435325   4.819   5.846   4.433
 8752SOL     OW35326   4.714   7.080   3.761
 8752SOL    HW235327   4.741   7.158   3.713
 8752SOL    HW335328   4.621   7.095   3.780
 8752SOL    MW435329   4.705   7.093   3.757
 8753SOL     OW35330   5.578   6.603   5.448
 8753SOL    HW235331   5.491   6.583   5.484
 8753SOL    HW335332   5.632   6.529   5.473
 8753SOL    MW435333   5.573   6.592   5.456
 8754SOL     OW35334   3.799   7.116   4.605
 8754SOL    HW235335   3.831   7.120   4.696
 8754SOL    HW335336   3.704   7.124   4.613
 8754SOL    MW435337   3.791   7.119   4.618
 8755SOL     OW35338   3.754   6.242   4.152
 8755SOL    HW235339   3.694   6.214   4.222
 8755SOL    HW335340   3.828   6.182   4.158
 8755SOL    MW435341   3.756   6.231   4.161
 8756SOL     OW35342   4.922   6.973   4.312
 8756SOL    HW235343   4.945   6.924   4.390
 8756SOL    HW335344   5.003   7.015   4.284
 8756SOL    MW435345   4.935   6.973   4.319
 8757SOL     OW35346   4.180   5.981   5.041
 8757SOL    HW235347   4.213   6.062   5.081
 8757SOL    HW335348   4.153   6.007   4.953
 8757SOL    MW435349   4.179   5.995   5.035
 8758SOL     OW35350   4.134   5.948   4.777
 8758SOL    HW235351   4.164   5.862   4.748
 8758SOL    HW335352   4.039   5.941   4.780
 8758SOL    MW435353   4.126   5.937   4.775
 8759SOL     OW35354   4.963   6.157   5.468
 8759SOL    HW235355   5.015   6.092   5.421
 8759SOL    HW335356   4.921   6.208   5.398
 8759SOL    MW435357   4.964   6.154   5.451
 8760SOL     OW35358   5.062   5.952   5.329
 8760SOL    HW235359   4.969   5.936   5.316
 8760SOL    HW335360   5.088   5.890   5.397
 8760SOL    MW435361   5.052   5.942   5.336
 8761SOL     OW35362   4.277   5.726   4.668
 8761SOL    HW235363   4.287   5.635   4.694
 8761SOL    HW335364   4.233   5.722   4.583
 8761SOL    MW435365   4.273   5.714   4.660
 8762SOL     OW35366   4.371   7.341   5.214
 8762SOL    HW235367   4.288   7.326   5.259
 8762SOL    HW335368   4.430   7.274   5.249
 8762SOL    MW435369   4.369   7.331   5.224
 8763SOL     OW35370   5.428   6.048   4.839
 8763SOL    HW235371   5.361   6.081   4.899
 8763SOL    HW335372   5.471   6.126   4.805
 8763SOL    MW435373   5.426   6.063   4.843
 8764SOL     OW35374   5.606   6.768   4.809
 8764SOL    HW235375   5.599   6.708   4.734
 8764SOL    HW335376   5.532   6.828   4.798
 8764SOL    MW435377   5.596   6.768   4.798
 8765SOL     OW35378   4.988   6.630   4.727
 8765SOL    HW235379   5.002   6.602   4.818
 8765SOL    HW335380   5.074   6.661   4.699
 8765SOL    MW435381   5.001   6.631   4.736
 8766SOL     OW35382   5.071   6.125   5.006
 8766SOL    HW235383   5.092   6.126   4.913
 8766SOL    HW335384   5.116   6.047   5.039
 8766SOL    MW435385   5.078   6.115   4.998
 8767SOL     OW35386   5.564   6.256   5.548
 8767SOL    HW235387   5.601   6.201   5.617
 8767SOL    HW335388   5.589   6.213   5.466
 8767SOL    MW435389   5.571   6.244   5.547
 8768SOL     OW35390   5.111   6.554   5.600
 8768SOL    HW235391   5.177   6.502   5.554
 8768SOL    HW335392   5.131   6.541   5.693
 8768SOL    MW435393   5.122   6.545   5.607
 8769SOL     OW35394   5.062   5.640   3.948
 8769SOL    HW235395   5.136   5.684   3.991
 8769SOL    HW335396   4.986   5.694   3.970
 8769SOL    MW435397   5.062   5.652   3.956
 8770SOL     OW35398   5.122   6.415   4.226
 8770SOL    HW235399   5.037   6.385   4.196
 8770SOL    HW335400   5.114   6.422   4.321
 8770SOL    MW435401   5.110   6.413   4.235
 8771SOL     OW35402   4.198   6.878   4.957
 8771SOL    HW235403   4.210   6.905   5.048
 8771SOL    HW335404   4.179   6.959   4.910
 8771SOL    MW435405   4.197   6.893   4.962
 8772SOL     OW35406   4.482   5.858   4.780
 8772SOL    HW235407   4.455   5.860   4.871
 8772SOL    HW335408   4.412   5.810   4.735
 8772SOL    MW435409   4.470   5.854   4.787
 8773SOL     OW35410   4.336   7.350   4.942
 8773SOL    HW235411   4.388   7.427   4.919
 8773SOL    HW335412   4.345   7.342   5.037
 8773SOL    MW435413   4.345   7.357   4.953
 8774SOL     OW35414   5.238   6.935   5.174
 8774SOL    HW235415   5.223   6.864   5.237
 8774SOL    HW335416   5.284   6.893   5.102
 8774SOL    MW435417   5.244   6.919   5.174
 8775SOL     OW35418   4.312   6.666   5.291
 8775SOL    HW235419   4.349   6.671   5.203
 8775SOL    HW335420   4.351   6.739   5.338
 8775SOL    MW435421   4.322   6.676   5.286
 8776SOL     OW35422   4.492   6.709   5.103
 8776SOL    HW235423   4.551   6.655   5.156
 8776SOL    HW335424   4.507   6.681   5.013
 8776SOL    MW435425   4.502   6.698   5.099
 8777SOL     OW35426   4.495   6.081   3.952
 8777SOL    HW235427   4.568   6.130   3.915
 8777SOL    HW335428   4.511   5.990   3.926
 8777SOL    MW435429   4.507   6.076   3.945
 8778SOL     OW35430   5.303   7.198   5.275
 8778SOL    HW235431   5.345   7.183   5.360
 8778SOL    HW335432   5.294   7.111   5.237
 8778SOL    MW435433   5.307   7.186   5.282
 8779SOL     OW35434   4.963   5.677   4.866
 8779SOL    HW235435   5.018   5.686   4.788
 8779SOL    HW335436   5.018   5.711   4.937
 8779SOL    MW435437   4.977   5.682   4.865
 8780SOL     OW35438   3.970   6.590   4.050
 8780SOL    HW235439   3.907   6.606   3.979
 8780SOL    HW335440   3.917   6.553   4.121
 8780SOL    MW435441   3.955   6.587   4.050
 8781SOL     OW35442   4.326   6.944   3.909
 8781SOL    HW235443   4.341   6.920   4.001
 8781SOL    HW335444   4.234   6.922   3.893
 8781SOL    MW435445   4.316   6.937   3.919
 8782SOL     OW35446   4.865   7.175   4.061
 8782SOL    HW235447   4.873   7.093   4.012
 8782SOL    HW335448   4.784   7.214   4.028
 8782SOL    MW435449   4.855   7.170   4.051
 8783SOL     OW35450   4.124   7.333   4.630
 8783SOL    HW235451   4.128   7.244   4.665
 8783SOL    HW335452   4.150   7.324   4.539
 8783SOL    MW435453   4.127   7.321   4.622
 8784SOL     OW35454   4.741   6.811   4.873
 8784SOL    HW235455   4.673   6.745   4.889
 8784SOL    HW335456   4.759   6.805   4.780
 8784SOL    MW435457   4.734   6.802   4.864
 8785SOL     OW35458   3.830   7.086   5.124
 8785SOL    HW235459   3.820   7.044   5.210
 8785SOL    HW335460   3.751   7.139   5.114
 8785SOL    MW435461   3.819   7.087   5.135
 8786SOL     OW35462   4.734   5.950   4.694
 8786SOL    HW235463   4.664   5.902   4.739
 8786SOL    HW335464   4.766   6.013   4.758
 8786SOL    MW435465   4.729   5.952   4.708
 8787SOL     OW35466   4.385   6.386   5.314
 8787SOL    HW235467   4.378   6.481   5.302
 8787SOL    HW335468   4.394   6.375   5.409
 8787SOL    MW435469   4.386   6.398   5.324
 8788SOL     OW35470   4.106   6.901   5.572
 8788SOL    HW235471   4.178   6.903   5.509
 8788SOL    HW335472   4.076   6.810   5.571
 8788SOL    MW435473   4.111   6.890   5.564
 8789SOL     OW35474   5.190   5.664   5.039
 8789SOL    HW235475   5.261   5.610   5.003
 8789SOL    HW335476   5.189   5.643   5.132
 8789SOL    MW435477   5.199   5.655   5.047
 8790SOL     OW35478   5.390   7.194   5.523
 8790SOL    HW235479   5.363   7.191   5.614
 8790SOL    HW335480   5.486   7.198   5.526
 8790SOL    MW435481   5.400   7.194   5.535
 8791SOL     OW35482   4.201   6.056   4.507
 8791SOL    HW235483   4.272   6.004   4.470
 8791SOL    HW335484   4.187   6.021   4.594
 8791SOL    MW435485   4.209   6.045   4.514
 8792SOL     OW35486   4.517   7.149   4.583
 8792SOL    HW235487   4.445   7.086   4.596
 8792SOL    HW335488   4.478   7.234   4.601
 8792SOL    MW435489   4.501   7.152   4.586
 8793SOL     OW35490   4.837   5.997   4.231
 8793SOL    HW235491   4.859   5.934   4.163
 8793SOL    HW335492   4.742   5.989   4.242
 8793SOL    MW435493   4.827   5.988   4.223
 8794SOL     OW35494   3.753   6.154   5.306
 8794SOL    HW235495   3.817   6.220   5.281
 8794SOL    HW335496   3.672   6.181   5.263
 8794SOL    MW435497   3.751   6.166   5.298
 8795SOL     OW35498   5.491   7.061   4.263
 8795SOL    HW235499   5.461   6.994   4.324
 8795SOL    HW335500   5.585   7.067   4.277
 8795SOL    MW435501   5.499   7.053   4.273
 8796SOL     OW35502   5.047   6.738   4.193
 8796SOL    HW235503   5.019   6.824   4.226
 8796SOL    HW335504   5.075   6.754   4.103
 8796SOL    MW435505   5.047   6.752   4.185
 8797SOL     OW35506   4.709   5.658   4.246
 8797SOL    HW235507   4.746   5.717   4.311
 8797SOL    HW335508   4.686   5.714   4.172
 8797SOL    MW435509   4.710   5.673   4.245
 8798SOL     OW35510   5.562   6.540   4.668
 8798SOL    HW235511   5.553   6.572   4.579
 8798SOL    HW335512   5.515   6.456   4.668
 8798SOL    MW435513   5.555   6.533   4.658
 8799SOL     OW35514   3.938   6.380   5.247
 8799SOL    HW235515   3.959   6.449   5.185
 8799SOL    HW335516   4.018   6.327   5.252
 8799SOL    MW435517   3.951   6.381   5.241
 8800SOL     OW35518   5.474   6.471   4.369
 8800SOL    HW235519   5.568   6.460   4.357
 8800SOL    HW335520   5.450   6.543   4.310
 8800SOL    MW435521   5.484   6.479   4.360
 8801SOL     OW35522   3.923   6.395   5.514
 8801SOL    HW235523   3.849   6.339   5.540
 8801SOL    HW335524   3.918   6.398   5.419
 8801SOL    MW435525   3.912   6.388   5.504
 8802SOL     OW35526   4.089   5.682   4.964
 8802SOL    HW235527   4.132   5.766   4.984
 8802SOL    HW335528   4.162   5.620   4.957
 8802SOL    MW435529   4.104   5.685   4.965
 8803SOL     OW35530   4.130   6.349   4.142
 8803SOL    HW235531   4.130   6.444   4.127
 8803SOL    HW335532   4.207   6.333   4.196
 8803SOL    MW435533   4.140   6.360   4.147
 8804SOL     OW35534   4.906   6.208   5.206
 8804SOL    HW235535   4.942   6.181   5.122
 8804SOL    HW335536   4.819   6.242   5.185
 8804SOL    MW435537   4.900   6.209   5.193
 8805SOL     OW35538   3.889   6.080   4.431
 8805SOL    HW235539   3.951   6.087   4.504
 8805SOL    HW335540   3.889   5.987   4.408
 8805SOL    MW435541   3.897   6.069   4.438
 8806SOL     OW35542   4.571   6.341   4.915
 8806SOL    HW235543   4.529   6.259   4.891
 8806SOL    HW335544   4.572   6.340   5.011
 8806SOL    MW435545   4.564   6.330   4.924
 8807SOL     OW35546   4.375   5.811   5.020
 8807SOL    HW235547   4.306   5.874   5.041
 8807SOL    HW335548   4.402   5.775   5.105
 8807SOL    MW435549   4.369   5.814   5.033
 8808SOL     OW35550   3.758   6.652   3.889
 8808SOL    HW235551   3.727   6.717   3.952
 8808SOL    HW335552   3.707   6.574   3.908
 8808SOL    MW435553   3.748   6.649   3.899
 8809SOL     OW35554   5.170   5.664   4.637
 8809SOL    HW235555   5.258   5.673   4.674
 8809SOL    HW335556   5.180   5.605   4.563
 8809SOL    MW435557   5.184   5.658   4.631
 8810SOL     OW35558   5.202   6.403   4.481
 8810SOL    HW235559   5.282   6.418   4.430
 8810SOL    HW335560   5.195   6.308   4.487
 8810SOL    MW435561   5.211   6.392   4.476
 8811SOL     OW35562   4.342   7.452   3.831
 8811SOL    HW235563   4.247   7.452   3.823
 8811SOL    HW335564   4.358   7.398   3.909
 8811SOL    MW435565   4.332   7.446   3.840
 8812SOL     OW35566   4.652   6.329   5.178
 8812SOL    HW235567   4.721   6.396   5.175
 8812SOL    HW335568   4.585   6.367   5.234
 8812SOL    MW435569   4.653   6.342   5.185
 8813SOL     OW35570   4.070   6.629   5.426
 8813SOL    HW235571   4.024   6.545   5.428
 8813SOL    HW335572   4.127   6.623   5.350
 8813SOL    MW435573   4.072   6.617   5.418
 8814SOL     OW35574   5.187   6.272   3.747
 8814SOL    HW235575   5.115   6.248   3.689
 8814SOL    HW335576   5.253   6.309   3.689
 8814SOL    MW435577   5.186   6.274   3.732
 8815SOL     OW35578   4.321   7.004   4.427
 8815SOL    HW235579   4.386   6.937   4.448
 8815SOL    HW335580   4.373   7.081   4.404
 8815SOL    MW435581   4.336   7.006   4.426
 8816SOL     OW35582   4.582   6.169   4.557
 8816SOL    HW235583   4.522   6.187   4.629
 8816SOL    HW335584   4.616   6.081   4.576
 8816SOL    MW435585   4.578   6.159   4.570
 8817SOL     OW35586   5.523   5.668   5.226
 8817SOL    HW235587   5.444   5.714   5.254
 8817SOL    HW335588   5.558   5.722   5.155
 8817SOL    MW435589   5.517   5.681   5.220
 8818SOL     OW35590   4.807   6.752   4.576
 8818SOL    HW235591   4.899   6.733   4.594
 8818SOL    HW335592   4.780   6.682   4.516
 8818SOL    MW435593   4.815   6.740   4.570
 8819SOL     OW35594   4.600   6.572   3.931
 8819SOL    HW235595   4.586   6.484   3.896
 8819SOL    HW335596   4.551   6.629   3.872
 8819SOL    MW435597   4.592   6.567   3.919
 8820SOL     OW35598   5.081   6.990   4.672
 8820SOL    HW235599   5.054   7.074   4.637
 8820SOL    HW335600   5.041   6.985   4.759
 8820SOL    MW435601   5.074   6.999   4.678
 8821SOL     OW35602   5.000   6.938   4.940
 8821SOL    HW235603   5.011   6.905   5.029
 8821SOL    HW335604   4.919   6.897   4.909
 8821SOL    MW435605   4.990   6.930   4.946
 8822SOL     OW35606   4.013   6.296   4.710
 8822SOL    HW235607   3.963   6.295   4.791
 8822SOL    HW335608   4.033   6.388   4.694
 8822SOL    MW435609   4.009   6.308   4.718
 8823SOL     OW35610   5.080   7.060   5.472
 8823SOL    HW235611   5.080   7.154   5.488
 8823SOL    HW335612   5.125   7.050   5.388
 8823SOL    MW435613   5.086   7.070   5.463
 8824SOL     OW35614   5.319   5.778   4.033
 8824SOL    HW235615   5.312   5.782   4.128
 8824SOL    HW335616   5.331   5.869   4.006
 8824SOL    MW435617   5.320   5.791   4.041
 8825SOL     OW35618   4.608   6.341   4.147
 8825SOL    HW235619   4.588   6.327   4.054
 8825SOL    HW335620   4.701   6.320   4.154
 8825SOL    MW435621   4.618   6.336   4.136
 8826SOL     OW35622   3.935   5.964   5.451
 8826SOL    HW235623   3.892   6.023   5.388
 8826SOL    HW335624   4.003   6.019   5.491
 8826SOL    MW435625   3.939   5.979   5.448
 8827SOL     OW35626   5.047   6.584   4.996
 8827SOL    HW235627   5.110   6.581   5.069
 8827SOL    HW335628   4.963   6.602   5.038
 8827SOL    MW435629   5.043   6.586   5.011
 8828SOL     OW35630   4.591   7.299   4.185
 8828SOL    HW235631   4.649   7.370   4.212
 8828SOL    HW335632   4.614   7.227   4.243
 8828SOL    MW435633   4.602   7.299   4.196
 8829SOL     OW35634   5.386   5.761   4.775
 8829SOL    HW235635   5.431   5.679   4.794
 8829SOL    HW335636   5.406   5.817   4.851
 8829SOL    MW435637   5.396   5.757   4.787
 8830SOL     OW35638   3.834   5.604   4.874
 8830SOL    HW235639   3.825   5.605   4.779
 8830SOL    HW335640   3.928   5.616   4.889
 8830SOL    MW435641   3.846   5.607   4.865
 8831SOL     OW35642   5.471   6.797   4.494
 8831SOL    HW235643   5.450   6.743   4.417
 8831SOL    HW335644   5.567   6.795   4.498
 8831SOL    MW435645   5.480   6.790   4.483
 8832SOL     OW35646   4.163   6.942   5.237
 8832SOL    HW235647   4.084   6.892   5.260
 8832SOL    HW335648   4.233   6.901   5.287
 8832SOL    MW435649   4.161   6.930   5.247
 8833SOL     OW35650   4.047   5.731   3.920
 8833SOL    HW235651   3.976   5.786   3.888
 8833SOL    HW335652   4.089   5.697   3.841
 8833SOL    MW435653   4.043   5.733   3.906
 8834SOL     OW35654   5.171   6.228   4.756
 8834SOL    HW235655   5.094   6.274   4.722
 8834SOL    HW335656   5.228   6.297   4.790
 8834SOL    MW435657   5.168   6.243   4.756
 8835SOL     OW35658   3.837   7.087   3.958
 8835SOL    HW235659   3.854   7.171   4.000
 8835SOL    HW335660   3.872   7.096   3.870
 8835SOL    MW435661   3.842   7.100   3.952
 8836SOL     OW35662   5.109   7.176   4.175
 8836SOL    HW235663   5.172   7.166   4.104
 8836SOL    HW335664   5.026   7.196   4.130
 8836SOL    MW435665   5.106   7.177   4.160
 8837SOL     OW35666   5.472   6.444   5.862
 8837SOL    HW235667   5.513   6.386   5.927
 8837SOL    HW335668   5.379   6.436   5.879
 8837SOL    MW435669   5.466   6.436   5.872
 8838SOL     OW35670   4.266   6.627   6.091
 8838SOL    HW235671   4.356   6.602   6.075
 8838SOL    HW335672   4.262   6.720   6.068
 8838SOL    MW435673   4.278   6.636   6.086
 8839SOL     OW35674   5.382   7.330   6.233
 8839SOL    HW235675   5.394   7.276   6.311
 8839SOL    HW335676   5.419   7.278   6.162
 8839SOL    MW435677   5.388   7.315   6.234
 8840SOL     OW35678   4.550   6.083   6.104
 8840SOL    HW235679   4.525   6.171   6.132
 8840SOL    HW335680   4.547   6.086   6.008
 8840SOL    MW435681   4.546   6.095   6.096
 8841SOL     OW35682   3.992   6.111   6.032
 8841SOL    HW235683   4.024   6.199   6.014
 8841SOL    HW335684   3.980   6.109   6.127
 8841SOL    MW435685   3.995   6.123   6.044
 8842SOL     OW35686   4.391   5.866   6.119
 8842SOL    HW235687   4.449   5.942   6.121
 8842SOL    HW335688   4.326   5.887   6.052
 8842SOL    MW435689   4.390   5.878   6.110
 8843SOL     OW35690   4.478   6.793   6.294
 8843SOL    HW235691   4.558   6.796   6.346
 8843SOL    HW335692   4.506   6.760   6.208
 8843SOL    MW435693   4.492   6.789   6.289
 8844SOL     OW35694   4.255   6.297   6.285
 8844SOL    HW235695   4.240   6.217   6.336
 8844SOL    HW335696   4.337   6.332   6.319
 8844SOL    MW435697   4.263   6.289   6.297
 8845SOL     OW35698   4.397   6.123   6.662
 8845SOL    HW235699   4.303   6.119   6.680
 8845SOL    HW335700   4.427   6.032   6.671
 8845SOL    MW435701   4.388   6.111   6.665
 8846SOL     OW35702   4.143   6.537   6.566
 8846SOL    HW235703   4.098   6.544   6.482
 8846SOL    HW335704   4.123   6.620   6.610
 8846SOL    MW435705   4.135   6.549   6.560
 8847SOL     OW35706   3.840   7.383   6.441
 8847SOL    HW235707   3.929   7.375   6.476
 8847SOL    HW335708   3.804   7.295   6.446
 8847SOL    MW435709   3.847   7.370   6.446
 8848SOL     OW35710   5.105   6.775   5.810
 8848SOL    HW235711   5.023   6.811   5.776
 8848SOL    HW335712   5.173   6.818   5.759
 8848SOL    MW435713   5.103   6.785   5.798
 8849SOL     OW35714   4.666   6.554   6.286
 8849SOL    HW235715   4.580   6.541   6.326
 8849SOL    HW335716   4.719   6.481   6.318
 8849SOL    MW435717   4.662   6.543   6.295
 8850SOL     OW35718   4.657   6.916   6.003
 8850SOL    HW235719   4.634   6.978   6.071
 8850SOL    HW335720   4.614   6.834   6.029
 8850SOL    MW435721   4.649   6.912   6.014
 8851SOL     OW35722   4.154   5.889   5.971
 8851SOL    HW235723   4.128   5.851   5.887
 8851SOL    HW335724   4.091   5.959   5.987
 8851SOL    MW435725   4.143   5.892   5.962
 8852SOL     OW35726   3.989   6.850   6.008
 8852SOL    HW235727   3.937   6.918   5.964
 8852SOL    HW335728   3.986   6.776   5.948
 8852SOL    MW435729   3.981   6.849   5.995
 8853SOL     OW35730   4.651   7.313   5.786
 8853SOL    HW235731   4.606   7.329   5.869
 8853SOL    HW335732   4.582   7.278   5.728
 8853SOL    MW435733   4.637   7.310   5.788
 8854SOL     OW35734   5.586   6.086   5.761
 8854SOL    HW235735   5.495   6.088   5.789
 8854SOL    HW335736   5.631   6.148   5.819
 8854SOL    MW435737   5.579   6.094   5.771
 8855SOL     OW35738   5.331   6.689   6.111
 8855SOL    HW235739   5.241   6.689   6.146
 8855SOL    HW335740   5.324   6.735   6.028
 8855SOL    MW435741   5.318   6.695   6.105
 8856SOL     OW35742   3.872   7.204   6.735
 8856SOL    HW235743   3.855   7.150   6.812
 8856SOL    HW335744   3.860   7.294   6.765
 8856SOL    MW435745   3.869   7.208   6.749
 8857SOL     OW35746   5.238   6.667   6.503
 8857SOL    HW235747   5.241   6.601   6.434
 8857SOL    HW335748   5.323   6.710   6.499
 8857SOL    MW435749   5.250   6.663   6.494
 8858SOL     OW35750   4.858   6.270   6.072
 8858SOL    HW235751   4.884   6.294   5.983
 8858SOL    HW335752   4.840   6.177   6.068
 8858SOL    MW435753   4.860   6.262   6.059
 8859SOL     OW35754   5.523   6.890   5.923
 8859SOL    HW235755   5.479   6.931   5.998
 8859SOL    HW335756   5.580   6.958   5.888
 8859SOL    MW435757   5.525   6.904   5.928
 8860SOL     OW35758   4.179   7.306   6.241
 8860SOL    HW235759   4.211   7.394   6.219
 8860SOL    HW335760   4.132   7.278   6.163
 8860SOL    MW435761   4.178   7.314   6.228
 8861SOL     OW35762   5.563   5.668   6.290
 8861SOL    HW235763   5.617   5.619   6.352
 8861SOL    HW335764   5.506   5.602   6.251
 8861SOL    MW435765   5.563   5.652   6.292
 8862SOL     OW35766   4.682   5.621   6.703
 8862SOL    HW235767   4.641   5.699   6.665
 8862SOL    HW335768   4.776   5.639   6.698
 8862SOL    MW435769   4.688   5.633   6.698
 8863SOL     OW35770   5.299   7.174   5.789
 8863SOL    HW235771   5.347   7.243   5.835
 8863SOL    HW335772   5.220   7.218   5.758
 8863SOL    MW435773   5.294   7.188   5.792
 8864SOL     OW35774   4.697   6.299   5.733
 8864SOL    HW235775   4.699   6.246   5.654
 8864SOL    HW335776   4.785   6.336   5.739
 8864SOL    MW435777   4.709   6.298   5.722
 8865SOL     OW35778   5.311   6.225   6.069
 8865SOL    HW235779   5.350   6.225   6.156
 8865SOL    HW335780   5.252   6.301   6.069
 8865SOL    MW435781   5.308   6.236   6.080
 8866SOL     OW35782   4.797   6.218   6.792
 8866SOL    HW235783   4.872   6.247   6.739
 8866SOL    HW335784   4.729   6.283   6.776
 8866SOL    MW435785   4.798   6.230   6.782
 8867SOL     OW35786   5.498   6.111   6.235
 8867SOL    HW235787   5.587   6.080   6.252
 8867SOL    HW335788   5.441   6.051   6.283
 8867SOL    MW435789   5.501   6.099   6.244
 8868SOL     OW35790   3.924   5.825   6.264
 8868SOL    HW235791   3.915   5.765   6.190
 8868SOL    HW335792   3.857   5.796   6.327
 8868SOL    MW435793   3.914   5.812   6.262
 8869SOL     OW35794   4.867   6.918   5.825
 8869SOL    HW235795   4.817   6.920   5.907
 8869SOL    HW335796   4.801   6.936   5.757
 8869SOL    MW435797   4.853   6.920   5.827
 8870SOL     OW35798   3.871   5.998   6.627
 8870SOL    HW235799   3.843   6.089   6.636
 8870SOL    HW335800   3.808   5.959   6.566
 8870SOL    MW435801   3.858   6.004   6.621
 8871SOL     OW35802   4.330   7.336   5.933
 8871SOL    HW235803   4.251   7.294   5.966
 8871SOL    HW335804   4.396   7.319   6.000
 8871SOL    MW435805   4.329   7.328   5.946
 8872SOL     OW35806   4.466   6.751   5.640
 8872SOL    HW235807   4.388   6.697   5.627
 8872SOL    HW335808   4.437   6.824   5.693
 8872SOL    MW435809   4.452   6.753   5.645
 8873SOL     OW35810   5.047   7.267   5.708
 8873SOL    HW235811   4.973   7.230   5.758
 8873SOL    HW335812   5.055   7.357   5.741
 8873SOL    MW435813   5.038   7.274   5.720
 8874SOL     OW35814   5.271   6.941   5.650
 8874SOL    HW235815   5.218   6.990   5.586
 8874SOL    HW335816   5.302   7.007   5.711
 8874SOL    MW435817   5.269   6.955   5.648
 8875SOL     OW35818   4.496   5.830   5.705
 8875SOL    HW235819   4.444   5.750   5.693
 8875SOL    HW335820   4.583   5.807   5.673
 8875SOL    MW435821   4.499   5.816   5.699
 8876SOL     OW35822   4.002   6.701   6.756
 8876SOL    HW235823   4.055   6.776   6.781
 8876SOL    HW335824   3.921   6.739   6.722
 8876SOL    MW435825   3.998   6.716   6.756
 8877SOL     OW35826   4.542   6.605   6.744
 8877SOL    HW235827   4.570   6.514   6.756
 8877SOL    HW335828   4.471   6.599   6.680
 8877SOL    MW435829   4.535   6.593   6.739
 8878SOL     OW35830   3.857   6.470   6.162
 8878SOL    HW235831   3.948   6.485   6.189
 8878SOL    HW335832   3.860   6.391   6.108
 8878SOL    MW435833   3.869   6.462   6.160
 8879SOL     OW35834   4.484   7.402   6.536
 8879SOL    HW235835   4.573   7.417   6.566
 8879SOL    HW335836   4.479   7.449   6.452
 8879SOL    MW435837   4.494   7.410   6.529
 8880SOL     OW35838   3.865   7.082   6.201
 8880SOL    HW235839   3.837   7.121   6.283
 8880SOL    HW335840   3.885   6.991   6.223
 8880SOL    MW435841   3.863   7.074   6.214
 8881SOL     OW35842   4.698   7.125   6.236
 8881SOL    HW235843   4.781   7.079   6.220
 8881SOL    HW335844   4.688   7.124   6.332
 8881SOL    MW435845   4.708   7.118   6.246
 8882SOL     OW35846   5.530   6.270   6.550
 8882SOL    HW235847   5.619   6.300   6.532
 8882SOL    HW335848   5.510   6.210   6.479
 8882SOL    MW435849   5.539   6.267   6.539
 8883SOL     OW35850   4.431   7.182   5.641
 8883SOL    HW235851   4.371   7.251   5.611
 8883SOL    HW335852   4.376   7.124   5.694
 8883SOL    MW435853   4.415   7.184   5.643
 8884SOL     OW35854   4.869   5.827   5.864
 8884SOL    HW235855   4.802   5.803   5.801
 8884SOL    HW335856   4.934   5.876   5.813
 8884SOL    MW435857   4.869   5.829   5.849
 8885SOL     OW35858   4.936   6.349   6.572
 8885SOL    HW235859   4.949   6.443   6.582
 8885SOL    HW335860   4.897   6.339   6.486
 8885SOL    MW435861   4.932   6.360   6.562
 8886SOL     OW35862   4.388   6.544   6.376
 8886SOL    HW235863   4.299   6.535   6.409
 8886SOL    HW335864   4.392   6.634   6.344
 8886SOL    MW435865   4.377   6.555   6.376
 8887SOL     OW35866   5.187   6.127   6.371
 8887SOL    HW235867   5.132   6.048   6.370
 8887SOL    HW335868   5.169   6.168   6.455
 8887SOL    MW435869   5.177   6.122   6.380
 8888SOL     OW35870   4.806   6.331   6.328
 8888SOL    HW235871   4.743   6.263   6.352
 8888SOL    HW335872   4.826   6.312   6.236
 8888SOL    MW435873   4.800   6.318   6.320
 8889SOL     OW35874   4.062   7.226   6.030
 8889SOL    HW235875   4.023   7.273   5.956
 8889SOL    HW335876   3.996   7.161   6.055
 8889SOL    MW435877   4.049   7.224   6.024
 8890SOL     OW35878   4.554   6.635   6.054
 8890SOL    HW235879   4.556   6.609   5.961
 8890SOL    HW335880   4.612   6.572   6.097
 8890SOL    MW435881   4.562   6.624   6.048
 8891SOL     OW35882   5.111   7.403   6.256
 8891SOL    HW235883   5.054   7.356   6.195
 8891SOL    HW335884   5.197   7.364   6.243
 8891SOL    MW435885   5.114   7.394   6.246
 8892SOL     OW35886   5.064   5.879   6.387
 8892SOL    HW235887   5.092   5.811   6.448
 8892SOL    HW335888   4.978   5.850   6.357
 8892SOL    MW435889   5.057   5.866   6.391
 8893SOL     OW35890   3.869   6.813   6.321
 8893SOL    HW235891   3.933   6.845   6.384
 8893SOL    HW335892   3.918   6.749   6.269
 8893SOL    MW435893   3.884   6.809   6.322
 8894SOL     OW35894   5.044   5.983   5.722
 8894SOL    HW235895   5.017   6.049   5.658
 8894SOL    HW335896   5.114   6.026   5.772
 8894SOL    MW435897   5.049   5.996   5.719
 8895SOL     OW35898   4.712   5.688   5.659
 8895SOL    HW235899   4.768   5.680   5.581
 8895SOL    HW335900   4.689   5.598   5.681
 8895SOL    MW435901   4.717   5.675   5.652
 8896SOL     OW35902   5.217   6.539   5.864
 8896SOL    HW235903   5.184   6.628   5.854
 8896SOL    HW335904   5.182   6.510   5.949
 8896SOL    MW435905   5.207   6.548   5.875
 8897SOL     OW35906   4.147   7.126   6.693
 8897SOL    HW235907   4.192   7.188   6.750
 8897SOL    HW335908   4.054   7.145   6.706
 8897SOL    MW435909   4.140   7.136   6.700
 8898SOL     OW35910   4.569   7.194   6.801
 8898SOL    HW235911   4.593   7.183   6.710
 8898SOL    HW335912   4.492   7.251   6.799
 8898SOL    MW435913   4.561   7.199   6.790
 8899SOL     OW35914   4.211   6.577   5.656
 8899SOL    HW235915   4.134   6.590   5.712
 8899SOL    HW335916   4.175   6.541   5.575
 8899SOL    MW435917   4.197   6.573   5.653
 8900SOL     OW35918   4.864   6.550   5.899
 8900SOL    HW235919   4.774   6.571   5.874
 8900SOL    HW335920   4.891   6.623   5.955
 8900SOL    MW435921   4.856   6.562   5.902
 8901SOL     OW35922   4.364   6.899   6.591
 8901SOL    HW235923   4.357   6.878   6.685
 8901SOL    HW335924   4.282   6.867   6.554
 8901SOL    MW435925   4.352   6.893   6.598
 8902SOL     OW35926   4.493   5.666   6.306
 8902SOL    HW235927   4.422   5.727   6.288
 8902SOL    HW335928   4.544   5.663   6.225
 8902SOL    MW435929   4.489   5.672   6.293
 8903SOL     OW35930   4.251   6.906   6.055
 8903SOL    HW235931   4.244   6.938   6.145
 8903SOL    HW335932   4.161   6.890   6.027
 8903SOL    MW435933   4.239   6.908   6.062
 8904SOL     OW35934   4.960   7.264   6.454
 8904SOL    HW235935   5.007   7.337   6.413
 8904SOL    HW335936   4.881   7.303   6.490
 8904SOL    MW435937   4.955   7.279   6.453
 8905SOL     OW35938   4.254   6.190   5.769
 8905SOL    HW235939   4.220   6.246   5.839
 8905SOL    HW335940   4.325   6.140   5.809
 8905SOL    MW435941   4.260   6.191   5.783
 8906SOL     OW35942   5.350   6.941   6.591
 8906SOL    HW235943   5.385   6.923   6.504
 8906SOL    HW335944   5.255   6.942   6.578
 8906SOL    MW435945   5.342   6.938   6.578
 8907SOL     OW35946   5.310   6.076   5.833
 8907SOL    HW235947   5.302   6.147   5.770
 8907SOL    HW335948   5.328   6.120   5.916
 8907SOL    MW435949   5.311   6.090   5.835
 8908SOL     OW35950   4.170   5.731   6.262
 8908SOL    HW235951   4.220   5.774   6.193
 8908SOL    HW335952   4.085   5.775   6.262
 8908SOL    MW435953   4.167   5.744   6.253
 8909SOL     OW35954   4.979   6.338   5.808
 8909SOL    HW235955   5.026   6.356   5.727
 8909SOL    HW335956   4.945   6.422   5.836
 8909SOL    MW435957   4.981   6.352   5.801
 8910SOL     OW35958   4.092   6.516   6.302
 8910SOL    HW235959   4.150   6.572   6.250
 8910SOL    HW335960   4.136   6.431   6.304
 8910SOL    MW435961   4.105   6.513   6.295
 8911SOL     OW35962   5.232   5.868   6.139
 8911SOL    HW235963   5.154   5.818   6.164
 8911SOL    HW335964   5.203   5.959   6.139
 8911SOL    MW435965   5.218   5.872   6.142
 8912SOL     OW35966   4.818   5.830   6.298
 8912SOL    HW235967   4.838   5.905   6.242
 8912SOL    HW335968   4.798   5.869   6.383
 8912SOL    MW435969   4.819   5.846   6.302
 8913SOL     OW35970   4.714   7.080   5.630
 8913SOL    HW235971   4.741   7.158   5.582
 8913SOL    HW335972   4.621   7.095   5.649
 8913SOL    MW435973   4.705   7.093   5.626
 8914SOL     OW35974   3.799   7.116   6.474
 8914SOL    HW235975   3.831   7.120   6.565
 8914SOL    HW335976   3.704   7.124   6.482
 8914SOL    MW435977   3.791   7.119   6.487
 8915SOL     OW35978   3.754   6.242   6.021
 8915SOL    HW235979   3.694   6.214   6.091
 8915SOL    HW335980   3.828   6.182   6.027
 8915SOL    MW435981   3.756   6.231   6.030
 8916SOL     OW35982   4.922   6.973   6.181
 8916SOL    HW235983   4.945   6.924   6.259
 8916SOL    HW335984   5.003   7.015   6.153
 8916SOL    MW435985   4.935   6.973   6.188
 8917SOL     OW35986   4.134   5.948   6.646
 8917SOL    HW235987   4.164   5.862   6.617
 8917SOL    HW335988   4.039   5.941   6.649
 8917SOL    MW435989   4.126   5.937   6.644
 8918SOL     OW35990   4.277   5.726   6.537
 8918SOL    HW235991   4.287   5.635   6.563
 8918SOL    HW335992   4.233   5.722   6.452
 8918SOL    MW435993   4.273   5.714   6.529
 8919SOL     OW35994   5.428   6.048   6.708
 8919SOL    HW235995   5.361   6.081   6.768
 8919SOL    HW335996   5.471   6.126   6.674
 8919SOL    MW435997   5.426   6.063   6.712
 8920SOL     OW35998   5.606   6.768   6.678
 8920SOL    HW235999   5.599   6.708   6.603
 8920SOL    HW336000   5.532   6.828   6.667
 8920SOL    MW436001   5.596   6.768   6.667
 8921SOL     OW36002   4.988   6.630   6.596
 8921SOL    HW236003   5.002   6.602   6.687
 8921SOL    HW336004   5.074   6.661   6.568
 8921SOL    MW436005   5.001   6.631   6.605
 8922SOL     OW36006   5.062   5.640   5.817
 8922SOL    HW236007   5.136   5.684   5.860
 8922SOL    HW336008   4.986   5.694   5.839
 8922SOL    MW436009   5.062   5.652   5.825
 8923SOL     OW36010   5.122   6.415   6.095
 8923SOL    HW236011   5.037   6.385   6.065
 8923SOL    HW336012   5.114   6.422   6.190
 8923SOL    MW436013   5.110   6.413   6.104
 8924SOL     OW36014   4.482   5.858   6.649
 8924SOL    HW236015   4.455   5.860   6.740
 8924SOL    HW336016   4.412   5.810   6.604
 8924SOL    MW436017   4.470   5.854   6.656
 8925SOL     OW36018   4.495   6.081   5.821
 8925SOL    HW236019   4.568   6.130   5.784
 8925SOL    HW336020   4.511   5.990   5.795
 8925SOL    MW436021   4.507   6.076   5.814
 8926SOL     OW36022   4.963   5.677   6.735
 8926SOL    HW236023   5.018   5.686   6.657
 8926SOL    HW336024   5.018   5.711   6.806
 8926SOL    MW436025   4.977   5.682   6.734
 8927SOL     OW36026   3.970   6.590   5.919
 8927SOL    HW236027   3.907   6.606   5.848
 8927SOL    HW336028   3.917   6.553   5.990
 8927SOL    MW436029   3.955   6.587   5.919
 8928SOL     OW36030   4.326   6.944   5.778
 8928SOL    HW236031   4.341   6.920   5.870
 8928SOL    HW336032   4.234   6.922   5.762
 8928SOL    MW436033   4.316   6.937   5.788
 8929SOL     OW36034   4.865   7.175   5.930
 8929SOL    HW236035   4.873   7.093   5.881
 8929SOL    HW336036   4.784   7.214   5.897
 8929SOL    MW436037   4.855   7.170   5.920
 8930SOL     OW36038   4.124   7.333   6.499
 8930SOL    HW236039   4.128   7.244   6.534
 8930SOL    HW336040   4.150   7.324   6.408
 8930SOL    MW436041   4.127   7.321   6.491
 8931SOL     OW36042   4.741   6.811   6.742
 8931SOL    HW236043   4.673   6.745   6.758
 8931SOL    HW336044   4.759   6.805   6.649
 8931SOL    MW436045   4.734   6.802   6.733
 8932SOL     OW36046   4.734   5.950   6.563
 8932SOL    HW236047   4.664   5.902   6.608
 8932SOL    HW336048   4.766   6.013   6.627
 8932SOL    MW436049   4.729   5.952   6.577
 8933SOL     OW36050   4.201   6.056   6.376
 8933SOL    HW236051   4.272   6.004   6.339
 8933SOL    HW336052   4.187   6.021   6.463
 8933SOL    MW436053   4.209   6.045   6.383
 8934SOL     OW36054   4.517   7.149   6.452
 8934SOL    HW236055   4.445   7.086   6.465
 8934SOL    HW336056   4.478   7.234   6.470
 8934SOL    MW436057   4.501   7.152   6.455
 8935SOL     OW36058   4.837   5.997   6.100
 8935SOL    HW236059   4.859   5.934   6.032
 8935SOL    HW336060   4.742   5.989   6.111
 8935SOL    MW436061   4.827   5.988   6.092
 8936SOL     OW36062   3.922   5.687   6.032
 8936SOL    HW236063   3.993   5.708   5.971
 8936SOL    HW336064   3.876   5.615   5.990
 8936SOL    MW436065   3.926   5.681   6.018
 8937SOL     OW36066   5.491   7.061   6.132
 8937SOL    HW236067   5.461   6.994   6.193
 8937SOL    HW336068   5.585   7.067   6.146
 8937SOL    MW436069   5.499   7.053   6.142
 8938SOL     OW36070   5.047   6.738   6.062
 8938SOL    HW236071   5.019   6.824   6.095
 8938SOL    HW336072   5.075   6.754   5.972
 8938SOL    MW436073   5.047   6.752   6.054
 8939SOL     OW36074   4.709   5.658   6.115
 8939SOL    HW236075   4.746   5.717   6.180
 8939SOL    HW336076   4.686   5.714   6.041
 8939SOL    MW436077   4.710   5.673   6.114
 8940SOL     OW36078   5.562   6.540   6.537
 8940SOL    HW236079   5.553   6.572   6.448
 8940SOL    HW336080   5.515   6.456   6.537
 8940SOL    MW436081   5.555   6.533   6.527
 8941SOL     OW36082   5.474   6.471   6.238
 8941SOL    HW236083   5.568   6.460   6.226
 8941SOL    HW336084   5.450   6.543   6.179
 8941SOL    MW436085   5.484   6.479   6.229
 8942SOL     OW36086   4.130   6.349   6.011
 8942SOL    HW236087   4.130   6.444   5.996
 8942SOL    HW336088   4.207   6.333   6.065
 8942SOL    MW436089   4.140   6.360   6.016
 8943SOL     OW36090   3.889   6.080   6.300
 8943SOL    HW236091   3.951   6.087   6.373
 8943SOL    HW336092   3.889   5.987   6.277
 8943SOL    MW436093   3.897   6.069   6.307
 8944SOL     OW36094   4.571   6.341   6.784
 8944SOL    HW236095   4.529   6.259   6.760
 8944SOL    HW336096   4.572   6.340   6.880
 8944SOL    MW436097   4.564   6.330   6.793
 8945SOL     OW36098   3.758   6.652   5.758
 8945SOL    HW236099   3.727   6.717   5.821
 8945SOL    HW336100   3.707   6.574   5.777
 8945SOL    MW436101   3.748   6.649   5.768
 8946SOL     OW36102   5.170   5.664   6.506
 8946SOL    HW236103   5.258   5.673   6.543
 8946SOL    HW336104   5.180   5.605   6.432
 8946SOL    MW436105   5.184   5.658   6.500
 8947SOL     OW36106   5.202   6.403   6.350
 8947SOL    HW236107   5.282   6.418   6.299
 8947SOL    HW336108   5.195   6.308   6.356
 8947SOL    MW436109   5.211   6.392   6.345
 8948SOL     OW36110   4.342   7.452   5.700
 8948SOL    HW236111   4.247   7.452   5.692
 8948SOL    HW336112   4.358   7.398   5.778
 8948SOL    MW436113   4.332   7.446   5.709
 8949SOL     OW36114   5.187   6.272   5.615
 8949SOL    HW236115   5.115   6.248   5.557
 8949SOL    HW336116   5.253   6.309   5.557
 8949SOL    MW436117   5.186   6.274   5.600
 8950SOL     OW36118   4.321   7.004   6.296
 8950SOL    HW236119   4.386   6.937   6.317
 8950SOL    HW336120   4.373   7.081   6.273
 8950SOL    MW436121   4.336   7.006   6.295
 8951SOL     OW36122   4.582   6.169   6.426
 8951SOL    HW236123   4.522   6.187   6.498
 8951SOL    HW336124   4.616   6.081   6.445
 8951SOL    MW436125   4.578   6.159   6.439
 8952SOL     OW36126   4.807   6.752   6.445
 8952SOL    HW236127   4.899   6.733   6.463
 8952SOL    HW336128   4.780   6.682   6.385
 8952SOL    MW436129   4.815   6.740   6.439
 8953SOL     OW36130   4.600   6.572   5.800
 8953SOL    HW236131   4.586   6.484   5.765
 8953SOL    HW336132   4.551   6.629   5.741
 8953SOL    MW436133   4.592   6.567   5.788
 8954SOL     OW36134   5.081   6.990   6.541
 8954SOL    HW236135   5.054   7.074   6.506
 8954SOL    HW336136   5.041   6.985   6.628
 8954SOL    MW436137   5.074   6.999   6.547
 8955SOL     OW36138   4.013   6.296   6.579
 8955SOL    HW236139   3.963   6.295   6.660
 8955SOL    HW336140   4.033   6.388   6.563
 8955SOL    MW436141   4.009   6.308   6.587
 8956SOL     OW36142   5.319   5.778   5.902
 8956SOL    HW236143   5.312   5.782   5.997
 8956SOL    HW336144   5.331   5.869   5.875
 8956SOL    MW436145   5.320   5.791   5.910
 8957SOL     OW36146   4.608   6.341   6.016
 8957SOL    HW236147   4.588   6.327   5.923
 8957SOL    HW336148   4.701   6.320   6.023
 8957SOL    MW436149   4.618   6.336   6.005
 8958SOL     OW36150   4.591   7.299   6.054
 8958SOL    HW236151   4.649   7.370   6.081
 8958SOL    HW336152   4.614   7.227   6.112
 8958SOL    MW436153   4.602   7.299   6.065
 8959SOL     OW36154   3.834   5.604   6.743
 8959SOL    HW236155   3.825   5.605   6.648
 8959SOL    HW336156   3.928   5.616   6.758
 8959SOL    MW436157   3.846   5.607   6.734
 8960SOL     OW36158   5.471   6.797   6.363
 8960SOL    HW236159   5.450   6.743   6.286
 8960SOL    HW336160   5.567   6.795   6.367
 8960SOL    MW436161   5.480   6.790   6.352
 8961SOL     OW36162   4.047   5.731   5.789
 8961SOL    HW236163   3.976   5.786   5.757
 8961SOL    HW336164   4.089   5.697   5.710
 8961SOL    MW436165   4.043   5.733   5.775
 8962SOL     OW36166   5.171   6.228   6.625
 8962SOL    HW236167   5.094   6.274   6.591
 8962SOL    HW336168   5.228   6.297   6.659
 8962SOL    MW436169   5.168   6.243   6.625
 8963SOL     OW36170   3.803   5.830   5.638
 8963SOL    HW236171   3.770   5.909   5.682
 8963SOL    HW336172   3.858   5.863   5.567
 8963SOL    MW436173   3.806   5.844   5.635
 8964SOL     OW36174   3.837   7.087   5.827
 8964SOL    HW236175   3.854   7.171   5.869
 8964SOL    HW336176   3.872   7.096   5.739
 8964SOL    MW436177   3.842   7.100   5.821
 8965SOL     OW36178   5.109   7.176   6.044
 8965SOL    HW236179   5.172   7.166   5.973
 8965SOL    HW336180   5.026   7.196   5.999
 8965SOL    MW436181   5.106   7.177   6.029
 8966SOL     OW36182   7.207   0.771   1.252
 8966SOL    HW236183   7.162   0.838   1.303
 8966SOL    HW336184   7.295   0.807   1.238
 8966SOL    MW436185   7.213   0.784   1.256
 8967SOL     OW36186   6.135   1.022   0.486
 8967SOL    HW236187   6.225   0.997   0.470
 8967SOL    HW336188   6.131   1.115   0.463
 8967SOL    MW436189   6.147   1.031   0.481
 8968SOL     OW36190   7.251   1.725   0.628
 8968SOL    HW236191   7.263   1.671   0.706
 8968SOL    HW336192   7.288   1.673   0.557
 8968SOL    MW436193   7.257   1.710   0.629
 8969SOL     OW36194   6.630   1.610   1.629
 8969SOL    HW236195   6.671   1.646   1.550
 8969SOL    HW336196   6.665   1.521   1.636
 8969SOL    MW436197   6.641   1.603   1.620
 8970SOL     OW36198   7.187   1.165   1.233
 8970SOL    HW236199   7.108   1.130   1.191
 8970SOL    HW336200   7.214   1.237   1.177
 8970SOL    MW436201   7.180   1.170   1.220
 8971SOL     OW36202   6.419   0.478   0.499
 8971SOL    HW236203   6.394   0.566   0.527
 8971SOL    HW336204   6.416   0.481   0.403
 8971SOL    MW436205   6.415   0.490   0.491
 8972SOL     OW36206   5.861   0.506   0.427
 8972SOL    HW236207   5.893   0.594   0.409
 8972SOL    HW336208   5.849   0.504   0.522
 8972SOL    MW436209   5.864   0.518   0.439
 8973SOL     OW36210   5.939   0.919   1.328
 8973SOL    HW236211   6.002   0.866   1.279
 8973SOL    HW336212   5.920   0.993   1.271
 8973SOL    MW436213   5.945   0.921   1.315
 8974SOL     OW36214   6.260   0.261   0.514
 8974SOL    HW236215   6.318   0.337   0.516
 8974SOL    HW336216   6.195   0.282   0.447
 8974SOL    MW436217   6.259   0.273   0.505
 8975SOL     OW36218   6.347   1.188   0.689
 8975SOL    HW236219   6.427   1.191   0.741
 8975SOL    HW336220   6.375   1.155   0.603
 8975SOL    MW436221   6.361   1.184   0.684
 8976SOL     OW36222   6.372   1.529   1.592
 8976SOL    HW236223   6.456   1.555   1.631
 8976SOL    HW336224   6.396   1.473   1.518
 8976SOL    MW436225   6.386   1.525   1.587
 8977SOL     OW36226   6.124   0.692   0.680
 8977SOL    HW236227   6.109   0.612   0.731
 8977SOL    HW336228   6.206   0.727   0.714
 8977SOL    MW436229   6.132   0.684   0.692
 8978SOL     OW36230   6.461   1.378   1.365
 8978SOL    HW236231   6.425   1.444   1.305
 8978SOL    HW336232   6.389   1.316   1.378
 8978SOL    MW436233   6.447   1.378   1.359
 8979SOL     OW36234   6.266   0.518   1.057
 8979SOL    HW236235   6.172   0.514   1.075
 8979SOL    HW336236   6.296   0.427   1.066
 8979SOL    MW436237   6.257   0.506   1.060
 8980SOL     OW36238   6.012   0.932   0.961
 8980SOL    HW236239   5.967   0.939   0.877
 8980SOL    HW336240   5.992   1.015   1.005
 8980SOL    MW436241   6.004   0.944   0.955
 8981SOL     OW36242   5.709   1.778   0.836
 8981SOL    HW236243   5.798   1.770   0.871
 8981SOL    HW336244   5.673   1.690   0.841
 8981SOL    MW436245   5.716   1.765   0.841
 8982SOL     OW36246   5.973   1.305   0.871
 8982SOL    HW236247   5.949   1.358   0.947
 8982SOL    HW336248   6.029   1.363   0.819
 8982SOL    MW436249   5.977   1.320   0.874
 8983SOL     OW36250   6.535   0.949   0.681
 8983SOL    HW236251   6.449   0.936   0.721
 8983SOL    HW336252   6.588   0.876   0.713
 8983SOL    MW436253   6.531   0.938   0.690
 8984SOL     OW36254   5.943   1.601   1.466
 8984SOL    HW236255   5.851   1.577   1.451
 8984SOL    HW336256   5.987   1.518   1.483
 8984SOL    MW436257   5.937   1.586   1.465
 8985SOL     OW36258   6.526   1.311   0.398
 8985SOL    HW236259   6.503   1.373   0.466
 8985SOL    HW336260   6.483   1.229   0.424
 8985SOL    MW436261   6.518   1.307   0.409
 8986SOL     OW36262   7.399   0.312   0.854
 8986SOL    HW236263   7.336   0.292   0.923
 8986SOL    HW336264   7.389   0.241   0.791
 8986SOL    MW436265   7.389   0.299   0.855
 8987SOL     OW36266   6.023   0.284   0.366
 8987SOL    HW236267   5.997   0.246   0.282
 8987SOL    HW336268   5.960   0.354   0.382
 8987SOL    MW436269   6.012   0.287   0.357
 8988SOL     OW36270   5.858   1.245   0.403
 8988SOL    HW236271   5.806   1.313   0.359
 8988SOL    HW336272   5.855   1.171   0.343
 8988SOL    MW436273   5.850   1.244   0.390
 8989SOL     OW36274   7.200   1.084   0.506
 8989SOL    HW236275   7.110   1.084   0.541
 8989SOL    HW336276   7.193   1.130   0.423
 8989SOL    MW436277   7.187   1.090   0.500
 8990SOL     OW36278   7.000   0.719   1.578
 8990SOL    HW236279   7.069   0.657   1.555
 8990SOL    HW336280   6.925   0.693   1.525
 8990SOL    MW436281   7.000   0.706   1.569
 8991SOL     OW36282   5.741   1.599   1.130
 8991SOL    HW236283   5.724   1.545   1.207
 8991SOL    HW336284   5.729   1.689   1.160
 8991SOL    MW436285   5.738   1.603   1.144
 8992SOL     OW36286   6.736   1.106   1.570
 8992SOL    HW236287   6.721   1.199   1.555
 8992SOL    HW336288   6.831   1.096   1.570
 8992SOL    MW436289   6.745   1.116   1.567
 8993SOL     OW36290   6.532   0.530   1.771
 8993SOL    HW236291   6.622   0.531   1.738
 8993SOL    HW336292   6.491   0.455   1.729
 8993SOL    MW436293   6.538   0.520   1.762
 8994SOL     OW36294   7.107   1.062   0.898
 8994SOL    HW236295   7.110   0.996   0.829
 8994SOL    HW336296   7.192   1.105   0.894
 8994SOL    MW436297   7.119   1.058   0.889
 8995SOL     OW36298   6.727   0.665   0.467
 8995SOL    HW236299   6.753   0.689   0.378
 8995SOL    HW336300   6.709   0.572   0.463
 8995SOL    MW436301   6.729   0.657   0.454
 8996SOL     OW36302   6.312   0.334   1.721
 8996SOL    HW236303   6.322   0.260   1.661
 8996SOL    HW336304   6.348   0.303   1.804
 8996SOL    MW436305   6.318   0.320   1.723
 8997SOL     OW36306   6.048   1.701   0.636
 8997SOL    HW236307   6.080   1.789   0.614
 8997SOL    HW336308   6.001   1.673   0.558
 8997SOL    MW436309   6.047   1.709   0.623
 8998SOL     OW36310   7.432   0.063   0.685
 8998SOL    HW236311   7.486   0.014   0.747
 8998SOL    HW336312   7.375  -0.003   0.646
 8998SOL    MW436313   7.432   0.047   0.687
 8999SOL     OW36314   6.551   0.016   1.098
 8999SOL    HW236315   6.510   0.094   1.060
 8999SOL    HW336316   6.645   0.034   1.093
 8999SOL    MW436317   6.557   0.028   1.093
 9000SOL     OW36318   6.497   0.987   1.593
 9000SOL    HW236319   6.474   0.967   1.683
 9000SOL    HW336320   6.582   1.031   1.598
 9000SOL    MW436321   6.504   0.990   1.605
 9001SOL     OW36322   6.577   0.124   1.353
 9001SOL    HW236323   6.583   0.086   1.266
 9001SOL    HW336324   6.566   0.218   1.338
 9001SOL    MW436325   6.578   0.132   1.341
 9002SOL     OW36326   6.666   0.613   1.187
 9002SOL    HW236327   6.741   0.642   1.134
 9002SOL    HW336328   6.598   0.678   1.171
 9002SOL    MW436329   6.667   0.625   1.177
 9003SOL     OW36330   7.216   0.581   1.464
 9003SOL    HW236331   7.197   0.490   1.443
 9003SOL    HW336332   7.194   0.630   1.385
 9003SOL    MW436333   7.211   0.574   1.451
 9004SOL     OW36334   7.358   1.675   1.368
 9004SOL    HW236335   7.286   1.637   1.419
 9004SOL    HW336336   7.375   1.760   1.409
 9004SOL    MW436337   7.352   1.680   1.380
 9005SOL     OW36338   6.663   0.319   1.570
 9005SOL    HW236339   6.629   0.358   1.489
 9005SOL    HW336340   6.641   0.227   1.563
 9005SOL    MW436341   6.656   0.312   1.560
 9006SOL     OW36342   7.072   1.133   1.646
 9006SOL    HW236343   7.154   1.174   1.676
 9006SOL    HW336344   7.035   1.095   1.726
 9006SOL    MW436345   7.078   1.134   1.661
 9007SOL     OW36346   7.367   0.506   0.630
 9007SOL    HW236347   7.456   0.475   0.647
 9007SOL    HW336348   7.310   0.446   0.678
 9007SOL    MW436349   7.370   0.494   0.639
 9008SOL     OW36350   5.793   0.220   0.659
 9008SOL    HW236351   5.784   0.160   0.585
 9008SOL    HW336352   5.726   0.191   0.722
 9008SOL    MW436353   5.783   0.207   0.657
 9009SOL     OW36354   6.736   1.313   0.220
 9009SOL    HW236355   6.686   1.315   0.302
 9009SOL    HW336356   6.670   1.331   0.152
 9009SOL    MW436357   6.722   1.315   0.222
 9010SOL     OW36358   5.740   0.393   1.022
 9010SOL    HW236359   5.712   0.484   1.031
 9010SOL    HW336360   5.677   0.354   0.961
 9010SOL    MW436361   5.727   0.399   1.016
 9011SOL     OW36362   7.327   1.251   1.725
 9011SOL    HW236363   7.377   1.177   1.757
 9011SOL    HW336364   7.273   1.278   1.800
 9011SOL    MW436365   7.327   1.245   1.738
 9012SOL     OW36366   7.461   0.886   1.227
 9012SOL    HW236367   7.477   0.924   1.140
 9012SOL    HW336368   7.495   0.952   1.288
 9012SOL    MW436369   7.468   0.899   1.223
 9013SOL     OW36370   7.253   1.595   0.896
 9013SOL    HW236371   7.282   1.662   0.957
 9013SOL    HW336372   7.234   1.519   0.951
 9013SOL    MW436373   7.255   1.595   0.911
 9014SOL     OW36374   5.724   0.668   1.192
 9014SOL    HW236375   5.786   0.698   1.258
 9014SOL    HW336376   5.658   0.737   1.186
 9014SOL    MW436377   5.723   0.681   1.199
 9015SOL     OW36378   5.819   1.777   1.644
 9015SOL    HW236379   5.793   1.845   1.582
 9015SOL    HW336380   5.867   1.714   1.592
 9015SOL    MW436381   5.821   1.777   1.630
 9016SOL     OW36382   5.871   1.096   1.151
 9016SOL    HW236383   5.924   1.171   1.176
 9016SOL    HW336384   5.790   1.134   1.117
 9016SOL    MW436385   5.867   1.111   1.151
 9017SOL     OW36386   6.411   1.000   1.139
 9017SOL    HW236387   6.439   0.909   1.151
 9017SOL    HW336388   6.340   0.994   1.075
 9017SOL    MW436389   6.404   0.988   1.134
 9018SOL     OW36390   5.726   0.865   0.557
 9018SOL    HW236391   5.817   0.880   0.584
 9018SOL    HW336392   5.729   0.786   0.503
 9018SOL    MW436393   5.738   0.857   0.555
 9019SOL     OW36394   5.962   0.573   1.811
 9019SOL    HW236395   5.909   0.653   1.818
 9019SOL    HW336396   6.032   0.585   1.876
 9019SOL    MW436397   5.964   0.586   1.819
 9020SOL     OW36398   6.348   0.123   1.518
 9020SOL    HW236399   6.325   0.031   1.520
 9020SOL    HW336400   6.434   0.125   1.475
 9020SOL    MW436401   6.355   0.113   1.514
 9021SOL     OW36402   6.032   0.647   1.557
 9021SOL    HW236403   6.112   0.697   1.543
 9021SOL    HW336404   6.023   0.641   1.652
 9021SOL    MW436405   6.041   0.653   1.567
 9022SOL     OW36406   6.353   1.797   0.931
 9022SOL    HW236407   6.442   1.812   0.961
 9022SOL    HW336408   6.348   1.844   0.847
 9022SOL    MW436409   6.363   1.805   0.924
 9023SOL     OW36410   7.009   0.172   1.828
 9023SOL    HW236411   7.065   0.099   1.854
 9023SOL    HW336412   6.979   0.210   1.910
 9023SOL    MW436413   7.013   0.167   1.841
 9024SOL     OW36414   5.734   1.477   0.596
 9024SOL    HW236415   5.706   1.516   0.678
 9024SOL    HW336416   5.754   1.386   0.618
 9024SOL    MW436417   5.732   1.469   0.609
 9025SOL     OW36418   6.567   1.520   0.631
 9025SOL    HW236419   6.650   1.474   0.615
 9025SOL    HW336420   6.557   1.519   0.727
 9025SOL    MW436421   6.577   1.513   0.641
 9026SOL     OW36422   7.399   0.665   0.945
 9026SOL    HW236423   7.488   0.695   0.927
 9026SOL    HW336424   7.379   0.605   0.874
 9026SOL    MW436425   7.408   0.662   0.934
 9027SOL     OW36426   7.250   0.844   1.825
 9027SOL    HW236427   7.305   0.768   1.806
 9027SOL    HW336428   7.252   0.852   1.920
 9027SOL    MW436429   7.258   0.835   1.833
 9028SOL     OW36430   6.545   0.406   1.344
 9028SOL    HW236431   6.464   0.447   1.372
 9028SOL    HW336432   6.592   0.474   1.296
 9028SOL    MW436433   6.540   0.421   1.342
 9029SOL     OW36434   6.805   0.744   0.967
 9029SOL    HW236435   6.818   0.838   0.977
 9029SOL    HW336436   6.766   0.734   0.881
 9029SOL    MW436437   6.801   0.755   0.957
 9030SOL     OW36438   6.257   0.939   0.771
 9030SOL    HW236439   6.168   0.930   0.804
 9030SOL    HW336440   6.261   1.029   0.739
 9030SOL    MW436441   6.246   0.950   0.771
 9031SOL     OW36442   7.056   0.522   0.766
 9031SOL    HW236443   7.001   0.443   0.765
 9031SOL    HW336444   7.038   0.563   0.850
 9031SOL    MW436445   7.046   0.517   0.775
 9032SOL     OW36446   6.027   0.209   1.583
 9032SOL    HW236447   5.948   0.227   1.635
 9032SOL    HW336448   6.022   0.271   1.510
 9032SOL    MW436449   6.017   0.219   1.580
 9033SOL     OW36450   6.675   0.726   0.723
 9033SOL    HW236451   6.612   0.658   0.747
 9033SOL    HW336452   6.695   0.707   0.631
 9033SOL    MW436453   6.669   0.713   0.715
 9034SOL     OW36454   5.931   1.621   0.425
 9034SOL    HW236455   5.892   1.668   0.351
 9034SOL    HW336456   5.865   1.556   0.450
 9034SOL    MW436457   5.918   1.619   0.419
 9035SOL     OW36458   6.976   1.590   1.221
 9035SOL    HW236459   6.901   1.636   1.259
 9035SOL    HW336460   6.958   1.497   1.238
 9035SOL    MW436461   6.965   1.584   1.229
 9036SOL     OW36462   6.980   1.798   0.651
 9036SOL    HW236463   6.923   1.751   0.590
 9036SOL    HW336464   7.066   1.759   0.638
 9036SOL    MW436465   6.983   1.789   0.641
 9037SOL     OW36466   6.933   0.274   0.782
 9037SOL    HW236467   6.961   0.206   0.843
 9037SOL    HW336468   6.847   0.245   0.752
 9037SOL    MW436469   6.926   0.261   0.786
 9038SOL     OW36470   5.738   1.208   0.716
 9038SOL    HW236471   5.802   1.240   0.779
 9038SOL    HW336472   5.787   1.144   0.664
 9038SOL    MW436473   5.753   1.204   0.717
 9039SOL     OW36474   6.238   1.284   1.698
 9039SOL    HW236475   6.286   1.367   1.685
 9039SOL    HW336476   6.295   1.232   1.754
 9039SOL    MW436477   6.252   1.288   1.704
 9040SOL     OW36478   5.814   1.526   1.838
 9040SOL    HW236479   5.870   1.450   1.853
 9040SOL    HW336480   5.763   1.504   1.760
 9040SOL    MW436481   5.814   1.513   1.829
 9041SOL     OW36482   6.699   1.363   1.447
 9041SOL    HW236483   6.610   1.369   1.415
 9041SOL    HW336484   6.743   1.442   1.415
 9041SOL    MW436485   6.694   1.373   1.439
 9042SOL     OW36486   6.016   1.521   1.088
 9042SOL    HW236487   6.061   1.583   1.145
 9042SOL    HW336488   5.923   1.540   1.101
 9042SOL    MW436489   6.009   1.531   1.095
 9043SOL     OW36490   7.456   1.050   1.442
 9043SOL    HW236491   7.371   1.063   1.401
 9043SOL    HW336492   7.436   1.014   1.529
 9043SOL    MW436493   7.443   1.046   1.447
 9044SOL     OW36494   6.438   1.589   1.196
 9044SOL    HW236495   6.462   1.578   1.105
 9044SOL    HW336496   6.361   1.646   1.194
 9044SOL    MW436497   6.430   1.594   1.185
 9045SOL     OW36498   6.233   1.294   0.986
 9045SOL    HW236499   6.226   1.273   1.080
 9045SOL    HW336500   6.151   1.262   0.949
 9045SOL    MW436501   6.221   1.288   0.993
 9046SOL     OW36502   7.097   0.304   1.388
 9046SOL    HW236503   7.044   0.306   1.468
 9046SOL    HW336504   7.082   0.217   1.351
 9046SOL    MW436505   7.089   0.294   1.393
 9047SOL     OW36506   7.433   0.228   1.261
 9047SOL    HW236507   7.414   0.295   1.196
 9047SOL    HW336508   7.490   0.166   1.216
 9047SOL    MW436509   7.437   0.229   1.247
 9048SOL     OW36510   5.679   1.386   1.649
 9048SOL    HW236511   5.723   1.319   1.595
 9048SOL    HW336512   5.594   1.348   1.669
 9048SOL    MW436513   5.674   1.372   1.645
 9049SOL     OW36514   6.362   0.061   0.701
 9049SOL    HW236515   6.291   0.122   0.683
 9049SOL    HW336516   6.413   0.058   0.620
 9049SOL    MW436517   6.358   0.067   0.688
 9050SOL     OW36518   6.120   1.301   0.450
 9050SOL    HW236519   6.113   1.333   0.540
 9050SOL    HW336520   6.030   1.285   0.422
 9050SOL    MW436521   6.108   1.303   0.457
 9051SOL     OW36522   6.715   1.694   1.359
 9051SOL    HW236523   6.635   1.679   1.309
 9051SOL    HW336524   6.722   1.789   1.366
 9051SOL    MW436525   6.706   1.705   1.353
 9052SOL     OW36526   6.829   1.659   0.849
 9052SOL    HW236527   6.876   1.732   0.808
 9052SOL    HW336528   6.750   1.698   0.885
 9052SOL    MW436529   6.824   1.674   0.848
 9053SOL     OW36530   7.237   1.754   1.124
 9053SOL    HW236531   7.280   1.724   1.204
 9053SOL    HW336532   7.156   1.702   1.121
 9053SOL    MW436533   7.232   1.743   1.134
 9054SOL     OW36534   6.322   0.718   1.831
 9054SOL    HW236535   6.392   0.660   1.803
 9054SOL    HW336536   6.265   0.663   1.886
 9054SOL    MW436537   6.324   0.705   1.835
 9055SOL     OW36538   7.109   0.930   1.464
 9055SOL    HW236539   7.114   0.983   1.544
 9055SOL    HW336540   7.071   0.847   1.492
 9055SOL    MW436541   7.105   0.925   1.479
 9056SOL     OW36542   7.219   1.336   0.986
 9056SOL    HW236543   7.254   1.318   0.899
 9056SOL    HW336544   7.124   1.337   0.973
 9056SOL    MW436545   7.211   1.333   0.973
 9057SOL     OW36546   6.648   0.984   1.355
 9057SOL    HW236547   6.691   1.019   1.433
 9057SOL    HW336548   6.631   1.061   1.301
 9057SOL    MW436549   6.651   0.999   1.358
 9058SOL     OW36550   6.039   0.126   0.657
 9058SOL    HW236551   6.089   0.169   0.588
 9058SOL    HW336552   5.954   0.170   0.657
 9058SOL    MW436553   6.036   0.139   0.648
 9059SOL     OW36554   5.798   1.188   1.517
 9059SOL    HW236555   5.826   1.141   1.595
 9059SOL    HW336556   5.719   1.143   1.488
 9059SOL    MW436557   5.791   1.177   1.523
 9060SOL     OW36558   6.306   0.515   1.484
 9060SOL    HW236559   6.278   0.603   1.508
 9060SOL    HW336560   6.275   0.459   1.555
 9060SOL    MW436561   6.298   0.518   1.496
 9061SOL     OW36562   6.848   0.733   0.203
 9061SOL    HW236563   6.895   0.751   0.122
 9061SOL    HW336564   6.814   0.817   0.231
 9061SOL    MW436565   6.850   0.747   0.196
 9062SOL     OW36566   5.961   0.911   0.697
 9062SOL    HW236567   6.019   0.967   0.645
 9062SOL    HW336568   6.005   0.826   0.699
 9062SOL    MW436569   5.974   0.908   0.690
 9063SOL     OW36570   7.101   0.263   0.534
 9063SOL    HW236571   7.023   0.213   0.559
 9063SOL    HW336572   7.072   0.354   0.534
 9063SOL    MW436573   7.087   0.267   0.537
 9064SOL     OW36574   6.687   0.225   0.693
 9064SOL    HW236575   6.707   0.300   0.637
 9064SOL    HW336576   6.667   0.264   0.778
 9064SOL    MW436577   6.688   0.241   0.697
 9065SOL     OW36578   7.447   0.998   1.712
 9065SOL    HW236579   7.360   0.978   1.748
 9065SOL    HW336580   7.501   0.924   1.737
 9065SOL    MW436581   7.442   0.987   1.720
 9066SOL     OW36582   5.668   1.511   0.869
 9066SOL    HW236583   5.700   1.515   0.960
 9066SOL    HW336584   5.573   1.519   0.877
 9066SOL    MW436585   5.660   1.514   0.882
 9067SOL     OW36586   7.191   1.849   1.850
 9067SOL    HW236587   7.236   1.773   1.815
 9067SOL    HW336588   7.229   1.862   1.937
 9067SOL    MW436589   7.201   1.842   1.856
 9068SOL     OW36590   6.791   1.368   0.576
 9068SOL    HW236591   6.814   1.319   0.654
 9068SOL    HW336592   6.872   1.410   0.548
 9068SOL    MW436593   6.804   1.368   0.583
 9069SOL     OW36594   6.049   0.376   1.305
 9069SOL    HW236595   6.082   0.457   1.345
 9069SOL    HW336596   6.022   0.402   1.217
 9069SOL    MW436597   6.048   0.390   1.299
 9070SOL     OW36598   6.003   0.343   1.041
 9070SOL    HW236599   6.033   0.257   1.012
 9070SOL    HW336600   5.908   0.336   1.044
 9070SOL    MW436601   5.995   0.332   1.039
 9071SOL     OW36602   6.832   0.552   1.732
 9071SOL    HW236603   6.884   0.487   1.685
 9071SOL    HW336604   6.790   0.603   1.662
 9071SOL    MW436605   6.833   0.549   1.715
 9072SOL     OW36606   6.931   0.347   1.593
 9072SOL    HW236607   6.838   0.331   1.580
 9072SOL    HW336608   6.957   0.285   1.661
 9072SOL    MW436609   6.921   0.337   1.600
 9073SOL     OW36610   6.146   0.121   0.932
 9073SOL    HW236611   6.156   0.030   0.958
 9073SOL    HW336612   6.102   0.117   0.847
 9073SOL    MW436613   6.142   0.109   0.924
 9074SOL     OW36614   6.240   1.736   1.478
 9074SOL    HW236615   6.157   1.721   1.523
 9074SOL    HW336616   6.299   1.669   1.513
 9074SOL    MW436617   6.238   1.726   1.488
 9075SOL     OW36618   7.297   0.443   1.103
 9075SOL    HW236619   7.230   0.476   1.163
 9075SOL    HW336620   7.340   0.521   1.069
 9075SOL    MW436621   7.295   0.458   1.107
 9076SOL     OW36622   7.475   1.163   1.073
 9076SOL    HW236623   7.468   1.103   0.998
 9076SOL    HW336624   7.401   1.223   1.062
 9076SOL    MW436625   7.465   1.163   1.062
 9077SOL     OW36626   6.857   1.025   0.991
 9077SOL    HW236627   6.871   0.997   1.082
 9077SOL    HW336628   6.943   1.056   0.963
 9077SOL    MW436629   6.870   1.026   1.000
 9078SOL     OW36630   6.940   0.520   1.270
 9078SOL    HW236631   6.961   0.521   1.177
 9078SOL    HW336632   6.985   0.442   1.303
 9078SOL    MW436633   6.947   0.510   1.262
 9079SOL     OW36634   7.433   0.651   1.812
 9079SOL    HW236635   7.470   0.596   1.881
 9079SOL    HW336636   7.458   0.608   1.730
 9079SOL    MW436637   7.440   0.639   1.811
 9080SOL     OW36638   6.980   0.949   1.863
 9080SOL    HW236639   7.046   0.897   1.817
 9080SOL    HW336640   7.000   0.936   1.956
 9080SOL    MW436641   6.991   0.940   1.870
 9081SOL     OW36642   6.991   0.810   0.490
 9081SOL    HW236643   6.906   0.780   0.460
 9081SOL    HW336644   6.983   0.817   0.585
 9081SOL    MW436645   6.979   0.808   0.499
 9082SOL     OW36646   6.067   1.273   1.221
 9082SOL    HW236647   6.079   1.300   1.312
 9082SOL    HW336648   6.048   1.354   1.174
 9082SOL    MW436649   6.066   1.288   1.226
 9083SOL     OW36650   6.351   0.253   1.044
 9083SOL    HW236651   6.324   0.255   1.135
 9083SOL    HW336652   6.281   0.205   0.999
 9083SOL    MW436653   6.339   0.249   1.051
 9084SOL     OW36654   6.205   1.745   1.206
 9084SOL    HW236655   6.257   1.822   1.183
 9084SOL    HW336656   6.214   1.737   1.301
 9084SOL    MW436657   6.214   1.752   1.217
 9085SOL     OW36658   7.107   1.330   1.438
 9085SOL    HW236659   7.092   1.259   1.501
 9085SOL    HW336660   7.153   1.288   1.366
 9085SOL    MW436661   7.113   1.314   1.438
 9086SOL     OW36662   6.181   1.061   1.555
 9086SOL    HW236663   6.218   1.066   1.467
 9086SOL    HW336664   6.220   1.134   1.602
 9086SOL    MW436665   6.191   1.071   1.550
 9087SOL     OW36666   6.361   1.104   1.367
 9087SOL    HW236667   6.420   1.050   1.420
 9087SOL    HW336668   6.376   1.076   1.277
 9087SOL    MW436669   6.371   1.093   1.363
 9088SOL     OW36670   7.172   1.593   1.539
 9088SOL    HW236671   7.214   1.578   1.624
 9088SOL    HW336672   7.163   1.506   1.501
 9088SOL    MW436673   7.176   1.581   1.546
 9089SOL     OW36674   6.832   0.072   1.130
 9089SOL    HW236675   6.887   0.081   1.052
 9089SOL    HW336676   6.887   0.106   1.201
 9089SOL    MW436677   6.846   0.077   1.129
 9090SOL     OW36678   5.993   1.728   0.894
 9090SOL    HW236679   5.997   1.639   0.929
 9090SOL    HW336680   6.019   1.719   0.803
 9090SOL    MW436681   5.996   1.716   0.886
 9091SOL     OW36682   6.610   1.206   1.137
 9091SOL    HW236683   6.542   1.140   1.153
 9091SOL    HW336684   6.628   1.200   1.044
 9091SOL    MW436685   6.603   1.197   1.128
 9092SOL     OW36686   5.699   1.481   1.388
 9092SOL    HW236687   5.689   1.439   1.474
 9092SOL    HW336688   5.620   1.534   1.378
 9092SOL    MW436689   5.688   1.482   1.399
 9093SOL     OW36690   6.603   0.345   0.958
 9093SOL    HW236691   6.533   0.297   1.003
 9093SOL    HW336692   6.635   0.408   1.022
 9093SOL    MW436693   6.598   0.347   0.972
 9094SOL     OW36694   6.254   0.781   1.578
 9094SOL    HW236695   6.247   0.876   1.566
 9094SOL    HW336696   6.263   0.770   1.673
 9094SOL    MW436697   6.255   0.793   1.588
 9095SOL     OW36698   5.975   1.296   1.836
 9095SOL    HW236699   6.047   1.298   1.773
 9095SOL    HW336700   5.945   1.205   1.835
 9095SOL    MW436701   5.980   1.285   1.828
 9096SOL     OW36702   7.059   0.059   1.303
 9096SOL    HW236703   7.130   0.005   1.267
 9096SOL    HW336704   7.058   0.038   1.396
 9096SOL    MW436705   7.068   0.050   1.311
 9097SOL     OW36706   7.259   1.589   1.787
 9097SOL    HW236707   7.232   1.586   1.878
 9097SOL    HW336708   7.355   1.593   1.790
 9097SOL    MW436709   7.269   1.589   1.799
 9098SOL     OW36710   6.070   0.451   0.771
 9098SOL    HW236711   6.141   0.399   0.734
 9098SOL    HW336712   6.056   0.416   0.858
 9098SOL    MW436713   6.078   0.440   0.778
 9099SOL     OW36714   5.625   1.786   1.843
 9099SOL    HW236715   5.675   1.764   1.765
 9099SOL    HW336716   5.633   1.881   1.851
 9099SOL    MW436717   5.633   1.795   1.834
 9100SOL     OW36718   6.386   1.544   0.847
 9100SOL    HW236719   6.314   1.481   0.860
 9100SOL    HW336720   6.347   1.629   0.865
 9100SOL    MW436721   6.370   1.547   0.850
 9101SOL     OW36722   6.706   0.392   0.495
 9101SOL    HW236723   6.728   0.329   0.427
 9101SOL    HW336724   6.611   0.384   0.506
 9101SOL    MW436725   6.696   0.383   0.487
 9102SOL     OW36726   5.622   0.549   1.570
 9102SOL    HW236727   5.686   0.615   1.545
 9102SOL    HW336728   5.541   0.576   1.527
 9102SOL    MW436729   5.620   0.561   1.562
 9103SOL     OW36730   7.360   1.456   0.527
 9103SOL    HW236731   7.330   1.389   0.588
 9103SOL    HW336732   7.454   1.462   0.541
 9103SOL    MW436733   7.368   1.448   0.537
 9104SOL     OW36734   6.916   1.133   0.457
 9104SOL    HW236735   6.888   1.219   0.490
 9104SOL    HW336736   6.944   1.149   0.367
 9104SOL    MW436737   6.916   1.147   0.449
 9105SOL     OW36738   6.578   0.053   0.510
 9105SOL    HW236739   6.615   0.112   0.575
 9105SOL    HW336740   6.555   0.109   0.436
 9105SOL    MW436741   6.579   0.068   0.509
 9106SOL     OW36742   7.431   0.935   0.932
 9106SOL    HW236743   7.422   0.967   0.843
 9106SOL    HW336744   7.384   0.851   0.932
 9106SOL    MW436745   7.424   0.928   0.922
 9107SOL     OW36746   5.807   0.775   1.511
 9107SOL    HW236747   5.828   0.844   1.449
 9107SOL    HW336748   5.887   0.722   1.516
 9107SOL    MW436749   5.820   0.776   1.505
 9108SOL     OW36750   7.343   0.866   0.633
 9108SOL    HW236751   7.437   0.855   0.621
 9108SOL    HW336752   7.319   0.938   0.574
 9108SOL    MW436753   7.353   0.874   0.624
 9109SOL     OW36754   5.792   0.790   1.778
 9109SOL    HW236755   5.718   0.734   1.804
 9109SOL    HW336756   5.787   0.793   1.683
 9109SOL    MW436757   5.781   0.783   1.768
 9110SOL     OW36758   5.999   0.744   0.406
 9110SOL    HW236759   5.999   0.839   0.391
 9110SOL    HW336760   6.076   0.728   0.460
 9110SOL    MW436761   6.009   0.755   0.411
 9111SOL     OW36762   6.775   0.603   1.470
 9111SOL    HW236763   6.811   0.576   1.386
 9111SOL    HW336764   6.688   0.637   1.449
 9111SOL    MW436765   6.769   0.604   1.457
 9112SOL     OW36766   5.758   0.475   0.695
 9112SOL    HW236767   5.820   0.482   0.768
 9112SOL    HW336768   5.758   0.382   0.672
 9112SOL    MW436769   5.766   0.464   0.702
 9113SOL     OW36770   6.440   0.736   1.179
 9113SOL    HW236771   6.398   0.654   1.155
 9113SOL    HW336772   6.441   0.735   1.275
 9113SOL    MW436773   6.433   0.725   1.188
 9114SOL     OW36774   7.111   1.869   1.578
 9114SOL    HW236775   7.114   1.775   1.561
 9114SOL    HW336776   7.134   1.877   1.670
 9114SOL    MW436777   7.114   1.857   1.588
 9115SOL     OW36778   6.244   0.206   1.284
 9115SOL    HW236779   6.175   0.269   1.305
 9115SOL    HW336780   6.271   0.170   1.369
 9115SOL    MW436781   6.238   0.209   1.297
 9116SOL     OW36782   7.039   0.059   0.901
 9116SOL    HW236783   7.127   0.068   0.938
 9116SOL    HW336784   7.049   0.000   0.827
 9116SOL    MW436785   7.053   0.053   0.895
 9117SOL     OW36786   7.071   0.798   0.745
 9117SOL    HW236787   7.151   0.813   0.694
 9117SOL    HW336788   7.064   0.703   0.751
 9117SOL    MW436789   7.080   0.787   0.740
 9118SOL     OW36790   6.521   0.724   1.442
 9118SOL    HW236791   6.590   0.791   1.439
 9118SOL    HW336792   6.454   0.762   1.498
 9118SOL    MW436793   6.522   0.737   1.449
 9119SOL     OW36794   5.939   1.024   1.690
 9119SOL    HW236795   5.893   0.940   1.692
 9119SOL    HW336796   5.996   1.018   1.614
 9119SOL    MW436797   5.941   1.012   1.682
 9120SOL     OW36798   7.056   0.667   0.011
 9120SOL    HW236799   6.984   0.643  -0.047
 9120SOL    HW336800   7.122   0.704  -0.047
 9120SOL    MW436801   7.055   0.669  -0.004
 9121SOL     OW36802   6.190   1.399   0.691
 9121SOL    HW236803   6.255   1.332   0.712
 9121SOL    HW336804   6.242   1.476   0.668
 9121SOL    MW436805   6.205   1.401   0.690
 9122SOL     OW36806   6.451   0.564   0.821
 9122SOL    HW236807   6.391   0.582   0.893
 9122SOL    HW336808   6.485   0.476   0.840
 9122SOL    MW436809   6.447   0.554   0.834
 9123SOL     OW36810   7.392   0.063   1.490
 9123SOL    HW236811   7.313   0.109   1.518
 9123SOL    HW336812   7.427   0.117   1.419
 9123SOL    MW436813   7.386   0.076   1.484
 9124SOL     OW36814   6.676   1.147   0.840
 9124SOL    HW236815   6.768   1.128   0.858
 9124SOL    HW336816   6.649   1.077   0.780
 9124SOL    MW436817   6.684   1.135   0.834
 9125SOL     OW36818   6.950   1.385   0.936
 9125SOL    HW236819   6.923   1.469   0.901
 9125SOL    HW336820   6.910   1.380   1.023
 9125SOL    MW436821   6.943   1.394   0.942
 9126SOL     OW36822   6.869   1.333   1.204
 9126SOL    HW236823   6.880   1.300   1.293
 9126SOL    HW336824   6.788   1.292   1.173
 9126SOL    MW436825   6.859   1.325   1.210
 9127SOL     OW36826   5.882   0.691   0.974
 9127SOL    HW236827   5.832   0.690   1.055
 9127SOL    HW336828   5.902   0.783   0.958
 9127SOL    MW436829   5.878   0.703   0.982
 9128SOL     OW36830   6.949   1.455   1.736
 9128SOL    HW236831   6.949   1.549   1.752
 9128SOL    HW336832   6.994   1.445   1.652
 9128SOL    MW436833   6.955   1.465   1.727
 9129SOL     OW36834   5.804   0.359   1.715
 9129SOL    HW236835   5.761   0.418   1.652
 9129SOL    HW336836   5.872   0.414   1.755
 9129SOL    MW436837   5.808   0.374   1.712
 9130SOL     OW36838   6.916   0.979   1.260
 9130SOL    HW236839   6.979   0.976   1.333
 9130SOL    HW336840   6.832   0.997   1.302
 9130SOL    MW436841   6.912   0.981   1.275
 9131SOL     OW36842   6.460   1.694   0.449
 9131SOL    HW236843   6.518   1.765   0.476
 9131SOL    HW336844   6.483   1.622   0.507
 9131SOL    MW436845   6.471   1.694   0.460
 9132SOL     OW36846   7.255   0.156   1.039
 9132SOL    HW236847   7.300   0.074   1.058
 9132SOL    HW336848   7.275   0.212   1.115
 9132SOL    MW436849   7.265   0.152   1.051
 9133SOL     OW36850   5.703  -0.001   1.138
 9133SOL    HW236851   5.694   0.000   1.043
 9133SOL    HW336852   5.797   0.011   1.153
 9133SOL    MW436853   5.715   0.002   1.129
 9134SOL     OW36854   7.340   1.192   0.758
 9134SOL    HW236855   7.319   1.138   0.681
 9134SOL    HW336856   7.436   1.190   0.762
 9134SOL    MW436857   7.349   1.185   0.747
 9135SOL     OW36858   6.032   1.337   1.501
 9135SOL    HW236859   5.953   1.287   1.524
 9135SOL    HW336860   6.102   1.296   1.551
 9135SOL    MW436861   6.030   1.325   1.511
 9136SOL     OW36862   7.040   0.623   1.020
 9136SOL    HW236863   6.963   0.669   0.986
 9136SOL    HW336864   7.097   0.692   1.054
 9136SOL    MW436865   7.037   0.638   1.020
 9137SOL     OW36866   5.706   1.482   0.222
 9137SOL    HW236867   5.723   1.566   0.264
 9137SOL    HW336868   5.741   1.491   0.134
 9137SOL    MW436869   5.711   1.495   0.216
 9138SOL     OW36870   6.978   1.571   0.439
 9138SOL    HW236871   7.041   1.561   0.368
 9138SOL    HW336872   6.895   1.591   0.394
 9138SOL    MW436873   6.975   1.572   0.424
 9139SOL     OW36874   7.341   0.839   2.125
 9139SOL    HW236875   7.382   0.781   2.190
 9139SOL    HW336876   7.248   0.831   2.142
 9139SOL    MW436877   7.335   0.831   2.135
 9140SOL     OW36878   7.207   0.771   3.120
 9140SOL    HW236879   7.162   0.838   3.171
 9140SOL    HW336880   7.295   0.807   3.106
 9140SOL    MW436881   7.213   0.784   3.124
 9141SOL     OW36882   6.135   1.022   2.354
 9141SOL    HW236883   6.225   0.997   2.338
 9141SOL    HW336884   6.131   1.115   2.331
 9141SOL    MW436885   6.147   1.031   2.349
 9142SOL     OW36886   7.251   1.725   2.496
 9142SOL    HW236887   7.263   1.671   2.574
 9142SOL    HW336888   7.288   1.673   2.425
 9142SOL    MW436889   7.257   1.710   2.497
 9143SOL     OW36890   6.630   1.610   3.497
 9143SOL    HW236891   6.671   1.646   3.418
 9143SOL    HW336892   6.665   1.521   3.504
 9143SOL    MW436893   6.641   1.603   3.488
 9144SOL     OW36894   7.187   1.165   3.101
 9144SOL    HW236895   7.108   1.130   3.059
 9144SOL    HW336896   7.214   1.237   3.045
 9144SOL    MW436897   7.180   1.170   3.088
 9145SOL     OW36898   6.419   0.478   2.367
 9145SOL    HW236899   6.394   0.566   2.395
 9145SOL    HW336900   6.416   0.481   2.271
 9145SOL    MW436901   6.415   0.490   2.359
 9146SOL     OW36902   5.861   0.506   2.295
 9146SOL    HW236903   5.893   0.594   2.277
 9146SOL    HW336904   5.849   0.504   2.390
 9146SOL    MW436905   5.864   0.518   2.307
 9147SOL     OW36906   5.939   0.919   3.196
 9147SOL    HW236907   6.002   0.866   3.147
 9147SOL    HW336908   5.920   0.993   3.139
 9147SOL    MW436909   5.945   0.921   3.183
 9148SOL     OW36910   6.260   0.261   2.382
 9148SOL    HW236911   6.318   0.337   2.384
 9148SOL    HW336912   6.195   0.282   2.315
 9148SOL    MW436913   6.259   0.273   2.373
 9149SOL     OW36914   6.347   1.188   2.557
 9149SOL    HW236915   6.427   1.191   2.609
 9149SOL    HW336916   6.375   1.155   2.471
 9149SOL    MW436917   6.361   1.184   2.552
 9150SOL     OW36918   6.372   1.529   3.460
 9150SOL    HW236919   6.456   1.555   3.499
 9150SOL    HW336920   6.396   1.473   3.386
 9150SOL    MW436921   6.386   1.525   3.455
 9151SOL     OW36922   6.124   0.692   2.548
 9151SOL    HW236923   6.109   0.612   2.599
 9151SOL    HW336924   6.206   0.727   2.582
 9151SOL    MW436925   6.132   0.684   2.560
 9152SOL     OW36926   6.461   1.378   3.233
 9152SOL    HW236927   6.425   1.444   3.173
 9152SOL    HW336928   6.389   1.316   3.246
 9152SOL    MW436929   6.447   1.378   3.227
 9153SOL     OW36930   6.266   0.518   2.925
 9153SOL    HW236931   6.172   0.514   2.943
 9153SOL    HW336932   6.296   0.427   2.934
 9153SOL    MW436933   6.257   0.506   2.928
 9154SOL     OW36934   6.012   0.932   2.829
 9154SOL    HW236935   5.967   0.939   2.745
 9154SOL    HW336936   5.992   1.015   2.873
 9154SOL    MW436937   6.004   0.944   2.823
 9155SOL     OW36938   5.709   1.778   2.704
 9155SOL    HW236939   5.798   1.770   2.739
 9155SOL    HW336940   5.673   1.690   2.709
 9155SOL    MW436941   5.716   1.765   2.709
 9156SOL     OW36942   6.974   1.170   2.073
 9156SOL    HW236943   6.892   1.206   2.039
 9156SOL    HW336944   7.042   1.213   2.022
 9156SOL    MW436945   6.972   1.180   2.061
 9157SOL     OW36946   5.973   1.305   2.739
 9157SOL    HW236947   5.949   1.358   2.815
 9157SOL    HW336948   6.029   1.363   2.687
 9157SOL    MW436949   5.977   1.320   2.742
 9158SOL     OW36950   6.535   0.949   2.549
 9158SOL    HW236951   6.449   0.936   2.589
 9158SOL    HW336952   6.588   0.876   2.581
 9158SOL    MW436953   6.531   0.938   2.558
 9159SOL     OW36954   5.943   1.601   3.334
 9159SOL    HW236955   5.851   1.577   3.319
 9159SOL    HW336956   5.987   1.518   3.351
 9159SOL    MW436957   5.937   1.586   3.333
 9160SOL     OW36958   6.526   1.311   2.266
 9160SOL    HW236959   6.503   1.373   2.334
 9160SOL    HW336960   6.483   1.229   2.292
 9160SOL    MW436961   6.518   1.307   2.277
 9161SOL     OW36962   7.399   0.312   2.722
 9161SOL    HW236963   7.336   0.292   2.791
 9161SOL    HW336964   7.389   0.241   2.659
 9161SOL    MW436965   7.389   0.299   2.723
 9162SOL     OW36966   6.023   0.284   2.234
 9162SOL    HW236967   5.997   0.246   2.150
 9162SOL    HW336968   5.960   0.354   2.250
 9162SOL    MW436969   6.012   0.287   2.225
 9163SOL     OW36970   5.858   1.245   2.271
 9163SOL    HW236971   5.806   1.313   2.227
 9163SOL    HW336972   5.855   1.171   2.211
 9163SOL    MW436973   5.850   1.244   2.258
 9164SOL     OW36974   6.520   1.708   2.049
 9164SOL    HW236975   6.475   1.724   2.132
 9164SOL    HW336976   6.451   1.673   1.991
 9164SOL    MW436977   6.506   1.705   2.051
 9165SOL     OW36978   7.455   0.481   2.024
 9165SOL    HW236979   7.364   0.483   2.052
 9165SOL    HW336980   7.500   0.543   2.082
 9165SOL    MW436981   7.448   0.489   2.034
 9166SOL     OW36982   7.200   1.084   2.374
 9166SOL    HW236983   7.110   1.084   2.409
 9166SOL    HW336984   7.193   1.130   2.291
 9166SOL    MW436985   7.187   1.090   2.368
 9167SOL     OW36986   7.000   0.719   3.446
 9167SOL    HW236987   7.069   0.657   3.423
 9167SOL    HW336988   6.925   0.693   3.393
 9167SOL    MW436989   7.000   0.706   3.437
 9168SOL     OW36990   5.741   1.599   2.998
 9168SOL    HW236991   5.724   1.545   3.075
 9168SOL    HW336992   5.729   1.689   3.028
 9168SOL    MW436993   5.738   1.603   3.012
 9169SOL     OW36994   6.736   1.106   3.438
 9169SOL    HW236995   6.721   1.199   3.423
 9169SOL    HW336996   6.831   1.096   3.438
 9169SOL    MW436997   6.745   1.116   3.435
 9170SOL     OW36998   6.532   0.530   3.639
 9170SOL    HW236999   6.622   0.531   3.606
 9170SOL    HW337000   6.491   0.455   3.597
 9170SOL    MW437001   6.538   0.520   3.630
 9171SOL     OW37002   7.107   1.062   2.766
 9171SOL    HW237003   7.110   0.996   2.697
 9171SOL    HW337004   7.192   1.105   2.762
 9171SOL    MW437005   7.119   1.058   2.757
 9172SOL     OW37006   6.727   0.665   2.335
 9172SOL    HW237007   6.753   0.689   2.246
 9172SOL    HW337008   6.709   0.572   2.331
 9172SOL    MW437009   6.729   0.657   2.322
 9173SOL     OW37010   7.392   1.285   2.186
 9173SOL    HW237011   7.348   1.326   2.261
 9173SOL    HW337012   7.449   1.353   2.151
 9173SOL    MW437013   7.394   1.299   2.191
 9174SOL     OW37014   6.048   1.701   2.504
 9174SOL    HW237015   6.080   1.789   2.482
 9174SOL    HW337016   6.001   1.673   2.426
 9174SOL    MW437017   6.047   1.709   2.491
 9175SOL     OW37018   7.432   0.063   2.553
 9175SOL    HW237019   7.486   0.014   2.615
 9175SOL    HW337020   7.375  -0.003   2.514
 9175SOL    MW437021   7.432   0.047   2.555
 9176SOL     OW37022   5.764   1.761   2.081
 9176SOL    HW237023   5.793   1.851   2.073
 9176SOL    HW337024   5.714   1.744   2.002
 9176SOL    MW437025   5.762   1.769   2.070
 9177SOL     OW37026   6.551   0.016   2.966
 9177SOL    HW237027   6.510   0.094   2.928
 9177SOL    HW337028   6.645   0.034   2.961
 9177SOL    MW437029   6.557   0.028   2.961
 9178SOL     OW37030   7.168   1.569   2.052
 9178SOL    HW237031   7.216   1.638   2.098
 9178SOL    HW337032   7.089   1.613   2.021
 9178SOL    MW437033   7.163   1.583   2.055
 9179SOL     OW37034   6.566   0.694   1.996
 9179SOL    HW237035   6.568   0.641   1.917
 9179SOL    HW337036   6.654   0.731   2.002
 9179SOL    MW437037   6.578   0.693   1.985
 9180SOL     OW37038   7.180   0.620   2.332
 9180SOL    HW237039   7.219   0.620   2.419
 9180SOL    HW337040   7.121   0.696   2.332
 9180SOL    MW437041   7.177   0.631   2.343
 9181SOL     OW37042   6.497   0.987   3.461
 9181SOL    HW237043   6.474   0.967   3.551
 9181SOL    HW337044   6.582   1.031   3.466
 9181SOL    MW437045   6.504   0.990   3.473
 9182SOL     OW37046   6.577   0.124   3.221
 9182SOL    HW237047   6.583   0.086   3.134
 9182SOL    HW337048   6.566   0.218   3.206
 9182SOL    MW437049   6.578   0.132   3.209
 9183SOL     OW37050   6.666   0.613   3.055
 9183SOL    HW237051   6.741   0.642   3.002
 9183SOL    HW337052   6.598   0.678   3.039
 9183SOL    MW437053   6.667   0.625   3.045
 9184SOL     OW37054   7.216   0.581   3.332
 9184SOL    HW237055   7.197   0.490   3.311
 9184SOL    HW337056   7.194   0.630   3.253
 9184SOL    MW437057   7.211   0.574   3.319
 9185SOL     OW37058   7.358   1.675   3.236
 9185SOL    HW237059   7.286   1.637   3.287
 9185SOL    HW337060   7.375   1.760   3.277
 9185SOL    MW437061   7.352   1.680   3.248
 9186SOL     OW37062   6.663   0.319   3.438
 9186SOL    HW237063   6.629   0.358   3.357
 9186SOL    HW337064   6.641   0.227   3.431
 9186SOL    MW437065   6.656   0.312   3.428
 9187SOL     OW37066   7.072   1.133   3.514
 9187SOL    HW237067   7.154   1.174   3.544
 9187SOL    HW337068   7.035   1.095   3.594
 9187SOL    MW437069   7.078   1.134   3.529
 9188SOL     OW37070   7.367   0.506   2.498
 9188SOL    HW237071   7.456   0.475   2.515
 9188SOL    HW337072   7.310   0.446   2.546
 9188SOL    MW437073   7.370   0.494   2.507
 9189SOL     OW37074   5.793   0.220   2.527
 9189SOL    HW237075   5.784   0.160   2.453
 9189SOL    HW337076   5.726   0.191   2.590
 9189SOL    MW437077   5.783   0.207   2.525
 9190SOL     OW37078   6.736   1.313   2.088
 9190SOL    HW237079   6.686   1.315   2.170
 9190SOL    HW337080   6.670   1.331   2.020
 9190SOL    MW437081   6.722   1.315   2.090
 9191SOL     OW37082   5.740   0.393   2.890
 9191SOL    HW237083   5.712   0.484   2.899
 9191SOL    HW337084   5.677   0.354   2.829
 9191SOL    MW437085   5.727   0.399   2.884
 9192SOL     OW37086   6.199   1.731   2.196
 9192SOL    HW237087   6.120   1.689   2.229
 9192SOL    HW337088   6.265   1.714   2.263
 9192SOL    MW437089   6.198   1.723   2.209
 9193SOL     OW37090   7.327   1.251   3.593
 9193SOL    HW237091   7.377   1.177   3.625
 9193SOL    HW337092   7.273   1.278   3.668
 9193SOL    MW437093   7.327   1.245   3.606
 9194SOL     OW37094   6.335   1.146   1.903
 9194SOL    HW237095   6.257   1.092   1.890
 9194SOL    HW337096   6.306   1.219   1.956
 9194SOL    MW437097   6.321   1.148   1.908
 9195SOL     OW37098   7.461   0.886   3.095
 9195SOL    HW237099   7.477   0.924   3.008
 9195SOL    HW337100   7.495   0.952   3.156
 9195SOL    MW437101   7.468   0.899   3.091
 9196SOL     OW37102   7.253   1.595   2.764
 9196SOL    HW237103   7.282   1.662   2.825
 9196SOL    HW337104   7.234   1.519   2.819
 9196SOL    MW437105   7.255   1.595   2.779
 9197SOL     OW37106   6.916   1.662   1.971
 9197SOL    HW237107   6.842   1.625   2.021
 9197SOL    HW337108   6.924   1.752   2.004
 9197SOL    MW437109   6.907   1.669   1.983
 9198SOL     OW37110   5.724   0.668   3.060
 9198SOL    HW237111   5.786   0.698   3.126
 9198SOL    HW337112   5.658   0.737   3.054
 9198SOL    MW437113   5.723   0.681   3.067
 9199SOL     OW37114   7.140   1.336   1.913
 9199SOL    HW237115   7.087   1.385   1.849
 9199SOL    HW337116   7.171   1.402   1.974
 9199SOL    MW437117   7.138   1.350   1.911
 9200SOL     OW37118   6.365   0.225   1.968
 9200SOL    HW237119   6.313   0.145   1.956
 9200SOL    HW337120   6.452   0.202   1.936
 9200SOL    MW437121   6.368   0.211   1.962
 9201SOL     OW37122   5.819   1.777   3.512
 9201SOL    HW237123   5.793   1.845   3.450
 9201SOL    HW337124   5.867   1.714   3.460
 9201SOL    MW437125   5.821   1.777   3.498
 9202SOL     OW37126   5.871   1.096   3.019
 9202SOL    HW237127   5.924   1.171   3.044
 9202SOL    HW337128   5.790   1.134   2.985
 9202SOL    MW437129   5.867   1.111   3.019
 9203SOL     OW37130   6.411   1.000   3.007
 9203SOL    HW237131   6.439   0.909   3.019
 9203SOL    HW337132   6.340   0.994   2.943
 9203SOL    MW437133   6.404   0.988   3.002
 9204SOL     OW37134   5.726   0.865   2.425
 9204SOL    HW237135   5.817   0.880   2.452
 9204SOL    HW337136   5.729   0.786   2.371
 9204SOL    MW437137   5.738   0.857   2.423
 9205SOL     OW37138   5.962   0.573   3.679
 9205SOL    HW237139   5.909   0.653   3.686
 9205SOL    HW337140   6.032   0.585   3.744
 9205SOL    MW437141   5.964   0.586   3.687
 9206SOL     OW37142   6.348   0.123   3.386
 9206SOL    HW237143   6.325   0.031   3.388
 9206SOL    HW337144   6.434   0.125   3.343
 9206SOL    MW437145   6.355   0.113   3.382
 9207SOL     OW37146   6.032   0.647   3.425
 9207SOL    HW237147   6.112   0.697   3.411
 9207SOL    HW337148   6.023   0.641   3.520
 9207SOL    MW437149   6.041   0.653   3.435
 9208SOL     OW37150   6.353   1.797   2.799
 9208SOL    HW237151   6.442   1.812   2.829
 9208SOL    HW337152   6.348   1.844   2.715
 9208SOL    MW437153   6.363   1.805   2.792
 9209SOL     OW37154   7.009   0.172   3.696
 9209SOL    HW237155   7.065   0.099   3.722
 9209SOL    HW337156   6.979   0.210   3.778
 9209SOL    MW437157   7.013   0.167   3.709
 9210SOL     OW37158   5.734   1.477   2.464
 9210SOL    HW237159   5.706   1.516   2.546
 9210SOL    HW337160   5.754   1.386   2.486
 9210SOL    MW437161   5.732   1.469   2.477
 9211SOL     OW37162   6.567   1.520   2.499
 9211SOL    HW237163   6.650   1.474   2.483
 9211SOL    HW337164   6.557   1.519   2.595
 9211SOL    MW437165   6.577   1.513   2.509
 9212SOL     OW37166   7.399   0.665   2.813
 9212SOL    HW237167   7.488   0.695   2.795
 9212SOL    HW337168   7.379   0.605   2.742
 9212SOL    MW437169   7.408   0.662   2.802
 9213SOL     OW37170   7.250   0.844   3.693
 9213SOL    HW237171   7.305   0.768   3.674
 9213SOL    HW337172   7.252   0.852   3.788
 9213SOL    MW437173   7.258   0.835   3.701
 9214SOL     OW37174   6.300   1.577   1.904
 9214SOL    HW237175   6.240   1.646   1.874
 9214SOL    HW337176   6.245   1.519   1.957
 9214SOL    MW437177   6.284   1.579   1.906
 9215SOL     OW37178   6.738   0.222   2.127
 9215SOL    HW237179   6.671   0.198   2.064
 9215SOL    HW337180   6.803   0.271   2.076
 9215SOL    MW437181   6.738   0.224   2.112
 9216SOL     OW37182   6.545   0.406   3.212
 9216SOL    HW237183   6.464   0.447   3.240
 9216SOL    HW337184   6.592   0.474   3.164
 9216SOL    MW437185   6.540   0.421   3.210
 9217SOL     OW37186   6.805   0.744   2.835
 9217SOL    HW237187   6.818   0.838   2.845
 9217SOL    HW337188   6.766   0.734   2.749
 9217SOL    MW437189   6.801   0.755   2.825
 9218SOL     OW37190   6.257   0.939   2.639
 9218SOL    HW237191   6.168   0.930   2.672
 9218SOL    HW337192   6.261   1.029   2.607
 9218SOL    MW437193   6.246   0.950   2.639
 9219SOL     OW37194   7.056   0.522   2.634
 9219SOL    HW237195   7.001   0.443   2.633
 9219SOL    HW337196   7.038   0.563   2.718
 9219SOL    MW437197   7.046   0.517   2.643
 9220SOL     OW37198   6.027   0.209   3.451
 9220SOL    HW237199   5.948   0.227   3.503
 9220SOL    HW337200   6.022   0.271   3.378
 9220SOL    MW437201   6.017   0.219   3.448
 9221SOL     OW37202   6.675   0.726   2.591
 9221SOL    HW237203   6.612   0.658   2.615
 9221SOL    HW337204   6.695   0.707   2.499
 9221SOL    MW437205   6.669   0.713   2.583
 9222SOL     OW37206   5.931   1.621   2.293
 9222SOL    HW237207   5.892   1.668   2.219
 9222SOL    HW337208   5.865   1.556   2.318
 9222SOL    MW437209   5.918   1.619   2.287
 9223SOL     OW37210   6.423   1.030   2.317
 9223SOL    HW237211   6.425   1.004   2.224
 9223SOL    HW337212   6.481   0.967   2.360
 9223SOL    MW437213   6.431   1.019   2.311
 9224SOL     OW37214   6.976   1.590   3.089
 9224SOL    HW237215   6.901   1.636   3.127
 9224SOL    HW337216   6.958   1.497   3.106
 9224SOL    MW437217   6.965   1.584   3.097
 9225SOL     OW37218   6.980   1.798   2.519
 9225SOL    HW237219   6.923   1.751   2.458
 9225SOL    HW337220   7.066   1.759   2.506
 9225SOL    MW437221   6.983   1.789   2.509
 9226SOL     OW37222   6.933   0.274   2.650
 9226SOL    HW237223   6.961   0.206   2.711
 9226SOL    HW337224   6.847   0.245   2.620
 9226SOL    MW437225   6.926   0.261   2.654
 9227SOL     OW37226   5.738   1.208   2.584
 9227SOL    HW237227   5.802   1.240   2.647
 9227SOL    HW337228   5.787   1.144   2.532
 9227SOL    MW437229   5.753   1.204   2.585
 9228SOL     OW37230   6.238   1.284   3.566
 9228SOL    HW237231   6.286   1.367   3.553
 9228SOL    HW337232   6.295   1.232   3.622
 9228SOL    MW437233   6.252   1.288   3.572
 9229SOL     OW37234   5.814   1.526   3.706
 9229SOL    HW237235   5.870   1.450   3.721
 9229SOL    HW337236   5.763   1.504   3.628
 9229SOL    MW437237   5.814   1.513   3.697
 9230SOL     OW37238   6.913   0.378   1.985
 9230SOL    HW237239   6.886   0.444   1.921
 9230SOL    HW337240   6.983   0.421   2.035
 9230SOL    MW437241   6.918   0.391   1.982
 9231SOL     OW37242   6.581   0.083   1.922
 9231SOL    HW237243   6.637   0.075   1.844
 9231SOL    HW337244   6.558  -0.007   1.944
 9231SOL    MW437245   6.586   0.070   1.915
 9232SOL     OW37246   7.086   0.934   2.127
 9232SOL    HW237247   7.053   1.023   2.117
 9232SOL    HW337248   7.051   0.905   2.212
 9232SOL    MW437249   7.076   0.943   2.138
 9233SOL     OW37250   6.699   1.363   3.315
 9233SOL    HW237251   6.610   1.369   3.283
 9233SOL    HW337252   6.743   1.442   3.283
 9233SOL    MW437253   6.694   1.373   3.307
 9234SOL     OW37254   5.992   0.031   3.657
 9234SOL    HW237255   5.920  -0.004   3.605
 9234SOL    HW337256   6.050   0.072   3.592
 9234SOL    MW437257   5.990   0.032   3.642
 9235SOL     OW37258   6.016   1.521   2.956
 9235SOL    HW237259   6.061   1.583   3.013
 9235SOL    HW337260   5.923   1.540   2.969
 9235SOL    MW437261   6.009   1.531   2.963
 9236SOL     OW37262   7.456   1.050   3.310
 9236SOL    HW237263   7.371   1.063   3.269
 9236SOL    HW337264   7.436   1.014   3.397
 9236SOL    MW437265   7.443   1.046   3.315
 9237SOL     OW37266   6.438   1.589   3.064
 9237SOL    HW237267   6.462   1.578   2.973
 9237SOL    HW337268   6.361   1.646   3.062
 9237SOL    MW437269   6.430   1.594   3.053
 9238SOL     OW37270   6.080   0.972   1.919
 9238SOL    HW237271   6.003   0.985   1.975
 9238SOL    HW337272   6.044   0.936   1.838
 9238SOL    MW437273   6.066   0.968   1.916
 9239SOL     OW37274   6.733   0.945   2.162
 9239SOL    HW237275   6.643   0.966   2.137
 9239SOL    HW337276   6.760   1.018   2.218
 9239SOL    MW437277   6.725   0.957   2.165
 9240SOL     OW37278   6.233   1.294   2.854
 9240SOL    HW237279   6.226   1.273   2.948
 9240SOL    HW337280   6.151   1.262   2.817
 9240SOL    MW437281   6.221   1.288   2.861
 9241SOL     OW37282   7.097   0.304   3.256
 9241SOL    HW237283   7.044   0.306   3.336
 9241SOL    HW337284   7.082   0.217   3.219
 9241SOL    MW437285   7.089   0.294   3.261
 9242SOL     OW37286   7.433   0.228   3.129
 9242SOL    HW237287   7.414   0.295   3.064
 9242SOL    HW337288   7.490   0.166   3.084
 9242SOL    MW437289   7.437   0.229   3.115
 9243SOL     OW37290   5.679   1.386   3.517
 9243SOL    HW237291   5.723   1.319   3.463
 9243SOL    HW337292   5.594   1.348   3.537
 9243SOL    MW437293   5.674   1.372   3.513
 9244SOL     OW37294   6.362   0.061   2.569
 9244SOL    HW237295   6.291   0.122   2.551
 9244SOL    HW337296   6.413   0.058   2.488
 9244SOL    MW437297   6.358   0.067   2.556
 9245SOL     OW37298   6.120   1.301   2.318
 9245SOL    HW237299   6.113   1.333   2.408
 9245SOL    HW337300   6.030   1.285   2.290
 9245SOL    MW437301   6.108   1.303   2.325
 9246SOL     OW37302   6.715   1.694   3.227
 9246SOL    HW237303   6.635   1.679   3.177
 9246SOL    HW337304   6.722   1.789   3.234
 9246SOL    MW437305   6.706   1.705   3.221
 9247SOL     OW37306   6.829   1.659   2.717
 9247SOL    HW237307   6.876   1.732   2.676
 9247SOL    HW337308   6.750   1.698   2.753
 9247SOL    MW437309   6.824   1.674   2.716
 9248SOL     OW37310   7.237   1.754   2.992
 9248SOL    HW237311   7.280   1.724   3.072
 9248SOL    HW337312   7.156   1.702   2.989
 9248SOL    MW437313   7.232   1.743   3.002
 9249SOL     OW37314   6.322   0.718   3.699
 9249SOL    HW237315   6.392   0.660   3.671
 9249SOL    HW337316   6.265   0.663   3.754
 9249SOL    MW437317   6.324   0.705   3.703
 9250SOL     OW37318   7.109   0.930   3.332
 9250SOL    HW237319   7.114   0.983   3.412
 9250SOL    HW337320   7.071   0.847   3.360
 9250SOL    MW437321   7.105   0.925   3.347
 9251SOL     OW37322   6.123   0.585   2.032
 9251SOL    HW237323   6.089   0.641   2.102
 9251SOL    HW337324   6.194   0.535   2.072
 9251SOL    MW437325   6.129   0.586   2.046
 9252SOL     OW37326   7.219   1.336   2.854
 9252SOL    HW237327   7.254   1.318   2.767
 9252SOL    HW337328   7.124   1.337   2.841
 9252SOL    MW437329   7.211   1.333   2.841
 9253SOL     OW37330   6.648   0.984   3.223
 9253SOL    HW237331   6.691   1.019   3.301
 9253SOL    HW337332   6.631   1.061   3.169
 9253SOL    MW437333   6.651   0.999   3.226
 9254SOL     OW37334   7.179   0.471   2.096
 9254SOL    HW237335   7.171   0.542   2.033
 9254SOL    HW337336   7.197   0.515   2.179
 9254SOL    MW437337   7.180   0.485   2.098
 9255SOL     OW37338   6.039   0.126   2.525
 9255SOL    HW237339   6.089   0.169   2.456
 9255SOL    HW337340   5.954   0.170   2.525
 9255SOL    MW437341   6.036   0.139   2.516
 9256SOL     OW37342   5.798   1.188   3.385
 9256SOL    HW237343   5.826   1.141   3.463
 9256SOL    HW337344   5.719   1.143   3.356
 9256SOL    MW437345   5.791   1.177   3.391
 9257SOL     OW37346   6.306   0.515   3.352
 9257SOL    HW237347   6.278   0.603   3.376
 9257SOL    HW337348   6.275   0.459   3.423
 9257SOL    MW437349   6.298   0.518   3.364
 9258SOL     OW37350   6.848   0.733   2.071
 9258SOL    HW237351   6.895   0.751   1.990
 9258SOL    HW337352   6.814   0.817   2.099
 9258SOL    MW437353   6.850   0.747   2.064
 9259SOL     OW37354   5.961   0.911   2.565
 9259SOL    HW237355   6.019   0.967   2.513
 9259SOL    HW337356   6.005   0.826   2.567
 9259SOL    MW437357   5.974   0.908   2.558
 9260SOL     OW37358   7.101   0.263   2.402
 9260SOL    HW237359   7.023   0.213   2.427
 9260SOL    HW337360   7.072   0.354   2.402
 9260SOL    MW437361   7.087   0.267   2.405
 9261SOL     OW37362   6.687   0.225   2.561
 9261SOL    HW237363   6.707   0.300   2.505
 9261SOL    HW337364   6.667   0.264   2.646
 9261SOL    MW437365   6.688   0.241   2.565
 9262SOL     OW37366   6.583   1.475   1.893
 9262SOL    HW237367   6.610   1.553   1.845
 9262SOL    HW337368   6.490   1.490   1.912
 9262SOL    MW437369   6.574   1.488   1.889
 9263SOL     OW37370   7.447   0.998   3.580
 9263SOL    HW237371   7.360   0.978   3.616
 9263SOL    HW337372   7.501   0.924   3.605
 9263SOL    MW437373   7.442   0.987   3.588
 9264SOL     OW37374   5.668   1.511   2.737
 9264SOL    HW237375   5.700   1.515   2.828
 9264SOL    HW337376   5.573   1.519   2.745
 9264SOL    MW437377   5.660   1.514   2.750
 9265SOL     OW37378   5.623   0.637   2.284
 9265SOL    HW237379   5.563   0.609   2.354
 9265SOL    HW337380   5.697   0.577   2.290
 9265SOL    MW437381   5.625   0.626   2.293
 9266SOL     OW37382   7.191   1.849   3.718
 9266SOL    HW237383   7.236   1.773   3.683
 9266SOL    HW337384   7.229   1.862   3.805
 9266SOL    MW437385   7.201   1.842   3.724
 9267SOL     OW37386   6.791   1.368   2.444
 9267SOL    HW237387   6.814   1.319   2.522
 9267SOL    HW337388   6.872   1.410   2.416
 9267SOL    MW437389   6.804   1.368   2.451
 9268SOL     OW37390   6.049   0.376   3.173
 9268SOL    HW237391   6.082   0.457   3.213
 9268SOL    HW337392   6.022   0.402   3.085
 9268SOL    MW437393   6.048   0.390   3.167
 9269SOL     OW37394   6.003   0.343   2.909
 9269SOL    HW237395   6.033   0.257   2.880
 9269SOL    HW337396   5.908   0.336   2.912
 9269SOL    MW437397   5.995   0.332   2.907
 9270SOL     OW37398   6.832   0.552   3.600
 9270SOL    HW237399   6.884   0.487   3.553
 9270SOL    HW337400   6.790   0.603   3.530
 9270SOL    MW437401   6.833   0.549   3.583
 9271SOL     OW37402   6.931   0.347   3.461
 9271SOL    HW237403   6.838   0.331   3.448
 9271SOL    HW337404   6.957   0.285   3.529
 9271SOL    MW437405   6.921   0.337   3.468
 9272SOL     OW37406   6.146   0.121   2.800
 9272SOL    HW237407   6.156   0.030   2.826
 9272SOL    HW337408   6.102   0.117   2.715
 9272SOL    MW437409   6.142   0.109   2.792
 9273SOL     OW37410   6.240   1.736   3.346
 9273SOL    HW237411   6.157   1.721   3.391
 9273SOL    HW337412   6.299   1.669   3.381
 9273SOL    MW437413   6.238   1.726   3.356
 9274SOL     OW37414   7.297   0.443   2.971
 9274SOL    HW237415   7.230   0.476   3.031
 9274SOL    HW337416   7.340   0.521   2.937
 9274SOL    MW437417   7.295   0.458   2.975
 9275SOL     OW37418   7.475   1.163   2.941
 9275SOL    HW237419   7.468   1.103   2.866
 9275SOL    HW337420   7.401   1.223   2.930
 9275SOL    MW437421   7.465   1.163   2.930
 9276SOL     OW37422   6.857   1.025   2.859
 9276SOL    HW237423   6.871   0.997   2.950
 9276SOL    HW337424   6.943   1.056   2.831
 9276SOL    MW437425   6.870   1.026   2.868
 9277SOL     OW37426   6.940   0.520   3.138
 9277SOL    HW237427   6.961   0.521   3.045
 9277SOL    HW337428   6.985   0.442   3.171
 9277SOL    MW437429   6.947   0.510   3.130
 9278SOL     OW37430   7.433   0.651   3.680
 9278SOL    HW237431   7.470   0.596   3.749
 9278SOL    HW337432   7.458   0.608   3.598
 9278SOL    MW437433   7.440   0.639   3.679
 9279SOL     OW37434   6.980   0.949   3.731
 9279SOL    HW237435   7.046   0.897   3.685
 9279SOL    HW337436   7.000   0.936   3.824
 9279SOL    MW437437   6.991   0.940   3.738
 9280SOL     OW37438   6.991   0.810   2.358
 9280SOL    HW237439   6.906   0.780   2.328
 9280SOL    HW337440   6.983   0.817   2.453
 9280SOL    MW437441   6.979   0.808   2.367
 9281SOL     OW37442   6.067   1.273   3.089
 9281SOL    HW237443   6.079   1.300   3.180
 9281SOL    HW337444   6.048   1.354   3.042
 9281SOL    MW437445   6.066   1.288   3.094
 9282SOL     OW37446   6.351   0.253   2.912
 9282SOL    HW237447   6.324   0.255   3.003
 9282SOL    HW337448   6.281   0.205   2.867
 9282SOL    MW437449   6.339   0.249   2.919
 9283SOL     OW37450   6.205   1.745   3.074
 9283SOL    HW237451   6.257   1.822   3.051
 9283SOL    HW337452   6.214   1.737   3.169
 9283SOL    MW437453   6.214   1.752   3.085
 9284SOL     OW37454   7.107   1.330   3.306
 9284SOL    HW237455   7.092   1.259   3.369
 9284SOL    HW337456   7.153   1.288   3.234
 9284SOL    MW437457   7.113   1.314   3.306
 9285SOL     OW37458   6.181   1.061   3.423
 9285SOL    HW237459   6.218   1.066   3.335
 9285SOL    HW337460   6.220   1.134   3.470
 9285SOL    MW437461   6.191   1.071   3.418
 9286SOL     OW37462   6.361   1.104   3.235
 9286SOL    HW237463   6.420   1.050   3.288
 9286SOL    HW337464   6.376   1.076   3.145
 9286SOL    MW437465   6.371   1.093   3.231
 9287SOL     OW37466   6.364   0.476   2.084
 9287SOL    HW237467   6.437   0.525   2.047
 9287SOL    HW337468   6.380   0.385   2.058
 9287SOL    MW437469   6.376   0.471   2.077
 9288SOL     OW37470   7.172   1.593   3.407
 9288SOL    HW237471   7.214   1.578   3.492
 9288SOL    HW337472   7.163   1.506   3.369
 9288SOL    MW437473   7.176   1.581   3.414
 9289SOL     OW37474   6.832   0.072   2.998
 9289SOL    HW237475   6.887   0.081   2.920
 9289SOL    HW337476   6.887   0.106   3.069
 9289SOL    MW437477   6.846   0.077   2.997
 9290SOL     OW37478   5.839   0.985   2.182
 9290SOL    HW237479   5.776   1.001   2.111
 9290SOL    HW337480   5.786   0.948   2.253
 9290SOL    MW437481   5.824   0.982   2.182
 9291SOL     OW37482   6.195   1.339   2.041
 9291SOL    HW237483   6.210   1.315   2.133
 9291SOL    HW337484   6.103   1.317   2.025
 9291SOL    MW437485   6.185   1.332   2.051
 9292SOL     OW37486   6.734   1.570   2.193
 9292SOL    HW237487   6.742   1.488   2.144
 9292SOL    HW337488   6.653   1.609   2.160
 9292SOL    MW437489   6.724   1.565   2.183
 9293SOL     OW37490   5.993   1.728   2.762
 9293SOL    HW237491   5.997   1.639   2.797
 9293SOL    HW337492   6.019   1.719   2.671
 9293SOL    MW437493   5.996   1.716   2.754
 9294SOL     OW37494   6.610   1.206   3.005
 9294SOL    HW237495   6.542   1.140   3.021
 9294SOL    HW337496   6.628   1.200   2.912
 9294SOL    MW437497   6.603   1.197   2.996
 9295SOL     OW37498   5.699   1.481   3.256
 9295SOL    HW237499   5.689   1.439   3.342
 9295SOL    HW337500   5.620   1.534   3.246
 9295SOL    MW437501   5.688   1.482   3.267
 9296SOL     OW37502   6.603   0.345   2.826
 9296SOL    HW237503   6.533   0.297   2.871
 9296SOL    HW337504   6.635   0.408   2.890
 9296SOL    MW437505   6.598   0.347   2.840
 9297SOL     OW37506   6.254   0.781   3.446
 9297SOL    HW237507   6.247   0.876   3.434
 9297SOL    HW337508   6.263   0.770   3.541
 9297SOL    MW437509   6.255   0.793   3.456
 9298SOL     OW37510   5.975   1.296   3.704
 9298SOL    HW237511   6.047   1.298   3.641
 9298SOL    HW337512   5.945   1.205   3.703
 9298SOL    MW437513   5.980   1.285   3.696
 9299SOL     OW37514   7.059   0.059   3.171
 9299SOL    HW237515   7.130   0.005   3.135
 9299SOL    HW337516   7.058   0.038   3.264
 9299SOL    MW437517   7.068   0.050   3.179
 9300SOL     OW37518   7.259   1.589   3.655
 9300SOL    HW237519   7.232   1.586   3.746
 9300SOL    HW337520   7.355   1.593   3.658
 9300SOL    MW437521   7.269   1.589   3.667
 9301SOL     OW37522   6.070   0.451   2.639
 9301SOL    HW237523   6.141   0.399   2.602
 9301SOL    HW337524   6.056   0.416   2.726
 9301SOL    MW437525   6.078   0.440   2.646
 9302SOL     OW37526   5.625   1.786   3.711
 9302SOL    HW237527   5.675   1.764   3.633
 9302SOL    HW337528   5.633   1.881   3.719
 9302SOL    MW437529   5.633   1.795   3.702
 9303SOL     OW37530   6.386   1.544   2.715
 9303SOL    HW237531   6.314   1.481   2.728
 9303SOL    HW337532   6.347   1.629   2.733
 9303SOL    MW437533   6.370   1.547   2.718
 9304SOL     OW37534   6.706   0.392   2.363
 9304SOL    HW237535   6.728   0.329   2.295
 9304SOL    HW337536   6.611   0.384   2.374
 9304SOL    MW437537   6.696   0.383   2.355
 9305SOL     OW37538   5.791   0.082   2.295
 9305SOL    HW237539   5.862   0.103   2.234
 9305SOL    HW337540   5.745   0.010   2.253
 9305SOL    MW437541   5.795   0.076   2.281
 9306SOL     OW37542   5.622   0.549   3.438
 9306SOL    HW237543   5.686   0.615   3.413
 9306SOL    HW337544   5.541   0.576   3.395
 9306SOL    MW437545   5.620   0.561   3.430
 9307SOL     OW37546   7.360   1.456   2.395
 9307SOL    HW237547   7.330   1.389   2.456
 9307SOL    HW337548   7.454   1.462   2.409
 9307SOL    MW437549   7.368   1.448   2.405
 9308SOL     OW37550   6.916   1.133   2.325
 9308SOL    HW237551   6.888   1.219   2.358
 9308SOL    HW337552   6.944   1.149   2.235
 9308SOL    MW437553   6.916   1.147   2.317
 9309SOL     OW37554   6.578   0.053   2.378
 9309SOL    HW237555   6.615   0.112   2.443
 9309SOL    HW337556   6.555   0.109   2.304
 9309SOL    MW437557   6.579   0.068   2.377
 9310SOL     OW37558   7.431   0.935   2.800
 9310SOL    HW237559   7.422   0.967   2.711
 9310SOL    HW337560   7.384   0.851   2.800
 9310SOL    MW437561   7.424   0.928   2.790
 9311SOL     OW37562   5.807   0.775   3.379
 9311SOL    HW237563   5.828   0.844   3.317
 9311SOL    HW337564   5.887   0.722   3.384
 9311SOL    MW437565   5.820   0.776   3.373
 9312SOL     OW37566   7.343   0.866   2.501
 9312SOL    HW237567   7.437   0.855   2.489
 9312SOL    HW337568   7.319   0.938   2.442
 9312SOL    MW437569   7.353   0.874   2.492
 9313SOL     OW37570   5.792   0.790   3.646
 9313SOL    HW237571   5.718   0.734   3.672
 9313SOL    HW337572   5.787   0.793   3.551
 9313SOL    MW437573   5.781   0.783   3.636
 9314SOL     OW37574   5.999   0.744   2.274
 9314SOL    HW237575   5.999   0.839   2.259
 9314SOL    HW337576   6.076   0.728   2.328
 9314SOL    MW437577   6.009   0.755   2.279
 9315SOL     OW37578   6.775   0.603   3.338
 9315SOL    HW237579   6.811   0.576   3.254
 9315SOL    HW337580   6.688   0.637   3.317
 9315SOL    MW437581   6.769   0.604   3.325
 9316SOL     OW37582   5.758   0.475   2.563
 9316SOL    HW237583   5.820   0.482   2.636
 9316SOL    HW337584   5.758   0.382   2.540
 9316SOL    MW437585   5.766   0.464   2.570
 9317SOL     OW37586   7.305   1.815   2.095
 9317SOL    HW237587   7.372   1.848   2.035
 9317SOL    HW337588   7.262   1.894   2.129
 9317SOL    MW437589   7.307   1.830   2.091
 9318SOL     OW37590   6.440   0.736   3.047
 9318SOL    HW237591   6.398   0.654   3.023
 9318SOL    HW337592   6.441   0.735   3.143
 9318SOL    MW437593   6.433   0.725   3.056
 9319SOL     OW37594   7.111   1.869   3.446
 9319SOL    HW237595   7.114   1.775   3.429
 9319SOL    HW337596   7.134   1.877   3.538
 9319SOL    MW437597   7.114   1.857   3.456
 9320SOL     OW37598   6.244   0.206   3.152
 9320SOL    HW237599   6.175   0.269   3.173
 9320SOL    HW337600   6.271   0.170   3.237
 9320SOL    MW437601   6.238   0.209   3.165
 9321SOL     OW37602   5.627   1.047   2.021
 9321SOL    HW237603   5.596   1.112   2.084
 9321SOL    HW337604   5.576   0.969   2.040
 9321SOL    MW437605   5.617   1.044   2.031
 9322SOL     OW37606   7.039   0.059   2.769
 9322SOL    HW237607   7.127   0.068   2.806
 9322SOL    HW337608   7.049   0.000   2.695
 9322SOL    MW437609   7.053   0.053   2.763
 9323SOL     OW37610   7.071   0.798   2.613
 9323SOL    HW237611   7.151   0.813   2.562
 9323SOL    HW337612   7.064   0.703   2.619
 9323SOL    MW437613   7.080   0.787   2.608
 9324SOL     OW37614   6.211   1.847   1.963
 9324SOL    HW237615   6.116   1.847   1.955
 9324SOL    HW337616   6.227   1.793   2.041
 9324SOL    MW437617   6.201   1.841   1.972
 9325SOL     OW37618   6.521   0.724   3.310
 9325SOL    HW237619   6.590   0.791   3.307
 9325SOL    HW337620   6.454   0.762   3.366
 9325SOL    MW437621   6.522   0.737   3.317
 9326SOL     OW37622   5.939   1.024   3.558
 9326SOL    HW237623   5.893   0.940   3.560
 9326SOL    HW337624   5.996   1.018   3.482
 9326SOL    MW437625   5.941   1.012   3.550
 9327SOL     OW37626   7.056   0.667   1.879
 9327SOL    HW237627   6.984   0.643   1.821
 9327SOL    HW337628   7.122   0.704   1.821
 9327SOL    MW437629   7.055   0.669   1.864
 9328SOL     OW37630   6.190   1.399   2.559
 9328SOL    HW237631   6.255   1.332   2.580
 9328SOL    HW337632   6.242   1.476   2.536
 9328SOL    MW437633   6.205   1.401   2.558
 9329SOL     OW37634   6.451   0.564   2.689
 9329SOL    HW237635   6.391   0.582   2.761
 9329SOL    HW337636   6.485   0.476   2.708
 9329SOL    MW437637   6.447   0.554   2.702
 9330SOL     OW37638   7.392   0.063   3.358
 9330SOL    HW237639   7.313   0.109   3.386
 9330SOL    HW337640   7.427   0.117   3.287
 9330SOL    MW437641   7.386   0.076   3.352
 9331SOL     OW37642   6.676   1.147   2.708
 9331SOL    HW237643   6.768   1.128   2.726
 9331SOL    HW337644   6.649   1.077   2.648
 9331SOL    MW437645   6.684   1.135   2.702
 9332SOL     OW37646   6.469   0.967   2.063
 9332SOL    HW237647   6.455   0.879   2.028
 9332SOL    HW337648   6.420   1.024   2.004
 9332SOL    MW437649   6.461   0.962   2.051
 9333SOL     OW37650   6.950   1.385   2.804
 9333SOL    HW237651   6.923   1.469   2.769
 9333SOL    HW337652   6.910   1.380   2.891
 9333SOL    MW437653   6.943   1.394   2.810
 9334SOL     OW37654   6.869   1.333   3.072
 9334SOL    HW237655   6.880   1.300   3.161
 9334SOL    HW337656   6.788   1.292   3.041
 9334SOL    MW437657   6.859   1.325   3.078
 9335SOL     OW37658   5.882   0.691   2.842
 9335SOL    HW237659   5.832   0.690   2.923
 9335SOL    HW337660   5.902   0.783   2.826
 9335SOL    MW437661   5.878   0.703   2.850
 9336SOL     OW37662   6.949   1.455   3.604
 9336SOL    HW237663   6.949   1.549   3.620
 9336SOL    HW337664   6.994   1.445   3.520
 9336SOL    MW437665   6.955   1.465   3.595
 9337SOL     OW37666   7.188   0.173   2.165
 9337SOL    HW237667   7.181   0.177   2.260
 9337SOL    HW337668   7.200   0.264   2.138
 9337SOL    MW437669   7.189   0.186   2.173
 9338SOL     OW37670   6.477   0.736   2.279
 9338SOL    HW237671   6.457   0.722   2.186
 9338SOL    HW337672   6.570   0.715   2.286
 9338SOL    MW437673   6.487   0.731   2.268
 9339SOL     OW37674   5.804   0.359   3.583
 9339SOL    HW237675   5.761   0.418   3.520
 9339SOL    HW337676   5.872   0.414   3.623
 9339SOL    MW437677   5.808   0.374   3.580
 9340SOL     OW37678   6.916   0.979   3.128
 9340SOL    HW237679   6.979   0.976   3.201
 9340SOL    HW337680   6.832   0.997   3.170
 9340SOL    MW437681   6.912   0.981   3.143
 9341SOL     OW37682   6.460   1.694   2.317
 9341SOL    HW237683   6.518   1.765   2.344
 9341SOL    HW337684   6.483   1.622   2.375
 9341SOL    MW437685   6.471   1.694   2.328
 9342SOL     OW37686   7.255   0.156   2.907
 9342SOL    HW237687   7.300   0.074   2.926
 9342SOL    HW337688   7.275   0.212   2.983
 9342SOL    MW437689   7.265   0.152   2.919
 9343SOL     OW37690   5.703  -0.001   3.006
 9343SOL    HW237691   5.694   0.000   2.911
 9343SOL    HW337692   5.797   0.011   3.021
 9343SOL    MW437693   5.715   0.002   2.997
 9344SOL     OW37694   7.340   1.192   2.626
 9344SOL    HW237695   7.319   1.138   2.549
 9344SOL    HW337696   7.436   1.190   2.630
 9344SOL    MW437697   7.349   1.185   2.615
 9345SOL     OW37698   6.032   1.337   3.369
 9345SOL    HW237699   5.953   1.287   3.392
 9345SOL    HW337700   6.102   1.296   3.419
 9345SOL    MW437701   6.030   1.325   3.379
 9346SOL     OW37702   5.916   0.126   2.052
 9346SOL    HW237703   5.845   0.181   2.020
 9346SOL    HW337704   5.958   0.092   1.973
 9346SOL    MW437705   5.912   0.128   2.038
 9347SOL     OW37706   7.040   0.623   2.888
 9347SOL    HW237707   6.963   0.669   2.854
 9347SOL    HW337708   7.097   0.692   2.922
 9347SOL    MW437709   7.037   0.638   2.888
 9348SOL     OW37710   5.672   0.225   1.901
 9348SOL    HW237711   5.639   0.304   1.945
 9348SOL    HW337712   5.727   0.258   1.830
 9348SOL    MW437713   5.675   0.239   1.898
 9349SOL     OW37714   5.706   1.482   2.090
 9349SOL    HW237715   5.723   1.566   2.132
 9349SOL    HW337716   5.741   1.491   2.002
 9349SOL    MW437717   5.711   1.495   2.084
 9350SOL     OW37718   6.978   1.571   2.307
 9350SOL    HW237719   7.041   1.561   2.236
 9350SOL    HW337720   6.895   1.591   2.262
 9350SOL    MW437721   6.975   1.572   2.292
 9351SOL     OW37722   7.341   0.839   3.993
 9351SOL    HW237723   7.382   0.781   4.058
 9351SOL    HW337724   7.248   0.831   4.010
 9351SOL    MW437725   7.335   0.831   4.003
 9352SOL     OW37726   7.207   0.771   4.988
 9352SOL    HW237727   7.162   0.838   5.039
 9352SOL    HW337728   7.295   0.807   4.974
 9352SOL    MW437729   7.213   0.784   4.992
 9353SOL     OW37730   6.135   1.022   4.222
 9353SOL    HW237731   6.225   0.997   4.206
 9353SOL    HW337732   6.131   1.115   4.199
 9353SOL    MW437733   6.147   1.031   4.217
 9354SOL     OW37734   7.251   1.725   4.364
 9354SOL    HW237735   7.263   1.671   4.442
 9354SOL    HW337736   7.288   1.673   4.293
 9354SOL    MW437737   7.257   1.710   4.365
 9355SOL     OW37738   6.630   1.610   5.365
 9355SOL    HW237739   6.671   1.646   5.286
 9355SOL    HW337740   6.665   1.521   5.372
 9355SOL    MW437741   6.641   1.603   5.356
 9356SOL     OW37742   7.187   1.165   4.969
 9356SOL    HW237743   7.108   1.130   4.927
 9356SOL    HW337744   7.214   1.237   4.913
 9356SOL    MW437745   7.180   1.170   4.956
 9357SOL     OW37746   6.419   0.478   4.235
 9357SOL    HW237747   6.394   0.566   4.263
 9357SOL    HW337748   6.416   0.481   4.139
 9357SOL    MW437749   6.415   0.490   4.227
 9358SOL     OW37750   5.861   0.506   4.163
 9358SOL    HW237751   5.893   0.594   4.145
 9358SOL    HW337752   5.849   0.504   4.258
 9358SOL    MW437753   5.864   0.518   4.175
 9359SOL     OW37754   5.939   0.919   5.064
 9359SOL    HW237755   6.002   0.866   5.015
 9359SOL    HW337756   5.920   0.993   5.007
 9359SOL    MW437757   5.945   0.921   5.051
 9360SOL     OW37758   6.260   0.261   4.250
 9360SOL    HW237759   6.318   0.337   4.252
 9360SOL    HW337760   6.195   0.282   4.183
 9360SOL    MW437761   6.259   0.273   4.241
 9361SOL     OW37762   6.372   1.529   5.328
 9361SOL    HW237763   6.456   1.555   5.367
 9361SOL    HW337764   6.396   1.473   5.254
 9361SOL    MW437765   6.386   1.525   5.323
 9362SOL     OW37766   6.124   0.692   4.416
 9362SOL    HW237767   6.109   0.612   4.467
 9362SOL    HW337768   6.206   0.727   4.450
 9362SOL    MW437769   6.132   0.684   4.428
 9363SOL     OW37770   6.461   1.378   5.101
 9363SOL    HW237771   6.425   1.444   5.041
 9363SOL    HW337772   6.389   1.316   5.114
 9363SOL    MW437773   6.447   1.378   5.095
 9364SOL     OW37774   6.266   0.518   4.793
 9364SOL    HW237775   6.172   0.514   4.811
 9364SOL    HW337776   6.296   0.427   4.802
 9364SOL    MW437777   6.257   0.506   4.796
 9365SOL     OW37778   6.012   0.932   4.697
 9365SOL    HW237779   5.967   0.939   4.613
 9365SOL    HW337780   5.992   1.015   4.741
 9365SOL    MW437781   6.004   0.944   4.691
 9366SOL     OW37782   5.709   1.778   4.572
 9366SOL    HW237783   5.798   1.770   4.607
 9366SOL    HW337784   5.673   1.690   4.577
 9366SOL    MW437785   5.716   1.765   4.577
 9367SOL     OW37786   6.974   1.170   3.941
 9367SOL    HW237787   6.892   1.206   3.907
 9367SOL    HW337788   7.042   1.213   3.890
 9367SOL    MW437789   6.972   1.180   3.929
 9368SOL     OW37790   5.973   1.305   4.607
 9368SOL    HW237791   5.949   1.358   4.683
 9368SOL    HW337792   6.029   1.363   4.555
 9368SOL    MW437793   5.977   1.320   4.610
 9369SOL     OW37794   6.535   0.949   4.417
 9369SOL    HW237795   6.449   0.936   4.457
 9369SOL    HW337796   6.588   0.876   4.449
 9369SOL    MW437797   6.531   0.938   4.426
 9370SOL     OW37798   5.943   1.601   5.202
 9370SOL    HW237799   5.851   1.577   5.187
 9370SOL    HW337800   5.987   1.518   5.219
 9370SOL    MW437801   5.937   1.586   5.201
 9371SOL     OW37802   6.526   1.311   4.134
 9371SOL    HW237803   6.503   1.373   4.202
 9371SOL    HW337804   6.483   1.229   4.160
 9371SOL    MW437805   6.518   1.307   4.145
 9372SOL     OW37806   7.399   0.312   4.590
 9372SOL    HW237807   7.336   0.292   4.659
 9372SOL    HW337808   7.389   0.241   4.527
 9372SOL    MW437809   7.389   0.299   4.591
 9373SOL     OW37810   6.023   0.284   4.102
 9373SOL    HW237811   5.997   0.246   4.018
 9373SOL    HW337812   5.960   0.354   4.118
 9373SOL    MW437813   6.012   0.287   4.093
 9374SOL     OW37814   5.858   1.245   4.139
 9374SOL    HW237815   5.806   1.313   4.095
 9374SOL    HW337816   5.855   1.171   4.079
 9374SOL    MW437817   5.850   1.244   4.126
 9375SOL     OW37818   6.520   1.708   3.917
 9375SOL    HW237819   6.475   1.724   4.000
 9375SOL    HW337820   6.451   1.673   3.859
 9375SOL    MW437821   6.506   1.705   3.919
 9376SOL     OW37822   7.455   0.481   3.892
 9376SOL    HW237823   7.364   0.483   3.920
 9376SOL    HW337824   7.500   0.543   3.950
 9376SOL    MW437825   7.448   0.489   3.902
 9377SOL     OW37826   7.200   1.084   4.242
 9377SOL    HW237827   7.110   1.084   4.277
 9377SOL    HW337828   7.193   1.130   4.159
 9377SOL    MW437829   7.187   1.090   4.236
 9378SOL     OW37830   5.741   1.599   4.866
 9378SOL    HW237831   5.724   1.545   4.943
 9378SOL    HW337832   5.729   1.689   4.896
 9378SOL    MW437833   5.738   1.603   4.880
 9379SOL     OW37834   6.736   1.106   5.306
 9379SOL    HW237835   6.721   1.199   5.291
 9379SOL    HW337836   6.831   1.096   5.306
 9379SOL    MW437837   6.745   1.116   5.303
 9380SOL     OW37838   6.532   0.530   5.507
 9380SOL    HW237839   6.622   0.531   5.474
 9380SOL    HW337840   6.491   0.455   5.465
 9380SOL    MW437841   6.538   0.520   5.498
 9381SOL     OW37842   7.107   1.062   4.634
 9381SOL    HW237843   7.110   0.996   4.565
 9381SOL    HW337844   7.192   1.105   4.630
 9381SOL    MW437845   7.119   1.058   4.625
 9382SOL     OW37846   6.727   0.665   4.203
 9382SOL    HW237847   6.753   0.689   4.114
 9382SOL    HW337848   6.709   0.572   4.199
 9382SOL    MW437849   6.729   0.657   4.190
 9383SOL     OW37850   7.392   1.285   4.054
 9383SOL    HW237851   7.348   1.326   4.129
 9383SOL    HW337852   7.449   1.353   4.019
 9383SOL    MW437853   7.394   1.299   4.059
 9384SOL     OW37854   6.312   0.334   5.457
 9384SOL    HW237855   6.322   0.260   5.397
 9384SOL    HW337856   6.348   0.303   5.540
 9384SOL    MW437857   6.318   0.320   5.459
 9385SOL     OW37858   6.048   1.701   4.372
 9385SOL    HW237859   6.080   1.789   4.350
 9385SOL    HW337860   6.001   1.673   4.294
 9385SOL    MW437861   6.047   1.709   4.359
 9386SOL     OW37862   7.432   0.063   4.421
 9386SOL    HW237863   7.486   0.014   4.483
 9386SOL    HW337864   7.375  -0.003   4.382
 9386SOL    MW437865   7.432   0.047   4.423
 9387SOL     OW37866   5.764   1.761   3.949
 9387SOL    HW237867   5.793   1.851   3.941
 9387SOL    HW337868   5.714   1.744   3.870
 9387SOL    MW437869   5.762   1.769   3.938
 9388SOL     OW37870   6.551   0.016   4.834
 9388SOL    HW237871   6.510   0.094   4.796
 9388SOL    HW337872   6.645   0.034   4.829
 9388SOL    MW437873   6.557   0.028   4.829
 9389SOL     OW37874   7.168   1.569   3.920
 9389SOL    HW237875   7.216   1.638   3.966
 9389SOL    HW337876   7.089   1.613   3.889
 9389SOL    MW437877   7.163   1.583   3.923
 9390SOL     OW37878   6.566   0.694   3.864
 9390SOL    HW237879   6.568   0.641   3.785
 9390SOL    HW337880   6.654   0.731   3.870
 9390SOL    MW437881   6.578   0.693   3.853
 9391SOL     OW37882   7.180   0.620   4.200
 9391SOL    HW237883   7.219   0.620   4.287
 9391SOL    HW337884   7.121   0.696   4.200
 9391SOL    MW437885   7.177   0.631   4.211
 9392SOL     OW37886   6.497   0.987   5.329
 9392SOL    HW237887   6.474   0.967   5.419
 9392SOL    HW337888   6.582   1.031   5.334
 9392SOL    MW437889   6.504   0.990   5.341
 9393SOL     OW37890   6.577   0.124   5.089
 9393SOL    HW237891   6.583   0.086   5.002
 9393SOL    HW337892   6.566   0.218   5.074
 9393SOL    MW437893   6.578   0.132   5.077
 9394SOL     OW37894   6.666   0.613   4.923
 9394SOL    HW237895   6.741   0.642   4.870
 9394SOL    HW337896   6.598   0.678   4.907
 9394SOL    MW437897   6.667   0.625   4.913
 9395SOL     OW37898   7.216   0.581   5.200
 9395SOL    HW237899   7.197   0.490   5.179
 9395SOL    HW337900   7.194   0.630   5.121
 9395SOL    MW437901   7.211   0.574   5.187
 9396SOL     OW37902   7.358   1.675   5.104
 9396SOL    HW237903   7.286   1.637   5.155
 9396SOL    HW337904   7.375   1.760   5.145
 9396SOL    MW437905   7.352   1.680   5.116
 9397SOL     OW37906   6.663   0.319   5.306
 9397SOL    HW237907   6.629   0.358   5.225
 9397SOL    HW337908   6.641   0.227   5.299
 9397SOL    MW437909   6.656   0.312   5.296
 9398SOL     OW37910   7.072   1.133   5.382
 9398SOL    HW237911   7.154   1.174   5.412
 9398SOL    HW337912   7.035   1.095   5.462
 9398SOL    MW437913   7.078   1.134   5.397
 9399SOL     OW37914   7.367   0.506   4.366
 9399SOL    HW237915   7.456   0.475   4.383
 9399SOL    HW337916   7.310   0.446   4.414
 9399SOL    MW437917   7.370   0.494   4.375
 9400SOL     OW37918   5.793   0.220   4.395
 9400SOL    HW237919   5.784   0.160   4.321
 9400SOL    HW337920   5.726   0.191   4.458
 9400SOL    MW437921   5.783   0.207   4.393
 9401SOL     OW37922   6.736   1.313   3.956
 9401SOL    HW237923   6.686   1.315   4.038
 9401SOL    HW337924   6.670   1.331   3.888
 9401SOL    MW437925   6.722   1.315   3.958
 9402SOL     OW37926   5.740   0.393   4.758
 9402SOL    HW237927   5.712   0.484   4.767
 9402SOL    HW337928   5.677   0.354   4.697
 9402SOL    MW437929   5.727   0.399   4.752
 9403SOL     OW37930   6.199   1.731   4.064
 9403SOL    HW237931   6.120   1.689   4.097
 9403SOL    HW337932   6.265   1.714   4.131
 9403SOL    MW437933   6.198   1.723   4.077
 9404SOL     OW37934   7.327   1.251   5.461
 9404SOL    HW237935   7.377   1.177   5.493
 9404SOL    HW337936   7.273   1.278   5.536
 9404SOL    MW437937   7.327   1.245   5.474
 9405SOL     OW37938   6.335   1.146   3.771
 9405SOL    HW237939   6.257   1.092   3.758
 9405SOL    HW337940   6.306   1.219   3.824
 9405SOL    MW437941   6.321   1.148   3.776
 9406SOL     OW37942   7.461   0.886   4.963
 9406SOL    HW237943   7.477   0.924   4.876
 9406SOL    HW337944   7.495   0.952   5.024
 9406SOL    MW437945   7.468   0.899   4.959
 9407SOL     OW37946   7.253   1.595   4.632
 9407SOL    HW237947   7.282   1.662   4.693
 9407SOL    HW337948   7.234   1.519   4.687
 9407SOL    MW437949   7.255   1.595   4.647
 9408SOL     OW37950   6.916   1.662   3.839
 9408SOL    HW237951   6.842   1.625   3.889
 9408SOL    HW337952   6.924   1.752   3.872
 9408SOL    MW437953   6.907   1.669   3.851
 9409SOL     OW37954   5.724   0.668   4.928
 9409SOL    HW237955   5.786   0.698   4.994
 9409SOL    HW337956   5.658   0.737   4.922
 9409SOL    MW437957   5.723   0.681   4.935
 9410SOL     OW37958   7.140   1.336   3.781
 9410SOL    HW237959   7.087   1.385   3.717
 9410SOL    HW337960   7.171   1.402   3.842
 9410SOL    MW437961   7.138   1.350   3.779
 9411SOL     OW37962   6.365   0.225   3.836
 9411SOL    HW237963   6.313   0.145   3.824
 9411SOL    HW337964   6.452   0.202   3.804
 9411SOL    MW437965   6.368   0.211   3.830
 9412SOL     OW37966   5.819   1.777   5.380
 9412SOL    HW237967   5.793   1.845   5.318
 9412SOL    HW337968   5.867   1.714   5.328
 9412SOL    MW437969   5.821   1.777   5.366
 9413SOL     OW37970   5.871   1.096   4.887
 9413SOL    HW237971   5.924   1.171   4.912
 9413SOL    HW337972   5.790   1.134   4.853
 9413SOL    MW437973   5.867   1.111   4.887
 9414SOL     OW37974   6.411   1.000   4.875
 9414SOL    HW237975   6.439   0.909   4.887
 9414SOL    HW337976   6.340   0.994   4.811
 9414SOL    MW437977   6.404   0.988   4.870
 9415SOL     OW37978   5.726   0.865   4.293
 9415SOL    HW237979   5.817   0.880   4.320
 9415SOL    HW337980   5.729   0.786   4.239
 9415SOL    MW437981   5.738   0.857   4.291
 9416SOL     OW37982   5.962   0.573   5.547
 9416SOL    HW237983   5.909   0.653   5.554
 9416SOL    HW337984   6.032   0.585   5.612
 9416SOL    MW437985   5.964   0.586   5.555
 9417SOL     OW37986   6.348   0.123   5.254
 9417SOL    HW237987   6.325   0.031   5.256
 9417SOL    HW337988   6.434   0.125   5.211
 9417SOL    MW437989   6.355   0.113   5.250
 9418SOL     OW37990   6.032   0.647   5.293
 9418SOL    HW237991   6.112   0.697   5.279
 9418SOL    HW337992   6.023   0.641   5.388
 9418SOL    MW437993   6.041   0.653   5.303
 9419SOL     OW37994   6.353   1.797   4.667
 9419SOL    HW237995   6.442   1.812   4.697
 9419SOL    HW337996   6.348   1.844   4.583
 9419SOL    MW437997   6.363   1.805   4.660
 9420SOL     OW37998   7.009   0.172   5.564
 9420SOL    HW237999   7.065   0.099   5.590
 9420SOL    HW338000   6.979   0.210   5.646
 9420SOL    MW438001   7.013   0.167   5.577
 9421SOL     OW38002   5.734   1.477   4.332
 9421SOL    HW238003   5.706   1.516   4.414
 9421SOL    HW338004   5.754   1.386   4.354
 9421SOL    MW438005   5.732   1.469   4.345
 9422SOL     OW38006   6.567   1.520   4.367
 9422SOL    HW238007   6.650   1.474   4.351
 9422SOL    HW338008   6.557   1.519   4.463
 9422SOL    MW438009   6.577   1.513   4.377
 9423SOL     OW38010   7.399   0.665   4.681
 9423SOL    HW238011   7.488   0.695   4.663
 9423SOL    HW338012   7.379   0.605   4.610
 9423SOL    MW438013   7.408   0.662   4.670
 9424SOL     OW38014   7.250   0.844   5.561
 9424SOL    HW238015   7.305   0.768   5.542
 9424SOL    HW338016   7.252   0.852   5.656
 9424SOL    MW438017   7.258   0.835   5.569
 9425SOL     OW38018   6.300   1.577   3.772
 9425SOL    HW238019   6.240   1.646   3.742
 9425SOL    HW338020   6.245   1.519   3.825
 9425SOL    MW438021   6.284   1.579   3.774
 9426SOL     OW38022   6.738   0.222   3.995
 9426SOL    HW238023   6.671   0.198   3.932
 9426SOL    HW338024   6.803   0.271   3.944
 9426SOL    MW438025   6.738   0.224   3.980
 9427SOL     OW38026   6.545   0.406   5.080
 9427SOL    HW238027   6.464   0.447   5.108
 9427SOL    HW338028   6.592   0.474   5.032
 9427SOL    MW438029   6.540   0.421   5.078
 9428SOL     OW38030   6.805   0.744   4.703
 9428SOL    HW238031   6.818   0.838   4.713
 9428SOL    HW338032   6.766   0.734   4.617
 9428SOL    MW438033   6.801   0.755   4.693
 9429SOL     OW38034   6.257   0.939   4.507
 9429SOL    HW238035   6.168   0.930   4.540
 9429SOL    HW338036   6.261   1.029   4.475
 9429SOL    MW438037   6.246   0.950   4.507
 9430SOL     OW38038   7.056   0.522   4.502
 9430SOL    HW238039   7.001   0.443   4.501
 9430SOL    HW338040   7.038   0.563   4.586
 9430SOL    MW438041   7.046   0.517   4.511
 9431SOL     OW38042   6.027   0.209   5.319
 9431SOL    HW238043   5.948   0.227   5.371
 9431SOL    HW338044   6.022   0.271   5.246
 9431SOL    MW438045   6.017   0.219   5.316
 9432SOL     OW38046   6.675   0.726   4.459
 9432SOL    HW238047   6.612   0.658   4.483
 9432SOL    HW338048   6.695   0.707   4.367
 9432SOL    MW438049   6.669   0.713   4.451
 9433SOL     OW38050   5.931   1.621   4.161
 9433SOL    HW238051   5.892   1.668   4.087
 9433SOL    HW338052   5.865   1.556   4.186
 9433SOL    MW438053   5.918   1.619   4.155
 9434SOL     OW38054   6.423   1.030   4.185
 9434SOL    HW238055   6.425   1.004   4.092
 9434SOL    HW338056   6.481   0.967   4.228
 9434SOL    MW438057   6.431   1.019   4.179
 9435SOL     OW38058   6.976   1.590   4.957
 9435SOL    HW238059   6.901   1.636   4.995
 9435SOL    HW338060   6.958   1.497   4.974
 9435SOL    MW438061   6.965   1.584   4.965
 9436SOL     OW38062   6.980   1.798   4.387
 9436SOL    HW238063   6.923   1.751   4.326
 9436SOL    HW338064   7.066   1.759   4.374
 9436SOL    MW438065   6.983   1.789   4.377
 9437SOL     OW38066   6.933   0.274   4.518
 9437SOL    HW238067   6.961   0.206   4.579
 9437SOL    HW338068   6.847   0.245   4.488
 9437SOL    MW438069   6.926   0.261   4.522
 9438SOL     OW38070   5.738   1.208   4.452
 9438SOL    HW238071   5.802   1.240   4.515
 9438SOL    HW338072   5.787   1.144   4.400
 9438SOL    MW438073   5.753   1.204   4.453
 9439SOL     OW38074   6.238   1.284   5.434
 9439SOL    HW238075   6.286   1.367   5.421
 9439SOL    HW338076   6.295   1.232   5.490
 9439SOL    MW438077   6.252   1.288   5.440
 9440SOL     OW38078   5.814   1.526   5.574
 9440SOL    HW238079   5.870   1.450   5.589
 9440SOL    HW338080   5.763   1.504   5.496
 9440SOL    MW438081   5.814   1.513   5.565
 9441SOL     OW38082   6.913   0.378   3.853
 9441SOL    HW238083   6.886   0.444   3.789
 9441SOL    HW338084   6.983   0.421   3.903
 9441SOL    MW438085   6.918   0.391   3.850
 9442SOL     OW38086   6.581   0.083   3.790
 9442SOL    HW238087   6.637   0.075   3.712
 9442SOL    HW338088   6.558  -0.007   3.812
 9442SOL    MW438089   6.586   0.070   3.783
 9443SOL     OW38090   7.086   0.934   3.995
 9443SOL    HW238091   7.053   1.023   3.985
 9443SOL    HW338092   7.051   0.905   4.080
 9443SOL    MW438093   7.076   0.943   4.006
 9444SOL     OW38094   6.699   1.363   5.183
 9444SOL    HW238095   6.610   1.369   5.151
 9444SOL    HW338096   6.743   1.442   5.151
 9444SOL    MW438097   6.694   1.373   5.175
 9445SOL     OW38098   5.992   0.031   5.525
 9445SOL    HW238099   5.920  -0.004   5.473
 9445SOL    HW338100   6.050   0.072   5.460
 9445SOL    MW438101   5.990   0.032   5.510
 9446SOL     OW38102   6.016   1.521   4.824
 9446SOL    HW238103   6.061   1.583   4.881
 9446SOL    HW338104   5.923   1.540   4.837
 9446SOL    MW438105   6.009   1.531   4.831
 9447SOL     OW38106   7.456   1.050   5.178
 9447SOL    HW238107   7.371   1.063   5.137
 9447SOL    HW338108   7.436   1.014   5.265
 9447SOL    MW438109   7.443   1.046   5.183
 9448SOL     OW38110   6.438   1.589   4.932
 9448SOL    HW238111   6.462   1.578   4.841
 9448SOL    HW338112   6.361   1.646   4.930
 9448SOL    MW438113   6.430   1.594   4.921
 9449SOL     OW38114   6.080   0.972   3.787
 9449SOL    HW238115   6.003   0.985   3.843
 9449SOL    HW338116   6.044   0.936   3.706
 9449SOL    MW438117   6.066   0.968   3.784
 9450SOL     OW38118   6.733   0.945   4.030
 9450SOL    HW238119   6.643   0.966   4.005
 9450SOL    HW338120   6.760   1.018   4.086
 9450SOL    MW438121   6.725   0.957   4.033
 9451SOL     OW38122   6.233   1.294   4.722
 9451SOL    HW238123   6.226   1.273   4.816
 9451SOL    HW338124   6.151   1.262   4.685
 9451SOL    MW438125   6.221   1.288   4.729
 9452SOL     OW38126   7.097   0.304   5.124
 9452SOL    HW238127   7.044   0.306   5.204
 9452SOL    HW338128   7.082   0.217   5.087
 9452SOL    MW438129   7.089   0.294   5.129
 9453SOL     OW38130   7.433   0.228   4.997
 9453SOL    HW238131   7.414   0.295   4.932
 9453SOL    HW338132   7.490   0.166   4.952
 9453SOL    MW438133   7.437   0.229   4.983
 9454SOL     OW38134   5.679   1.386   5.385
 9454SOL    HW238135   5.723   1.319   5.331
 9454SOL    HW338136   5.594   1.348   5.405
 9454SOL    MW438137   5.674   1.372   5.381
 9455SOL     OW38138   6.362   0.061   4.437
 9455SOL    HW238139   6.291   0.122   4.419
 9455SOL    HW338140   6.413   0.058   4.356
 9455SOL    MW438141   6.358   0.067   4.424
 9456SOL     OW38142   6.120   1.301   4.186
 9456SOL    HW238143   6.113   1.333   4.276
 9456SOL    HW338144   6.030   1.285   4.158
 9456SOL    MW438145   6.108   1.303   4.193
 9457SOL     OW38146   6.715   1.694   5.095
 9457SOL    HW238147   6.635   1.679   5.045
 9457SOL    HW338148   6.722   1.789   5.102
 9457SOL    MW438149   6.706   1.705   5.089
 9458SOL     OW38150   6.829   1.659   4.585
 9458SOL    HW238151   6.876   1.732   4.544
 9458SOL    HW338152   6.750   1.698   4.621
 9458SOL    MW438153   6.824   1.674   4.584
 9459SOL     OW38154   7.237   1.754   4.860
 9459SOL    HW238155   7.280   1.724   4.940
 9459SOL    HW338156   7.156   1.702   4.857
 9459SOL    MW438157   7.232   1.743   4.870
 9460SOL     OW38158   6.322   0.718   5.567
 9460SOL    HW238159   6.392   0.660   5.539
 9460SOL    HW338160   6.265   0.663   5.622
 9460SOL    MW438161   6.324   0.705   5.571
 9461SOL     OW38162   7.109   0.930   5.200
 9461SOL    HW238163   7.114   0.983   5.280
 9461SOL    HW338164   7.071   0.847   5.228
 9461SOL    MW438165   7.105   0.925   5.215
 9462SOL     OW38166   6.123   0.585   3.900
 9462SOL    HW238167   6.089   0.641   3.970
 9462SOL    HW338168   6.194   0.535   3.940
 9462SOL    MW438169   6.129   0.586   3.914
 9463SOL     OW38170   7.219   1.336   4.722
 9463SOL    HW238171   7.254   1.318   4.635
 9463SOL    HW338172   7.124   1.337   4.709
 9463SOL    MW438173   7.211   1.333   4.709
 9464SOL     OW38174   6.648   0.984   5.091
 9464SOL    HW238175   6.691   1.019   5.169
 9464SOL    HW338176   6.631   1.061   5.037
 9464SOL    MW438177   6.651   0.999   5.094
 9465SOL     OW38178   7.179   0.471   3.964
 9465SOL    HW238179   7.171   0.542   3.901
 9465SOL    HW338180   7.197   0.515   4.047
 9465SOL    MW438181   7.180   0.485   3.966
 9466SOL     OW38182   6.039   0.126   4.393
 9466SOL    HW238183   6.089   0.169   4.324
 9466SOL    HW338184   5.954   0.170   4.393
 9466SOL    MW438185   6.036   0.139   4.384
 9467SOL     OW38186   5.798   1.188   5.253
 9467SOL    HW238187   5.826   1.141   5.331
 9467SOL    HW338188   5.719   1.143   5.224
 9467SOL    MW438189   5.791   1.177   5.259
 9468SOL     OW38190   6.306   0.515   5.220
 9468SOL    HW238191   6.278   0.603   5.244
 9468SOL    HW338192   6.275   0.459   5.291
 9468SOL    MW438193   6.298   0.518   5.232
 9469SOL     OW38194   6.848   0.733   3.939
 9469SOL    HW238195   6.895   0.751   3.858
 9469SOL    HW338196   6.814   0.817   3.967
 9469SOL    MW438197   6.850   0.747   3.932
 9470SOL     OW38198   5.961   0.911   4.433
 9470SOL    HW238199   6.019   0.967   4.381
 9470SOL    HW338200   6.005   0.826   4.435
 9470SOL    MW438201   5.974   0.908   4.426
 9471SOL     OW38202   7.101   0.263   4.270
 9471SOL    HW238203   7.023   0.213   4.295
 9471SOL    HW338204   7.072   0.354   4.270
 9471SOL    MW438205   7.087   0.267   4.273
 9472SOL     OW38206   6.687   0.225   4.429
 9472SOL    HW238207   6.707   0.300   4.373
 9472SOL    HW338208   6.667   0.264   4.514
 9472SOL    MW438209   6.688   0.241   4.433
 9473SOL     OW38210   6.583   1.475   3.761
 9473SOL    HW238211   6.610   1.553   3.713
 9473SOL    HW338212   6.490   1.490   3.780
 9473SOL    MW438213   6.574   1.488   3.757
 9474SOL     OW38214   7.447   0.998   5.448
 9474SOL    HW238215   7.360   0.978   5.484
 9474SOL    HW338216   7.501   0.924   5.473
 9474SOL    MW438217   7.442   0.987   5.456
 9475SOL     OW38218   5.668   1.511   4.605
 9475SOL    HW238219   5.700   1.515   4.696
 9475SOL    HW338220   5.573   1.519   4.613
 9475SOL    MW438221   5.660   1.514   4.618
 9476SOL     OW38222   5.623   0.637   4.152
 9476SOL    HW238223   5.563   0.609   4.222
 9476SOL    HW338224   5.697   0.577   4.158
 9476SOL    MW438225   5.625   0.626   4.161
 9477SOL     OW38226   6.791   1.368   4.312
 9477SOL    HW238227   6.814   1.319   4.390
 9477SOL    HW338228   6.872   1.410   4.284
 9477SOL    MW438229   6.804   1.368   4.319
 9478SOL     OW38230   6.049   0.376   5.041
 9478SOL    HW238231   6.082   0.457   5.081
 9478SOL    HW338232   6.022   0.402   4.953
 9478SOL    MW438233   6.048   0.390   5.035
 9479SOL     OW38234   6.003   0.343   4.777
 9479SOL    HW238235   6.033   0.257   4.748
 9479SOL    HW338236   5.908   0.336   4.780
 9479SOL    MW438237   5.995   0.332   4.775
 9480SOL     OW38238   6.832   0.552   5.468
 9480SOL    HW238239   6.884   0.487   5.421
 9480SOL    HW338240   6.790   0.603   5.398
 9480SOL    MW438241   6.833   0.549   5.451
 9481SOL     OW38242   6.931   0.347   5.329
 9481SOL    HW238243   6.838   0.331   5.316
 9481SOL    HW338244   6.957   0.285   5.397
 9481SOL    MW438245   6.921   0.337   5.336
 9482SOL     OW38246   6.146   0.121   4.668
 9482SOL    HW238247   6.156   0.030   4.694
 9482SOL    HW338248   6.102   0.117   4.583
 9482SOL    MW438249   6.142   0.109   4.660
 9483SOL     OW38250   6.240   1.736   5.214
 9483SOL    HW238251   6.157   1.721   5.259
 9483SOL    HW338252   6.299   1.669   5.249
 9483SOL    MW438253   6.238   1.726   5.224
 9484SOL     OW38254   7.297   0.443   4.839
 9484SOL    HW238255   7.230   0.476   4.899
 9484SOL    HW338256   7.340   0.521   4.805
 9484SOL    MW438257   7.295   0.458   4.843
 9485SOL     OW38258   7.475   1.163   4.809
 9485SOL    HW238259   7.468   1.103   4.734
 9485SOL    HW338260   7.401   1.223   4.798
 9485SOL    MW438261   7.465   1.163   4.798
 9486SOL     OW38262   6.857   1.025   4.727
 9486SOL    HW238263   6.871   0.997   4.818
 9486SOL    HW338264   6.943   1.056   4.699
 9486SOL    MW438265   6.870   1.026   4.736
 9487SOL     OW38266   6.940   0.520   5.006
 9487SOL    HW238267   6.961   0.521   4.913
 9487SOL    HW338268   6.985   0.442   5.039
 9487SOL    MW438269   6.947   0.510   4.998
 9488SOL     OW38270   7.433   0.651   5.548
 9488SOL    HW238271   7.470   0.596   5.617
 9488SOL    HW338272   7.458   0.608   5.466
 9488SOL    MW438273   7.440   0.639   5.547
 9489SOL     OW38274   6.980   0.949   5.600
 9489SOL    HW238275   7.046   0.897   5.554
 9489SOL    HW338276   7.000   0.936   5.693
 9489SOL    MW438277   6.991   0.940   5.607
 9490SOL     OW38278   6.991   0.810   4.226
 9490SOL    HW238279   6.906   0.780   4.196
 9490SOL    HW338280   6.983   0.817   4.321
 9490SOL    MW438281   6.979   0.808   4.235
 9491SOL     OW38282   6.067   1.273   4.957
 9491SOL    HW238283   6.079   1.300   5.048
 9491SOL    HW338284   6.048   1.354   4.910
 9491SOL    MW438285   6.066   1.288   4.962
 9492SOL     OW38286   6.351   0.253   4.780
 9492SOL    HW238287   6.324   0.255   4.871
 9492SOL    HW338288   6.281   0.205   4.735
 9492SOL    MW438289   6.339   0.249   4.787
 9493SOL     OW38290   6.205   1.745   4.942
 9493SOL    HW238291   6.257   1.822   4.919
 9493SOL    HW338292   6.214   1.737   5.037
 9493SOL    MW438293   6.214   1.752   4.953
 9494SOL     OW38294   7.107   1.330   5.174
 9494SOL    HW238295   7.092   1.259   5.237
 9494SOL    HW338296   7.153   1.288   5.102
 9494SOL    MW438297   7.113   1.314   5.174
 9495SOL     OW38298   6.181   1.061   5.291
 9495SOL    HW238299   6.218   1.066   5.203
 9495SOL    HW338300   6.220   1.134   5.338
 9495SOL    MW438301   6.191   1.071   5.286
 9496SOL     OW38302   6.361   1.104   5.103
 9496SOL    HW238303   6.420   1.050   5.156
 9496SOL    HW338304   6.376   1.076   5.013
 9496SOL    MW438305   6.371   1.093   5.099
 9497SOL     OW38306   6.364   0.476   3.952
 9497SOL    HW238307   6.437   0.525   3.915
 9497SOL    HW338308   6.380   0.385   3.926
 9497SOL    MW438309   6.376   0.471   3.945
 9498SOL     OW38310   7.172   1.593   5.275
 9498SOL    HW238311   7.214   1.578   5.360
 9498SOL    HW338312   7.163   1.506   5.237
 9498SOL    MW438313   7.176   1.581   5.282
 9499SOL     OW38314   6.832   0.072   4.866
 9499SOL    HW238315   6.887   0.081   4.788
 9499SOL    HW338316   6.887   0.106   4.937
 9499SOL    MW438317   6.846   0.077   4.865
 9500SOL     OW38318   5.839   0.985   4.050
 9500SOL    HW238319   5.776   1.001   3.979
 9500SOL    HW338320   5.786   0.948   4.121
 9500SOL    MW438321   5.824   0.982   4.050
 9501SOL     OW38322   6.195   1.339   3.909
 9501SOL    HW238323   6.210   1.315   4.001
 9501SOL    HW338324   6.103   1.317   3.893
 9501SOL    MW438325   6.185   1.332   3.919
 9502SOL     OW38326   6.734   1.570   4.061
 9502SOL    HW238327   6.742   1.488   4.012
 9502SOL    HW338328   6.653   1.609   4.028
 9502SOL    MW438329   6.724   1.565   4.051
 9503SOL     OW38330   5.993   1.728   4.630
 9503SOL    HW238331   5.997   1.639   4.665
 9503SOL    HW338332   6.019   1.719   4.539
 9503SOL    MW438333   5.996   1.716   4.622
 9504SOL     OW38334   6.610   1.206   4.873
 9504SOL    HW238335   6.542   1.140   4.889
 9504SOL    HW338336   6.628   1.200   4.780
 9504SOL    MW438337   6.603   1.197   4.864
 9505SOL     OW38338   5.699   1.481   5.124
 9505SOL    HW238339   5.689   1.439   5.210
 9505SOL    HW338340   5.620   1.534   5.114
 9505SOL    MW438341   5.688   1.482   5.135
 9506SOL     OW38342   6.603   0.345   4.694
 9506SOL    HW238343   6.533   0.297   4.739
 9506SOL    HW338344   6.635   0.408   4.758
 9506SOL    MW438345   6.598   0.347   4.708
 9507SOL     OW38346   6.254   0.781   5.314
 9507SOL    HW238347   6.247   0.876   5.302
 9507SOL    HW338348   6.263   0.770   5.409
 9507SOL    MW438349   6.255   0.793   5.324
 9508SOL     OW38350   5.975   1.296   5.572
 9508SOL    HW238351   6.047   1.298   5.509
 9508SOL    HW338352   5.945   1.205   5.571
 9508SOL    MW438353   5.980   1.285   5.564
 9509SOL     OW38354   7.059   0.059   5.039
 9509SOL    HW238355   7.130   0.005   5.003
 9509SOL    HW338356   7.058   0.038   5.132
 9509SOL    MW438357   7.068   0.050   5.047
 9510SOL     OW38358   7.259   1.589   5.523
 9510SOL    HW238359   7.232   1.586   5.614
 9510SOL    HW338360   7.355   1.593   5.526
 9510SOL    MW438361   7.269   1.589   5.535
 9511SOL     OW38362   6.070   0.451   4.507
 9511SOL    HW238363   6.141   0.399   4.470
 9511SOL    HW338364   6.056   0.416   4.594
 9511SOL    MW438365   6.078   0.440   4.514
 9512SOL     OW38366   5.625   1.786   5.579
 9512SOL    HW238367   5.675   1.764   5.501
 9512SOL    HW338368   5.633   1.881   5.587
 9512SOL    MW438369   5.633   1.795   5.570
 9513SOL     OW38370   6.386   1.544   4.583
 9513SOL    HW238371   6.314   1.481   4.596
 9513SOL    HW338372   6.347   1.629   4.601
 9513SOL    MW438373   6.370   1.547   4.586
 9514SOL     OW38374   6.706   0.392   4.231
 9514SOL    HW238375   6.728   0.329   4.163
 9514SOL    HW338376   6.611   0.384   4.242
 9514SOL    MW438377   6.696   0.383   4.223
 9515SOL     OW38378   5.791   0.082   4.163
 9515SOL    HW238379   5.862   0.103   4.102
 9515SOL    HW338380   5.745   0.010   4.121
 9515SOL    MW438381   5.795   0.076   4.149
 9516SOL     OW38382   5.622   0.549   5.306
 9516SOL    HW238383   5.686   0.615   5.281
 9516SOL    HW338384   5.541   0.576   5.263
 9516SOL    MW438385   5.620   0.561   5.298
 9517SOL     OW38386   7.360   1.456   4.263
 9517SOL    HW238387   7.330   1.389   4.324
 9517SOL    HW338388   7.454   1.462   4.277
 9517SOL    MW438389   7.368   1.448   4.273
 9518SOL     OW38390   6.916   1.133   4.193
 9518SOL    HW238391   6.888   1.219   4.226
 9518SOL    HW338392   6.944   1.149   4.103
 9518SOL    MW438393   6.916   1.147   4.185
 9519SOL     OW38394   6.578   0.053   4.246
 9519SOL    HW238395   6.615   0.112   4.311
 9519SOL    HW338396   6.555   0.109   4.172
 9519SOL    MW438397   6.579   0.068   4.245
 9520SOL     OW38398   7.431   0.935   4.668
 9520SOL    HW238399   7.422   0.967   4.579
 9520SOL    HW338400   7.384   0.851   4.668
 9520SOL    MW438401   7.424   0.928   4.658
 9521SOL     OW38402   5.807   0.775   5.247
 9521SOL    HW238403   5.828   0.844   5.185
 9521SOL    HW338404   5.887   0.722   5.252
 9521SOL    MW438405   5.820   0.776   5.241
 9522SOL     OW38406   7.343   0.866   4.369
 9522SOL    HW238407   7.437   0.855   4.357
 9522SOL    HW338408   7.319   0.938   4.310
 9522SOL    MW438409   7.353   0.874   4.360
 9523SOL     OW38410   5.792   0.790   5.514
 9523SOL    HW238411   5.718   0.734   5.540
 9523SOL    HW338412   5.787   0.793   5.419
 9523SOL    MW438413   5.781   0.783   5.504
 9524SOL     OW38414   5.999   0.744   4.142
 9524SOL    HW238415   5.999   0.839   4.127
 9524SOL    HW338416   6.076   0.728   4.196
 9524SOL    MW438417   6.009   0.755   4.147
 9525SOL     OW38418   6.775   0.603   5.206
 9525SOL    HW238419   6.811   0.576   5.122
 9525SOL    HW338420   6.688   0.637   5.185
 9525SOL    MW438421   6.769   0.604   5.193
 9526SOL     OW38422   5.758   0.475   4.431
 9526SOL    HW238423   5.820   0.482   4.504
 9526SOL    HW338424   5.758   0.382   4.408
 9526SOL    MW438425   5.766   0.464   4.438
 9527SOL     OW38426   7.305   1.815   3.963
 9527SOL    HW238427   7.372   1.848   3.903
 9527SOL    HW338428   7.262   1.894   3.997
 9527SOL    MW438429   7.307   1.830   3.959
 9528SOL     OW38430   6.440   0.736   4.915
 9528SOL    HW238431   6.398   0.654   4.891
 9528SOL    HW338432   6.441   0.735   5.011
 9528SOL    MW438433   6.433   0.725   4.924
 9529SOL     OW38434   7.111   1.869   5.314
 9529SOL    HW238435   7.114   1.775   5.297
 9529SOL    HW338436   7.134   1.877   5.406
 9529SOL    MW438437   7.114   1.857   5.324
 9530SOL     OW38438   6.244   0.206   5.020
 9530SOL    HW238439   6.175   0.269   5.041
 9530SOL    HW338440   6.271   0.170   5.105
 9530SOL    MW438441   6.238   0.209   5.033
 9531SOL     OW38442   5.627   1.047   3.889
 9531SOL    HW238443   5.596   1.112   3.952
 9531SOL    HW338444   5.576   0.969   3.908
 9531SOL    MW438445   5.617   1.044   3.899
 9532SOL     OW38446   7.039   0.059   4.637
 9532SOL    HW238447   7.127   0.068   4.674
 9532SOL    HW338448   7.049   0.000   4.563
 9532SOL    MW438449   7.053   0.053   4.631
 9533SOL     OW38450   7.071   0.798   4.481
 9533SOL    HW238451   7.151   0.813   4.430
 9533SOL    HW338452   7.064   0.703   4.487
 9533SOL    MW438453   7.080   0.787   4.476
 9534SOL     OW38454   6.211   1.847   3.831
 9534SOL    HW238455   6.116   1.847   3.823
 9534SOL    HW338456   6.227   1.793   3.909
 9534SOL    MW438457   6.201   1.841   3.840
 9535SOL     OW38458   6.521   0.724   5.178
 9535SOL    HW238459   6.590   0.791   5.175
 9535SOL    HW338460   6.454   0.762   5.234
 9535SOL    MW438461   6.522   0.737   5.185
 9536SOL     OW38462   5.939   1.024   5.426
 9536SOL    HW238463   5.893   0.940   5.428
 9536SOL    HW338464   5.996   1.018   5.350
 9536SOL    MW438465   5.941   1.012   5.418
 9537SOL     OW38466   7.056   0.667   3.747
 9537SOL    HW238467   6.984   0.643   3.689
 9537SOL    HW338468   7.122   0.704   3.689
 9537SOL    MW438469   7.055   0.669   3.732
 9538SOL     OW38470   6.190   1.399   4.427
 9538SOL    HW238471   6.255   1.332   4.448
 9538SOL    HW338472   6.242   1.476   4.404
 9538SOL    MW438473   6.205   1.401   4.426
 9539SOL     OW38474   6.451   0.564   4.557
 9539SOL    HW238475   6.391   0.582   4.629
 9539SOL    HW338476   6.485   0.476   4.576
 9539SOL    MW438477   6.447   0.554   4.570
 9540SOL     OW38478   7.392   0.063   5.226
 9540SOL    HW238479   7.313   0.109   5.254
 9540SOL    HW338480   7.427   0.117   5.155
 9540SOL    MW438481   7.386   0.076   5.220
 9541SOL     OW38482   6.676   1.147   4.576
 9541SOL    HW238483   6.768   1.128   4.594
 9541SOL    HW338484   6.649   1.077   4.516
 9541SOL    MW438485   6.684   1.135   4.570
 9542SOL     OW38486   6.469   0.967   3.931
 9542SOL    HW238487   6.455   0.879   3.896
 9542SOL    HW338488   6.420   1.024   3.872
 9542SOL    MW438489   6.461   0.962   3.919
 9543SOL     OW38490   6.950   1.385   4.672
 9543SOL    HW238491   6.923   1.469   4.637
 9543SOL    HW338492   6.910   1.380   4.759
 9543SOL    MW438493   6.943   1.394   4.678
 9544SOL     OW38494   6.869   1.333   4.940
 9544SOL    HW238495   6.880   1.300   5.029
 9544SOL    HW338496   6.788   1.292   4.909
 9544SOL    MW438497   6.859   1.325   4.946
 9545SOL     OW38498   5.882   0.691   4.710
 9545SOL    HW238499   5.832   0.690   4.791
 9545SOL    HW338500   5.902   0.783   4.694
 9545SOL    MW438501   5.878   0.703   4.718
 9546SOL     OW38502   6.949   1.455   5.472
 9546SOL    HW238503   6.949   1.549   5.488
 9546SOL    HW338504   6.994   1.445   5.388
 9546SOL    MW438505   6.955   1.465   5.463
 9547SOL     OW38506   7.188   0.173   4.033
 9547SOL    HW238507   7.181   0.177   4.128
 9547SOL    HW338508   7.200   0.264   4.006
 9547SOL    MW438509   7.189   0.186   4.041
 9548SOL     OW38510   6.477   0.736   4.147
 9548SOL    HW238511   6.457   0.722   4.054
 9548SOL    HW338512   6.570   0.715   4.154
 9548SOL    MW438513   6.487   0.731   4.136
 9549SOL     OW38514   5.804   0.359   5.451
 9549SOL    HW238515   5.761   0.418   5.388
 9549SOL    HW338516   5.872   0.414   5.491
 9549SOL    MW438517   5.808   0.374   5.448
 9550SOL     OW38518   6.916   0.979   4.996
 9550SOL    HW238519   6.979   0.976   5.069
 9550SOL    HW338520   6.832   0.997   5.038
 9550SOL    MW438521   6.912   0.981   5.011
 9551SOL     OW38522   6.460   1.694   4.185
 9551SOL    HW238523   6.518   1.765   4.212
 9551SOL    HW338524   6.483   1.622   4.243
 9551SOL    MW438525   6.471   1.694   4.196
 9552SOL     OW38526   7.255   0.156   4.775
 9552SOL    HW238527   7.300   0.074   4.794
 9552SOL    HW338528   7.275   0.212   4.851
 9552SOL    MW438529   7.265   0.152   4.787
 9553SOL     OW38530   5.703  -0.001   4.874
 9553SOL    HW238531   5.694   0.000   4.779
 9553SOL    HW338532   5.797   0.011   4.889
 9553SOL    MW438533   5.715   0.002   4.865
 9554SOL     OW38534   7.340   1.192   4.494
 9554SOL    HW238535   7.319   1.138   4.417
 9554SOL    HW338536   7.436   1.190   4.498
 9554SOL    MW438537   7.349   1.185   4.483
 9555SOL     OW38538   6.032   1.337   5.237
 9555SOL    HW238539   5.953   1.287   5.260
 9555SOL    HW338540   6.102   1.296   5.287
 9555SOL    MW438541   6.030   1.325   5.247
 9556SOL     OW38542   5.916   0.126   3.920
 9556SOL    HW238543   5.845   0.181   3.888
 9556SOL    HW338544   5.958   0.092   3.841
 9556SOL    MW438545   5.912   0.128   3.906
 9557SOL     OW38546   7.040   0.623   4.756
 9557SOL    HW238547   6.963   0.669   4.722
 9557SOL    HW338548   7.097   0.692   4.790
 9557SOL    MW438549   7.037   0.638   4.756
 9558SOL     OW38550   5.672   0.225   3.769
 9558SOL    HW238551   5.639   0.304   3.813
 9558SOL    HW338552   5.727   0.258   3.698
 9558SOL    MW438553   5.675   0.239   3.766
 9559SOL     OW38554   5.706   1.482   3.958
 9559SOL    HW238555   5.723   1.566   4.000
 9559SOL    HW338556   5.741   1.491   3.870
 9559SOL    MW438557   5.711   1.495   3.952
 9560SOL     OW38558   6.978   1.571   4.175
 9560SOL    HW238559   7.041   1.561   4.104
 9560SOL    HW338560   6.895   1.591   4.130
 9560SOL    MW438561   6.975   1.572   4.160
 9561SOL     OW38562   7.341   0.839   5.862
 9561SOL    HW238563   7.382   0.781   5.927
 9561SOL    HW338564   7.248   0.831   5.879
 9561SOL    MW438565   7.335   0.831   5.872
 9562SOL     OW38566   6.135   1.022   6.091
 9562SOL    HW238567   6.225   0.997   6.075
 9562SOL    HW338568   6.131   1.115   6.068
 9562SOL    MW438569   6.147   1.031   6.086
 9563SOL     OW38570   7.251   1.725   6.233
 9563SOL    HW238571   7.263   1.671   6.311
 9563SOL    HW338572   7.288   1.673   6.162
 9563SOL    MW438573   7.257   1.710   6.234
 9564SOL     OW38574   6.419   0.478   6.104
 9564SOL    HW238575   6.394   0.566   6.132
 9564SOL    HW338576   6.416   0.481   6.008
 9564SOL    MW438577   6.415   0.490   6.096
 9565SOL     OW38578   5.861   0.506   6.032
 9565SOL    HW238579   5.893   0.594   6.014
 9565SOL    HW338580   5.849   0.504   6.127
 9565SOL    MW438581   5.864   0.518   6.044
 9566SOL     OW38582   6.260   0.261   6.119
 9566SOL    HW238583   6.318   0.337   6.121
 9566SOL    HW338584   6.195   0.282   6.052
 9566SOL    MW438585   6.259   0.273   6.110
 9567SOL     OW38586   6.347   1.188   6.294
 9567SOL    HW238587   6.427   1.191   6.346
 9567SOL    HW338588   6.375   1.155   6.208
 9567SOL    MW438589   6.361   1.184   6.289
 9568SOL     OW38590   6.124   0.692   6.285
 9568SOL    HW238591   6.109   0.612   6.336
 9568SOL    HW338592   6.206   0.727   6.319
 9568SOL    MW438593   6.132   0.684   6.297
 9569SOL     OW38594   6.012   0.932   6.566
 9569SOL    HW238595   5.967   0.939   6.482
 9569SOL    HW338596   5.992   1.015   6.610
 9569SOL    MW438597   6.004   0.944   6.560
 9570SOL     OW38598   5.709   1.778   6.441
 9570SOL    HW238599   5.798   1.770   6.476
 9570SOL    HW338600   5.673   1.690   6.446
 9570SOL    MW438601   5.716   1.765   6.446
 9571SOL     OW38602   6.974   1.170   5.810
 9571SOL    HW238603   6.892   1.206   5.776
 9571SOL    HW338604   7.042   1.213   5.759
 9571SOL    MW438605   6.972   1.180   5.798
 9572SOL     OW38606   6.535   0.949   6.286
 9572SOL    HW238607   6.449   0.936   6.326
 9572SOL    HW338608   6.588   0.876   6.318
 9572SOL    MW438609   6.531   0.938   6.295
 9573SOL     OW38610   6.526   1.311   6.003
 9573SOL    HW238611   6.503   1.373   6.071
 9573SOL    HW338612   6.483   1.229   6.029
 9573SOL    MW438613   6.518   1.307   6.014
 9574SOL     OW38614   7.399   0.312   6.459
 9574SOL    HW238615   7.336   0.292   6.528
 9574SOL    HW338616   7.389   0.241   6.396
 9574SOL    MW438617   7.389   0.299   6.460
 9575SOL     OW38618   6.023   0.284   5.971
 9575SOL    HW238619   5.997   0.246   5.887
 9575SOL    HW338620   5.960   0.354   5.987
 9575SOL    MW438621   6.012   0.287   5.962
 9576SOL     OW38622   5.858   1.245   6.008
 9576SOL    HW238623   5.806   1.313   5.964
 9576SOL    HW338624   5.855   1.171   5.948
 9576SOL    MW438625   5.850   1.244   5.995
 9577SOL     OW38626   6.520   1.708   5.786
 9577SOL    HW238627   6.475   1.724   5.869
 9577SOL    HW338628   6.451   1.673   5.728
 9577SOL    MW438629   6.506   1.705   5.788
 9578SOL     OW38630   7.455   0.481   5.761
 9578SOL    HW238631   7.364   0.483   5.789
 9578SOL    HW338632   7.500   0.543   5.819
 9578SOL    MW438633   7.448   0.489   5.771
 9579SOL     OW38634   7.200   1.084   6.111
 9579SOL    HW238635   7.110   1.084   6.146
 9579SOL    HW338636   7.193   1.130   6.028
 9579SOL    MW438637   7.187   1.090   6.105
 9580SOL     OW38638   6.727   0.665   6.072
 9580SOL    HW238639   6.753   0.689   5.983
 9580SOL    HW338640   6.709   0.572   6.068
 9580SOL    MW438641   6.729   0.657   6.059
 9581SOL     OW38642   7.392   1.285   5.923
 9581SOL    HW238643   7.348   1.326   5.998
 9581SOL    HW338644   7.449   1.353   5.888
 9581SOL    MW438645   7.394   1.299   5.928
 9582SOL     OW38646   6.048   1.701   6.241
 9582SOL    HW238647   6.080   1.789   6.219
 9582SOL    HW338648   6.001   1.673   6.163
 9582SOL    MW438649   6.047   1.709   6.228
 9583SOL     OW38650   7.432   0.063   6.290
 9583SOL    HW238651   7.486   0.014   6.352
 9583SOL    HW338652   7.375  -0.003   6.251
 9583SOL    MW438653   7.432   0.047   6.292
 9584SOL     OW38654   5.764   1.761   5.818
 9584SOL    HW238655   5.793   1.851   5.810
 9584SOL    HW338656   5.714   1.744   5.739
 9584SOL    MW438657   5.762   1.769   5.807
 9585SOL     OW38658   7.168   1.569   5.789
 9585SOL    HW238659   7.216   1.638   5.835
 9585SOL    HW338660   7.089   1.613   5.758
 9585SOL    MW438661   7.163   1.583   5.792
 9586SOL     OW38662   6.566   0.694   5.733
 9586SOL    HW238663   6.568   0.641   5.654
 9586SOL    HW338664   6.654   0.731   5.739
 9586SOL    MW438665   6.578   0.693   5.722
 9587SOL     OW38666   7.180   0.620   6.069
 9587SOL    HW238667   7.219   0.620   6.156
 9587SOL    HW338668   7.121   0.696   6.069
 9587SOL    MW438669   7.177   0.631   6.080
 9588SOL     OW38670   7.367   0.506   6.235
 9588SOL    HW238671   7.456   0.475   6.252
 9588SOL    HW338672   7.310   0.446   6.283
 9588SOL    MW438673   7.370   0.494   6.244
 9589SOL     OW38674   5.793   0.220   6.264
 9589SOL    HW238675   5.784   0.160   6.190
 9589SOL    HW338676   5.726   0.191   6.327
 9589SOL    MW438677   5.783   0.207   6.262
 9590SOL     OW38678   6.736   1.313   5.825
 9590SOL    HW238679   6.686   1.315   5.907
 9590SOL    HW338680   6.670   1.331   5.757
 9590SOL    MW438681   6.722   1.315   5.827
 9591SOL     OW38682   6.199   1.731   5.933
 9591SOL    HW238683   6.120   1.689   5.966
 9591SOL    HW338684   6.265   1.714   6.000
 9591SOL    MW438685   6.198   1.723   5.946
 9592SOL     OW38686   6.335   1.146   5.640
 9592SOL    HW238687   6.257   1.092   5.627
 9592SOL    HW338688   6.306   1.219   5.693
 9592SOL    MW438689   6.321   1.148   5.645
 9593SOL     OW38690   6.916   1.662   5.708
 9593SOL    HW238691   6.842   1.625   5.758
 9593SOL    HW338692   6.924   1.752   5.741
 9593SOL    MW438693   6.907   1.669   5.720
 9594SOL     OW38694   7.140   1.336   5.650
 9594SOL    HW238695   7.087   1.385   5.586
 9594SOL    HW338696   7.171   1.402   5.711
 9594SOL    MW438697   7.138   1.350   5.648
 9595SOL     OW38698   6.365   0.225   5.705
 9595SOL    HW238699   6.313   0.145   5.693
 9595SOL    HW338700   6.452   0.202   5.673
 9595SOL    MW438701   6.368   0.211   5.699
 9596SOL     OW38702   5.726   0.865   6.162
 9596SOL    HW238703   5.817   0.880   6.189
 9596SOL    HW338704   5.729   0.786   6.108
 9596SOL    MW438705   5.738   0.857   6.160
 9597SOL     OW38706   6.353   1.797   6.536
 9597SOL    HW238707   6.442   1.812   6.566
 9597SOL    HW338708   6.348   1.844   6.452
 9597SOL    MW438709   6.363   1.805   6.529
 9598SOL     OW38710   5.734   1.477   6.201
 9598SOL    HW238711   5.706   1.516   6.283
 9598SOL    HW338712   5.754   1.386   6.223
 9598SOL    MW438713   5.732   1.469   6.214
 9599SOL     OW38714   6.567   1.520   6.236
 9599SOL    HW238715   6.650   1.474   6.220
 9599SOL    HW338716   6.557   1.519   6.332
 9599SOL    MW438717   6.577   1.513   6.246
 9600SOL     OW38718   6.300   1.577   5.641
 9600SOL    HW238719   6.240   1.646   5.611
 9600SOL    HW338720   6.245   1.519   5.694
 9600SOL    MW438721   6.284   1.579   5.643
 9601SOL     OW38722   6.738   0.222   5.864
 9601SOL    HW238723   6.671   0.198   5.801
 9601SOL    HW338724   6.803   0.271   5.813
 9601SOL    MW438725   6.738   0.224   5.849
 9602SOL     OW38726   6.257   0.939   6.376
 9602SOL    HW238727   6.168   0.930   6.409
 9602SOL    HW338728   6.261   1.029   6.344
 9602SOL    MW438729   6.246   0.950   6.376
 9603SOL     OW38730   7.056   0.522   6.371
 9603SOL    HW238731   7.001   0.443   6.370
 9603SOL    HW338732   7.038   0.563   6.455
 9603SOL    MW438733   7.046   0.517   6.380
 9604SOL     OW38734   6.675   0.726   6.328
 9604SOL    HW238735   6.612   0.658   6.352
 9604SOL    HW338736   6.695   0.707   6.236
 9604SOL    MW438737   6.669   0.713   6.320
 9605SOL     OW38738   5.931   1.621   6.030
 9605SOL    HW238739   5.892   1.668   5.956
 9605SOL    HW338740   5.865   1.556   6.055
 9605SOL    MW438741   5.918   1.619   6.024
 9606SOL     OW38742   6.423   1.030   6.054
 9606SOL    HW238743   6.425   1.004   5.961
 9606SOL    HW338744   6.481   0.967   6.097
 9606SOL    MW438745   6.431   1.019   6.048
 9607SOL     OW38746   6.980   1.798   6.256
 9607SOL    HW238747   6.923   1.751   6.195
 9607SOL    HW338748   7.066   1.759   6.243
 9607SOL    MW438749   6.983   1.789   6.246
 9608SOL     OW38750   6.933   0.274   6.387
 9608SOL    HW238751   6.961   0.206   6.448
 9608SOL    HW338752   6.847   0.245   6.357
 9608SOL    MW438753   6.926   0.261   6.391
 9609SOL     OW38754   5.738   1.208   6.321
 9609SOL    HW238755   5.802   1.240   6.384
 9609SOL    HW338756   5.787   1.144   6.269
 9609SOL    MW438757   5.753   1.204   6.322
 9610SOL     OW38758   6.913   0.378   5.722
 9610SOL    HW238759   6.886   0.444   5.658
 9610SOL    HW338760   6.983   0.421   5.772
 9610SOL    MW438761   6.918   0.391   5.719
 9611SOL     OW38762   6.581   0.083   5.659
 9611SOL    HW238763   6.637   0.075   5.581
 9611SOL    HW338764   6.558  -0.007   5.681
 9611SOL    MW438765   6.586   0.070   5.652
 9612SOL     OW38766   7.086   0.934   5.864
 9612SOL    HW238767   7.053   1.023   5.854
 9612SOL    HW338768   7.051   0.905   5.949
 9612SOL    MW438769   7.076   0.943   5.875
 9613SOL     OW38770   6.080   0.972   5.656
 9613SOL    HW238771   6.003   0.985   5.712
 9613SOL    HW338772   6.044   0.936   5.575
 9613SOL    MW438773   6.066   0.968   5.653
 9614SOL     OW38774   6.733   0.945   5.899
 9614SOL    HW238775   6.643   0.966   5.874
 9614SOL    HW338776   6.760   1.018   5.955
 9614SOL    MW438777   6.725   0.957   5.902
 9615SOL     OW38778   6.362   0.061   6.306
 9615SOL    HW238779   6.291   0.122   6.288
 9615SOL    HW338780   6.413   0.058   6.225
 9615SOL    MW438781   6.358   0.067   6.293
 9616SOL     OW38782   6.120   1.301   6.055
 9616SOL    HW238783   6.113   1.333   6.145
 9616SOL    HW338784   6.030   1.285   6.027
 9616SOL    MW438785   6.108   1.303   6.062
 9617SOL     OW38786   6.829   1.659   6.454
 9617SOL    HW238787   6.876   1.732   6.413
 9617SOL    HW338788   6.750   1.698   6.490
 9617SOL    MW438789   6.824   1.674   6.453
 9618SOL     OW38790   6.123   0.585   5.769
 9618SOL    HW238791   6.089   0.641   5.839
 9618SOL    HW338792   6.194   0.535   5.809
 9618SOL    MW438793   6.129   0.586   5.783
 9619SOL     OW38794   7.179   0.471   5.833
 9619SOL    HW238795   7.171   0.542   5.770
 9619SOL    HW338796   7.197   0.515   5.916
 9619SOL    MW438797   7.180   0.485   5.835
 9620SOL     OW38798   6.039   0.126   6.262
 9620SOL    HW238799   6.089   0.169   6.193
 9620SOL    HW338800   5.954   0.170   6.262
 9620SOL    MW438801   6.036   0.139   6.253
 9621SOL     OW38802   6.848   0.733   5.808
 9621SOL    HW238803   6.895   0.751   5.727
 9621SOL    HW338804   6.814   0.817   5.836
 9621SOL    MW438805   6.850   0.747   5.801
 9622SOL     OW38806   5.961   0.911   6.302
 9622SOL    HW238807   6.019   0.967   6.250
 9622SOL    HW338808   6.005   0.826   6.304
 9622SOL    MW438809   5.974   0.908   6.295
 9623SOL     OW38810   7.101   0.263   6.139
 9623SOL    HW238811   7.023   0.213   6.164
 9623SOL    HW338812   7.072   0.354   6.139
 9623SOL    MW438813   7.087   0.267   6.142
 9624SOL     OW38814   6.687   0.225   6.298
 9624SOL    HW238815   6.707   0.300   6.242
 9624SOL    HW338816   6.667   0.264   6.383
 9624SOL    MW438817   6.688   0.241   6.302
 9625SOL     OW38818   6.583   1.475   5.630
 9625SOL    HW238819   6.610   1.553   5.582
 9625SOL    HW338820   6.490   1.490   5.649
 9625SOL    MW438821   6.574   1.488   5.626
 9626SOL     OW38822   5.623   0.637   6.021
 9626SOL    HW238823   5.563   0.609   6.091
 9626SOL    HW338824   5.697   0.577   6.027
 9626SOL    MW438825   5.625   0.626   6.030
 9627SOL     OW38826   6.791   1.368   6.181
 9627SOL    HW238827   6.814   1.319   6.259
 9627SOL    HW338828   6.872   1.410   6.153
 9627SOL    MW438829   6.804   1.368   6.188
 9628SOL     OW38830   6.146   0.121   6.537
 9628SOL    HW238831   6.156   0.030   6.563
 9628SOL    HW338832   6.102   0.117   6.452
 9628SOL    MW438833   6.142   0.109   6.529
 9629SOL     OW38834   6.991   0.810   6.095
 9629SOL    HW238835   6.906   0.780   6.065
 9629SOL    HW338836   6.983   0.817   6.190
 9629SOL    MW438837   6.979   0.808   6.104
 9630SOL     OW38838   6.364   0.476   5.821
 9630SOL    HW238839   6.437   0.525   5.784
 9630SOL    HW338840   6.380   0.385   5.795
 9630SOL    MW438841   6.376   0.471   5.814
 9631SOL     OW38842   5.839   0.985   5.919
 9631SOL    HW238843   5.776   1.001   5.848
 9631SOL    HW338844   5.786   0.948   5.990
 9631SOL    MW438845   5.824   0.982   5.919
 9632SOL     OW38846   6.195   1.339   5.778
 9632SOL    HW238847   6.210   1.315   5.870
 9632SOL    HW338848   6.103   1.317   5.762
 9632SOL    MW438849   6.185   1.332   5.788
 9633SOL     OW38850   6.734   1.570   5.930
 9633SOL    HW238851   6.742   1.488   5.881
 9633SOL    HW338852   6.653   1.609   5.897
 9633SOL    MW438853   6.724   1.565   5.920
 9634SOL     OW38854   5.993   1.728   6.499
 9634SOL    HW238855   5.997   1.639   6.534
 9634SOL    HW338856   6.019   1.719   6.408
 9634SOL    MW438857   5.996   1.716   6.491
 9635SOL     OW38858   6.070   0.451   6.376
 9635SOL    HW238859   6.141   0.399   6.339
 9635SOL    HW338860   6.056   0.416   6.463
 9635SOL    MW438861   6.078   0.440   6.383
 9636SOL     OW38862   6.386   1.544   6.452
 9636SOL    HW238863   6.314   1.481   6.465
 9636SOL    HW338864   6.347   1.629   6.470
 9636SOL    MW438865   6.370   1.547   6.455
 9637SOL     OW38866   6.706   0.392   6.100
 9637SOL    HW238867   6.728   0.329   6.032
 9637SOL    HW338868   6.611   0.384   6.111
 9637SOL    MW438869   6.696   0.383   6.092
 9638SOL     OW38870   5.791   0.082   6.032
 9638SOL    HW238871   5.862   0.103   5.971
 9638SOL    HW338872   5.745   0.010   5.990
 9638SOL    MW438873   5.795   0.076   6.018
 9639SOL     OW38874   7.360   1.456   6.132
 9639SOL    HW238875   7.330   1.389   6.193
 9639SOL    HW338876   7.454   1.462   6.146
 9639SOL    MW438877   7.368   1.448   6.142
 9640SOL     OW38878   6.916   1.133   6.062
 9640SOL    HW238879   6.888   1.219   6.095
 9640SOL    HW338880   6.944   1.149   5.972
 9640SOL    MW438881   6.916   1.147   6.054
 9641SOL     OW38882   6.578   0.053   6.115
 9641SOL    HW238883   6.615   0.112   6.180
 9641SOL    HW338884   6.555   0.109   6.041
 9641SOL    MW438885   6.579   0.068   6.114
 9642SOL     OW38886   7.431   0.935   6.537
 9642SOL    HW238887   7.422   0.967   6.448
 9642SOL    HW338888   7.384   0.851   6.537
 9642SOL    MW438889   7.424   0.928   6.527
 9643SOL     OW38890   7.343   0.866   6.238
 9643SOL    HW238891   7.437   0.855   6.226
 9643SOL    HW338892   7.319   0.938   6.179
 9643SOL    MW438893   7.353   0.874   6.229
 9644SOL     OW38894   5.999   0.744   6.011
 9644SOL    HW238895   5.999   0.839   5.996
 9644SOL    HW338896   6.076   0.728   6.065
 9644SOL    MW438897   6.009   0.755   6.016
 9645SOL     OW38898   5.758   0.475   6.300
 9645SOL    HW238899   5.820   0.482   6.373
 9645SOL    HW338900   5.758   0.382   6.277
 9645SOL    MW438901   5.766   0.464   6.307
 9646SOL     OW38902   7.305   1.815   5.832
 9646SOL    HW238903   7.372   1.848   5.772
 9646SOL    HW338904   7.262   1.894   5.866
 9646SOL    MW438905   7.307   1.830   5.828
 9647SOL     OW38906   5.627   1.047   5.758
 9647SOL    HW238907   5.596   1.112   5.821
 9647SOL    HW338908   5.576   0.969   5.777
 9647SOL    MW438909   5.617   1.044   5.768
 9648SOL     OW38910   7.071   0.798   6.350
 9648SOL    HW238911   7.151   0.813   6.299
 9648SOL    HW338912   7.064   0.703   6.356
 9648SOL    MW438913   7.080   0.787   6.345
 9649SOL     OW38914   6.211   1.847   5.700
 9649SOL    HW238915   6.116   1.847   5.692
 9649SOL    HW338916   6.227   1.793   5.778
 9649SOL    MW438917   6.201   1.841   5.709
 9650SOL     OW38918   7.056   0.667   5.615
 9650SOL    HW238919   6.984   0.643   5.557
 9650SOL    HW338920   7.122   0.704   5.557
 9650SOL    MW438921   7.055   0.669   5.600
 9651SOL     OW38922   6.190   1.399   6.296
 9651SOL    HW238923   6.255   1.332   6.317
 9651SOL    HW338924   6.242   1.476   6.273
 9651SOL    MW438925   6.205   1.401   6.295
 9652SOL     OW38926   6.451   0.564   6.426
 9652SOL    HW238927   6.391   0.582   6.498
 9652SOL    HW338928   6.485   0.476   6.445
 9652SOL    MW438929   6.447   0.554   6.439
 9653SOL     OW38930   6.676   1.147   6.445
 9653SOL    HW238931   6.768   1.128   6.463
 9653SOL    HW338932   6.649   1.077   6.385
 9653SOL    MW438933   6.684   1.135   6.439
 9654SOL     OW38934   6.469   0.967   5.800
 9654SOL    HW238935   6.455   0.879   5.765
 9654SOL    HW338936   6.420   1.024   5.741
 9654SOL    MW438937   6.461   0.962   5.788
 9655SOL     OW38938   7.188   0.173   5.902
 9655SOL    HW238939   7.181   0.177   5.997
 9655SOL    HW338940   7.200   0.264   5.875
 9655SOL    MW438941   7.189   0.186   5.910
 9656SOL     OW38942   6.477   0.736   6.016
 9656SOL    HW238943   6.457   0.722   5.923
 9656SOL    HW338944   6.570   0.715   6.023
 9656SOL    MW438945   6.487   0.731   6.005
 9657SOL     OW38946   6.460   1.694   6.054
 9657SOL    HW238947   6.518   1.765   6.081
 9657SOL    HW338948   6.483   1.622   6.112
 9657SOL    MW438949   6.471   1.694   6.065
 9658SOL     OW38950   7.340   1.192   6.363
 9658SOL    HW238951   7.319   1.138   6.286
 9658SOL    HW338952   7.436   1.190   6.367
 9658SOL    MW438953   7.349   1.185   6.352
 9659SOL     OW38954   5.916   0.126   5.789
 9659SOL    HW238955   5.845   0.181   5.757
 9659SOL    HW338956   5.958   0.092   5.710
 9659SOL    MW438957   5.912   0.128   5.775
 9660SOL     OW38958   5.672   0.225   5.638
 9660SOL    HW238959   5.639   0.304   5.682
 9660SOL    HW338960   5.727   0.258   5.567
 9660SOL    MW438961   5.675   0.239   5.635
 9661SOL     OW38962   5.706   1.482   5.827
 9661SOL    HW238963   5.723   1.566   5.869
 9661SOL    HW338964   5.741   1.491   5.739
 9661SOL    MW438965   5.711   1.495   5.821
 9662SOL     OW38966   6.978   1.571   6.044
 9662SOL    HW238967   7.041   1.561   5.973
 9662SOL    HW338968   6.895   1.591   5.999
 9662SOL    MW438969   6.975   1.572   6.029
 9663SOL     OW38970   7.207   2.639   1.252
 9663SOL    HW238971   7.162   2.706   1.303
 9663SOL    HW338972   7.295   2.675   1.238
 9663SOL    MW438973   7.213   2.652   1.256
 9664SOL     OW38974   6.135   2.890   0.486
 9664SOL    HW238975   6.225   2.865   0.470
 9664SOL    HW338976   6.131   2.983   0.463
 9664SOL    MW438977   6.147   2.899   0.481
 9665SOL     OW38978   7.251   3.593   0.628
 9665SOL    HW238979   7.263   3.539   0.706
 9665SOL    HW338980   7.288   3.541   0.557
 9665SOL    MW438981   7.257   3.578   0.629
 9666SOL     OW38982   6.630   3.478   1.629
 9666SOL    HW238983   6.671   3.514   1.550
 9666SOL    HW338984   6.665   3.389   1.636
 9666SOL    MW438985   6.641   3.471   1.620
 9667SOL     OW38986   7.187   3.033   1.233
 9667SOL    HW238987   7.108   2.998   1.191
 9667SOL    HW338988   7.214   3.105   1.177
 9667SOL    MW438989   7.180   3.038   1.220
 9668SOL     OW38990   6.419   2.346   0.499
 9668SOL    HW238991   6.394   2.434   0.527
 9668SOL    HW338992   6.416   2.349   0.403
 9668SOL    MW438993   6.415   2.358   0.491
 9669SOL     OW38994   5.861   2.374   0.427
 9669SOL    HW238995   5.893   2.462   0.409
 9669SOL    HW338996   5.849   2.372   0.522
 9669SOL    MW438997   5.864   2.386   0.439
 9670SOL     OW38998   5.939   2.787   1.328
 9670SOL    HW238999   6.002   2.734   1.279
 9670SOL    HW339000   5.920   2.861   1.271
 9670SOL    MW439001   5.945   2.789   1.315
 9671SOL     OW39002   6.260   2.129   0.514
 9671SOL    HW239003   6.318   2.205   0.516
 9671SOL    HW339004   6.195   2.150   0.447
 9671SOL    MW439005   6.259   2.141   0.505
 9672SOL     OW39006   6.347   3.056   0.689
 9672SOL    HW239007   6.427   3.059   0.741
 9672SOL    HW339008   6.375   3.023   0.603
 9672SOL    MW439009   6.361   3.052   0.684
 9673SOL     OW39010   6.372   3.397   1.592
 9673SOL    HW239011   6.456   3.423   1.631
 9673SOL    HW339012   6.396   3.341   1.518
 9673SOL    MW439013   6.386   3.393   1.587
 9674SOL     OW39014   6.124   2.560   0.680
 9674SOL    HW239015   6.109   2.480   0.731
 9674SOL    HW339016   6.206   2.595   0.714
 9674SOL    MW439017   6.132   2.552   0.692
 9675SOL     OW39018   6.461   3.246   1.365
 9675SOL    HW239019   6.425   3.312   1.305
 9675SOL    HW339020   6.389   3.184   1.378
 9675SOL    MW439021   6.447   3.246   1.359
 9676SOL     OW39022   6.266   2.386   1.057
 9676SOL    HW239023   6.172   2.382   1.075
 9676SOL    HW339024   6.296   2.295   1.066
 9676SOL    MW439025   6.257   2.374   1.060
 9677SOL     OW39026   6.012   2.800   0.961
 9677SOL    HW239027   5.967   2.807   0.877
 9677SOL    HW339028   5.992   2.883   1.005
 9677SOL    MW439029   6.004   2.812   0.955
 9678SOL     OW39030   5.709   3.646   0.836
 9678SOL    HW239031   5.798   3.638   0.871
 9678SOL    HW339032   5.673   3.558   0.841
 9678SOL    MW439033   5.716   3.633   0.841
 9679SOL     OW39034   5.973   3.173   0.871
 9679SOL    HW239035   5.949   3.226   0.947
 9679SOL    HW339036   6.029   3.231   0.819
 9679SOL    MW439037   5.977   3.188   0.874
 9680SOL     OW39038   6.535   2.817   0.681
 9680SOL    HW239039   6.449   2.804   0.721
 9680SOL    HW339040   6.588   2.744   0.713
 9680SOL    MW439041   6.531   2.806   0.690
 9681SOL     OW39042   5.943   3.469   1.466
 9681SOL    HW239043   5.851   3.445   1.451
 9681SOL    HW339044   5.987   3.386   1.483
 9681SOL    MW439045   5.937   3.454   1.465
 9682SOL     OW39046   6.526   3.179   0.398
 9682SOL    HW239047   6.503   3.241   0.466
 9682SOL    HW339048   6.483   3.097   0.424
 9682SOL    MW439049   6.518   3.175   0.409
 9683SOL     OW39050   7.399   2.180   0.854
 9683SOL    HW239051   7.336   2.160   0.923
 9683SOL    HW339052   7.389   2.109   0.791
 9683SOL    MW439053   7.389   2.167   0.855
 9684SOL     OW39054   6.023   2.152   0.366
 9684SOL    HW239055   5.997   2.114   0.282
 9684SOL    HW339056   5.960   2.222   0.382
 9684SOL    MW439057   6.012   2.155   0.357
 9685SOL     OW39058   5.858   3.113   0.403
 9685SOL    HW239059   5.806   3.181   0.359
 9685SOL    HW339060   5.855   3.039   0.343
 9685SOL    MW439061   5.850   3.112   0.390
 9686SOL     OW39062   7.200   2.952   0.506
 9686SOL    HW239063   7.110   2.952   0.541
 9686SOL    HW339064   7.193   2.998   0.423
 9686SOL    MW439065   7.187   2.958   0.500
 9687SOL     OW39066   7.000   2.587   1.578
 9687SOL    HW239067   7.069   2.525   1.555
 9687SOL    HW339068   6.925   2.561   1.525
 9687SOL    MW439069   7.000   2.574   1.569
 9688SOL     OW39070   5.741   3.467   1.130
 9688SOL    HW239071   5.724   3.413   1.207
 9688SOL    HW339072   5.729   3.557   1.160
 9688SOL    MW439073   5.738   3.471   1.144
 9689SOL     OW39074   6.736   2.974   1.570
 9689SOL    HW239075   6.721   3.067   1.555
 9689SOL    HW339076   6.831   2.964   1.570
 9689SOL    MW439077   6.745   2.984   1.567
 9690SOL     OW39078   6.532   2.398   1.771
 9690SOL    HW239079   6.622   2.399   1.738
 9690SOL    HW339080   6.491   2.323   1.729
 9690SOL    MW439081   6.538   2.388   1.762
 9691SOL     OW39082   7.107   2.930   0.898
 9691SOL    HW239083   7.110   2.864   0.829
 9691SOL    HW339084   7.192   2.973   0.894
 9691SOL    MW439085   7.119   2.926   0.889
 9692SOL     OW39086   6.727   2.533   0.467
 9692SOL    HW239087   6.753   2.557   0.378
 9692SOL    HW339088   6.709   2.440   0.463
 9692SOL    MW439089   6.729   2.525   0.454
 9693SOL     OW39090   6.312   2.202   1.721
 9693SOL    HW239091   6.322   2.128   1.661
 9693SOL    HW339092   6.348   2.171   1.804
 9693SOL    MW439093   6.318   2.188   1.723
 9694SOL     OW39094   6.048   3.569   0.636
 9694SOL    HW239095   6.080   3.657   0.614
 9694SOL    HW339096   6.001   3.541   0.558
 9694SOL    MW439097   6.047   3.577   0.623
 9695SOL     OW39098   7.432   1.931   0.685
 9695SOL    HW239099   7.486   1.882   0.747
 9695SOL    HW339100   7.375   1.865   0.646
 9695SOL    MW439101   7.432   1.915   0.687
 9696SOL     OW39102   5.764   3.629   0.213
 9696SOL    HW239103   5.793   3.719   0.205
 9696SOL    HW339104   5.714   3.612   0.134
 9696SOL    MW439105   5.762   3.637   0.202
 9697SOL     OW39106   6.551   1.884   1.098
 9697SOL    HW239107   6.510   1.962   1.060
 9697SOL    HW339108   6.645   1.902   1.093
 9697SOL    MW439109   6.557   1.896   1.093
 9698SOL     OW39110   6.497   2.855   1.593
 9698SOL    HW239111   6.474   2.835   1.683
 9698SOL    HW339112   6.582   2.899   1.598
 9698SOL    MW439113   6.504   2.858   1.605
 9699SOL     OW39114   6.577   1.992   1.353
 9699SOL    HW239115   6.583   1.954   1.266
 9699SOL    HW339116   6.566   2.086   1.338
 9699SOL    MW439117   6.578   2.000   1.341
 9700SOL     OW39118   6.666   2.481   1.187
 9700SOL    HW239119   6.741   2.510   1.134
 9700SOL    HW339120   6.598   2.546   1.171
 9700SOL    MW439121   6.667   2.493   1.177
 9701SOL     OW39122   7.216   2.449   1.464
 9701SOL    HW239123   7.197   2.358   1.443
 9701SOL    HW339124   7.194   2.498   1.385
 9701SOL    MW439125   7.211   2.442   1.451
 9702SOL     OW39126   7.358   3.543   1.368
 9702SOL    HW239127   7.286   3.505   1.419
 9702SOL    HW339128   7.375   3.628   1.409
 9702SOL    MW439129   7.352   3.548   1.380
 9703SOL     OW39130   6.663   2.187   1.570
 9703SOL    HW239131   6.629   2.226   1.489
 9703SOL    HW339132   6.641   2.095   1.563
 9703SOL    MW439133   6.656   2.180   1.560
 9704SOL     OW39134   7.072   3.001   1.646
 9704SOL    HW239135   7.154   3.042   1.676
 9704SOL    HW339136   7.035   2.963   1.726
 9704SOL    MW439137   7.078   3.002   1.661
 9705SOL     OW39138   7.367   2.374   0.630
 9705SOL    HW239139   7.456   2.343   0.647
 9705SOL    HW339140   7.310   2.314   0.678
 9705SOL    MW439141   7.370   2.362   0.639
 9706SOL     OW39142   5.793   2.088   0.659
 9706SOL    HW239143   5.784   2.028   0.585
 9706SOL    HW339144   5.726   2.059   0.722
 9706SOL    MW439145   5.783   2.075   0.657
 9707SOL     OW39146   6.736   3.181   0.220
 9707SOL    HW239147   6.686   3.183   0.302
 9707SOL    HW339148   6.670   3.199   0.152
 9707SOL    MW439149   6.722   3.183   0.222
 9708SOL     OW39150   5.740   2.261   1.022
 9708SOL    HW239151   5.712   2.352   1.031
 9708SOL    HW339152   5.677   2.222   0.961
 9708SOL    MW439153   5.727   2.267   1.016
 9709SOL     OW39154   7.327   3.119   1.725
 9709SOL    HW239155   7.377   3.045   1.757
 9709SOL    HW339156   7.273   3.146   1.800
 9709SOL    MW439157   7.327   3.113   1.738
 9710SOL     OW39158   7.461   2.754   1.227
 9710SOL    HW239159   7.477   2.792   1.140
 9710SOL    HW339160   7.495   2.820   1.288
 9710SOL    MW439161   7.468   2.767   1.223
 9711SOL     OW39162   7.253   3.463   0.896
 9711SOL    HW239163   7.282   3.530   0.957
 9711SOL    HW339164   7.234   3.387   0.951
 9711SOL    MW439165   7.255   3.463   0.911
 9712SOL     OW39166   5.724   2.536   1.192
 9712SOL    HW239167   5.786   2.566   1.258
 9712SOL    HW339168   5.658   2.605   1.186
 9712SOL    MW439169   5.723   2.549   1.199
 9713SOL     OW39170   5.819   3.645   1.644
 9713SOL    HW239171   5.793   3.713   1.582
 9713SOL    HW339172   5.867   3.582   1.592
 9713SOL    MW439173   5.821   3.645   1.630
 9714SOL     OW39174   5.871   2.964   1.151
 9714SOL    HW239175   5.924   3.039   1.176
 9714SOL    HW339176   5.790   3.002   1.117
 9714SOL    MW439177   5.867   2.979   1.151
 9715SOL     OW39178   6.411   2.868   1.139
 9715SOL    HW239179   6.439   2.777   1.151
 9715SOL    HW339180   6.340   2.862   1.075
 9715SOL    MW439181   6.404   2.856   1.134
 9716SOL     OW39182   5.726   2.733   0.557
 9716SOL    HW239183   5.817   2.748   0.584
 9716SOL    HW339184   5.729   2.654   0.503
 9716SOL    MW439185   5.738   2.725   0.555
 9717SOL     OW39186   5.962   2.441   1.811
 9717SOL    HW239187   5.909   2.521   1.818
 9717SOL    HW339188   6.032   2.453   1.876
 9717SOL    MW439189   5.964   2.454   1.819
 9718SOL     OW39190   6.348   1.991   1.518
 9718SOL    HW239191   6.325   1.899   1.520
 9718SOL    HW339192   6.434   1.993   1.475
 9718SOL    MW439193   6.355   1.981   1.514
 9719SOL     OW39194   6.032   2.515   1.557
 9719SOL    HW239195   6.112   2.565   1.543
 9719SOL    HW339196   6.023   2.509   1.652
 9719SOL    MW439197   6.041   2.521   1.567
 9720SOL     OW39198   6.353   3.665   0.931
 9720SOL    HW239199   6.442   3.680   0.961
 9720SOL    HW339200   6.348   3.712   0.847
 9720SOL    MW439201   6.363   3.673   0.924
 9721SOL     OW39202   7.009   2.040   1.828
 9721SOL    HW239203   7.065   1.967   1.854
 9721SOL    HW339204   6.979   2.078   1.910
 9721SOL    MW439205   7.013   2.035   1.841
 9722SOL     OW39206   5.734   3.345   0.596
 9722SOL    HW239207   5.706   3.384   0.678
 9722SOL    HW339208   5.754   3.254   0.618
 9722SOL    MW439209   5.732   3.337   0.609
 9723SOL     OW39210   6.567   3.388   0.631
 9723SOL    HW239211   6.650   3.342   0.615
 9723SOL    HW339212   6.557   3.387   0.727
 9723SOL    MW439213   6.577   3.381   0.641
 9724SOL     OW39214   7.399   2.533   0.945
 9724SOL    HW239215   7.488   2.563   0.927
 9724SOL    HW339216   7.379   2.473   0.874
 9724SOL    MW439217   7.408   2.530   0.934
 9725SOL     OW39218   7.250   2.712   1.825
 9725SOL    HW239219   7.305   2.636   1.806
 9725SOL    HW339220   7.252   2.720   1.920
 9725SOL    MW439221   7.258   2.703   1.833
 9726SOL     OW39222   6.545   2.274   1.344
 9726SOL    HW239223   6.464   2.315   1.372
 9726SOL    HW339224   6.592   2.342   1.296
 9726SOL    MW439225   6.540   2.289   1.342
 9727SOL     OW39226   6.805   2.612   0.967
 9727SOL    HW239227   6.818   2.706   0.977
 9727SOL    HW339228   6.766   2.602   0.881
 9727SOL    MW439229   6.801   2.623   0.957
 9728SOL     OW39230   6.257   2.807   0.771
 9728SOL    HW239231   6.168   2.798   0.804
 9728SOL    HW339232   6.261   2.897   0.739
 9728SOL    MW439233   6.246   2.818   0.771
 9729SOL     OW39234   7.056   2.390   0.766
 9729SOL    HW239235   7.001   2.311   0.765
 9729SOL    HW339236   7.038   2.431   0.850
 9729SOL    MW439237   7.046   2.385   0.775
 9730SOL     OW39238   6.027   2.077   1.583
 9730SOL    HW239239   5.948   2.095   1.635
 9730SOL    HW339240   6.022   2.139   1.510
 9730SOL    MW439241   6.017   2.087   1.580
 9731SOL     OW39242   6.675   2.594   0.723
 9731SOL    HW239243   6.612   2.526   0.747
 9731SOL    HW339244   6.695   2.575   0.631
 9731SOL    MW439245   6.669   2.581   0.715
 9732SOL     OW39246   5.931   3.489   0.425
 9732SOL    HW239247   5.892   3.536   0.351
 9732SOL    HW339248   5.865   3.424   0.450
 9732SOL    MW439249   5.918   3.487   0.419
 9733SOL     OW39250   6.976   3.458   1.221
 9733SOL    HW239251   6.901   3.504   1.259
 9733SOL    HW339252   6.958   3.365   1.238
 9733SOL    MW439253   6.965   3.452   1.229
 9734SOL     OW39254   6.980   3.666   0.651
 9734SOL    HW239255   6.923   3.619   0.590
 9734SOL    HW339256   7.066   3.627   0.638
 9734SOL    MW439257   6.983   3.657   0.641
 9735SOL     OW39258   6.933   2.142   0.782
 9735SOL    HW239259   6.961   2.074   0.843
 9735SOL    HW339260   6.847   2.113   0.752
 9735SOL    MW439261   6.926   2.129   0.786
 9736SOL     OW39262   5.738   3.076   0.716
 9736SOL    HW239263   5.802   3.108   0.779
 9736SOL    HW339264   5.787   3.012   0.664
 9736SOL    MW439265   5.753   3.072   0.717
 9737SOL     OW39266   6.238   3.152   1.698
 9737SOL    HW239267   6.286   3.235   1.685
 9737SOL    HW339268   6.295   3.100   1.754
 9737SOL    MW439269   6.252   3.156   1.704
 9738SOL     OW39270   5.814   3.394   1.838
 9738SOL    HW239271   5.870   3.318   1.853
 9738SOL    HW339272   5.763   3.372   1.760
 9738SOL    MW439273   5.814   3.381   1.829
 9739SOL     OW39274   6.699   3.231   1.447
 9739SOL    HW239275   6.610   3.237   1.415
 9739SOL    HW339276   6.743   3.310   1.415
 9739SOL    MW439277   6.694   3.241   1.439
 9740SOL     OW39278   5.992   1.899   1.789
 9740SOL    HW239279   5.920   1.864   1.737
 9740SOL    HW339280   6.050   1.940   1.724
 9740SOL    MW439281   5.990   1.900   1.774
 9741SOL     OW39282   6.016   3.389   1.088
 9741SOL    HW239283   6.061   3.451   1.145
 9741SOL    HW339284   5.923   3.408   1.101
 9741SOL    MW439285   6.009   3.399   1.095
 9742SOL     OW39286   7.456   2.918   1.442
 9742SOL    HW239287   7.371   2.931   1.401
 9742SOL    HW339288   7.436   2.882   1.529
 9742SOL    MW439289   7.443   2.914   1.447
 9743SOL     OW39290   6.438   3.457   1.196
 9743SOL    HW239291   6.462   3.446   1.105
 9743SOL    HW339292   6.361   3.514   1.194
 9743SOL    MW439293   6.430   3.462   1.185
 9744SOL     OW39294   6.233   3.162   0.986
 9744SOL    HW239295   6.226   3.141   1.080
 9744SOL    HW339296   6.151   3.130   0.949
 9744SOL    MW439297   6.221   3.156   0.993
 9745SOL     OW39298   7.097   2.172   1.388
 9745SOL    HW239299   7.044   2.174   1.468
 9745SOL    HW339300   7.082   2.085   1.351
 9745SOL    MW439301   7.089   2.162   1.393
 9746SOL     OW39302   7.433   2.096   1.261
 9746SOL    HW239303   7.414   2.163   1.196
 9746SOL    HW339304   7.490   2.034   1.216
 9746SOL    MW439305   7.437   2.097   1.247
 9747SOL     OW39306   5.679   3.254   1.649
 9747SOL    HW239307   5.723   3.187   1.595
 9747SOL    HW339308   5.594   3.216   1.669
 9747SOL    MW439309   5.674   3.240   1.645
 9748SOL     OW39310   6.362   1.929   0.701
 9748SOL    HW239311   6.291   1.990   0.683
 9748SOL    HW339312   6.413   1.926   0.620
 9748SOL    MW439313   6.358   1.935   0.688
 9749SOL     OW39314   6.120   3.169   0.450
 9749SOL    HW239315   6.113   3.201   0.540
 9749SOL    HW339316   6.030   3.153   0.422
 9749SOL    MW439317   6.108   3.171   0.457
 9750SOL     OW39318   6.715   3.562   1.359
 9750SOL    HW239319   6.635   3.547   1.309
 9750SOL    HW339320   6.722   3.657   1.366
 9750SOL    MW439321   6.706   3.573   1.353
 9751SOL     OW39322   6.829   3.527   0.849
 9751SOL    HW239323   6.876   3.600   0.808
 9751SOL    HW339324   6.750   3.566   0.885
 9751SOL    MW439325   6.824   3.542   0.848
 9752SOL     OW39326   7.237   3.622   1.124
 9752SOL    HW239327   7.280   3.592   1.204
 9752SOL    HW339328   7.156   3.570   1.121
 9752SOL    MW439329   7.232   3.611   1.134
 9753SOL     OW39330   6.322   2.586   1.831
 9753SOL    HW239331   6.392   2.528   1.803
 9753SOL    HW339332   6.265   2.531   1.886
 9753SOL    MW439333   6.324   2.573   1.835
 9754SOL     OW39334   7.109   2.798   1.464
 9754SOL    HW239335   7.114   2.851   1.544
 9754SOL    HW339336   7.071   2.715   1.492
 9754SOL    MW439337   7.105   2.793   1.479
 9755SOL     OW39338   6.749   1.933   1.710
 9755SOL    HW239339   6.744   1.840   1.691
 9755SOL    HW339340   6.832   1.944   1.756
 9755SOL    MW439341   6.757   1.922   1.714
 9756SOL     OW39342   7.219   3.204   0.986
 9756SOL    HW239343   7.254   3.186   0.899
 9756SOL    HW339344   7.124   3.205   0.973
 9756SOL    MW439345   7.211   3.201   0.973
 9757SOL     OW39346   6.648   2.852   1.355
 9757SOL    HW239347   6.691   2.887   1.433
 9757SOL    HW339348   6.631   2.929   1.301
 9757SOL    MW439349   6.651   2.867   1.358
 9758SOL     OW39350   6.039   1.994   0.657
 9758SOL    HW239351   6.089   2.037   0.588
 9758SOL    HW339352   5.954   2.038   0.657
 9758SOL    MW439353   6.036   2.007   0.648
 9759SOL     OW39354   5.798   3.056   1.517
 9759SOL    HW239355   5.826   3.009   1.595
 9759SOL    HW339356   5.719   3.011   1.488
 9759SOL    MW439357   5.791   3.045   1.523
 9760SOL     OW39358   6.306   2.383   1.484
 9760SOL    HW239359   6.278   2.471   1.508
 9760SOL    HW339360   6.275   2.327   1.555
 9760SOL    MW439361   6.298   2.386   1.496
 9761SOL     OW39362   6.848   2.601   0.203
 9761SOL    HW239363   6.895   2.619   0.122
 9761SOL    HW339364   6.814   2.685   0.231
 9761SOL    MW439365   6.850   2.615   0.196
 9762SOL     OW39366   5.961   2.779   0.697
 9762SOL    HW239367   6.019   2.835   0.645
 9762SOL    HW339368   6.005   2.694   0.699
 9762SOL    MW439369   5.974   2.776   0.690
 9763SOL     OW39370   7.101   2.131   0.534
 9763SOL    HW239371   7.023   2.081   0.559
 9763SOL    HW339372   7.072   2.222   0.534
 9763SOL    MW439373   7.087   2.135   0.537
 9764SOL     OW39374   6.687   2.093   0.693
 9764SOL    HW239375   6.707   2.168   0.637
 9764SOL    HW339376   6.667   2.132   0.778
 9764SOL    MW439377   6.688   2.109   0.697
 9765SOL     OW39378   7.447   2.866   1.712
 9765SOL    HW239379   7.360   2.846   1.748
 9765SOL    HW339380   7.501   2.792   1.737
 9765SOL    MW439381   7.442   2.855   1.720
 9766SOL     OW39382   5.668   3.379   0.869
 9766SOL    HW239383   5.700   3.383   0.960
 9766SOL    HW339384   5.573   3.387   0.877
 9766SOL    MW439385   5.660   3.382   0.882
 9767SOL     OW39386   7.191   3.717   1.850
 9767SOL    HW239387   7.236   3.641   1.815
 9767SOL    HW339388   7.229   3.730   1.937
 9767SOL    MW439389   7.201   3.710   1.856
 9768SOL     OW39390   6.791   3.236   0.576
 9768SOL    HW239391   6.814   3.187   0.654
 9768SOL    HW339392   6.872   3.278   0.548
 9768SOL    MW439393   6.804   3.236   0.583
 9769SOL     OW39394   6.049   2.244   1.305
 9769SOL    HW239395   6.082   2.325   1.345
 9769SOL    HW339396   6.022   2.270   1.217
 9769SOL    MW439397   6.048   2.258   1.299
 9770SOL     OW39398   6.003   2.211   1.041
 9770SOL    HW239399   6.033   2.125   1.012
 9770SOL    HW339400   5.908   2.204   1.044
 9770SOL    MW439401   5.995   2.200   1.039
 9771SOL     OW39402   6.832   2.420   1.732
 9771SOL    HW239403   6.884   2.355   1.685
 9771SOL    HW339404   6.790   2.471   1.662
 9771SOL    MW439405   6.833   2.417   1.715
 9772SOL     OW39406   6.931   2.215   1.593
 9772SOL    HW239407   6.838   2.199   1.580
 9772SOL    HW339408   6.957   2.153   1.661
 9772SOL    MW439409   6.921   2.205   1.600
 9773SOL     OW39410   6.146   1.989   0.932
 9773SOL    HW239411   6.156   1.898   0.958
 9773SOL    HW339412   6.102   1.985   0.847
 9773SOL    MW439413   6.142   1.977   0.924
 9774SOL     OW39414   6.240   3.604   1.478
 9774SOL    HW239415   6.157   3.589   1.523
 9774SOL    HW339416   6.299   3.537   1.513
 9774SOL    MW439417   6.238   3.594   1.488
 9775SOL     OW39418   7.297   2.311   1.103
 9775SOL    HW239419   7.230   2.344   1.163
 9775SOL    HW339420   7.340   2.389   1.069
 9775SOL    MW439421   7.295   2.326   1.107
 9776SOL     OW39422   7.475   3.031   1.073
 9776SOL    HW239423   7.468   2.971   0.998
 9776SOL    HW339424   7.401   3.091   1.062
 9776SOL    MW439425   7.465   3.031   1.062
 9777SOL     OW39426   6.857   2.893   0.991
 9777SOL    HW239427   6.871   2.865   1.082
 9777SOL    HW339428   6.943   2.924   0.963
 9777SOL    MW439429   6.870   2.894   1.000
 9778SOL     OW39430   6.940   2.388   1.270
 9778SOL    HW239431   6.961   2.389   1.177
 9778SOL    HW339432   6.985   2.310   1.303
 9778SOL    MW439433   6.947   2.378   1.262
 9779SOL     OW39434   7.433   2.519   1.812
 9779SOL    HW239435   7.470   2.464   1.881
 9779SOL    HW339436   7.458   2.476   1.730
 9779SOL    MW439437   7.440   2.507   1.811
 9780SOL     OW39438   6.980   2.817   1.863
 9780SOL    HW239439   7.046   2.765   1.817
 9780SOL    HW339440   7.000   2.804   1.956
 9780SOL    MW439441   6.991   2.808   1.870
 9781SOL     OW39442   6.931   1.903   0.212
 9781SOL    HW239443   7.005   1.947   0.255
 9781SOL    HW339444   6.855   1.957   0.234
 9781SOL    MW439445   6.931   1.915   0.220
 9782SOL     OW39446   6.991   2.678   0.490
 9782SOL    HW239447   6.906   2.648   0.460
 9782SOL    HW339448   6.983   2.685   0.585
 9782SOL    MW439449   6.979   2.676   0.499
 9783SOL     OW39450   6.067   3.141   1.221
 9783SOL    HW239451   6.079   3.168   1.312
 9783SOL    HW339452   6.048   3.222   1.174
 9783SOL    MW439453   6.066   3.156   1.226
 9784SOL     OW39454   6.351   2.121   1.044
 9784SOL    HW239455   6.324   2.123   1.135
 9784SOL    HW339456   6.281   2.073   0.999
 9784SOL    MW439457   6.339   2.117   1.051
 9785SOL     OW39458   6.205   3.613   1.206
 9785SOL    HW239459   6.257   3.690   1.183
 9785SOL    HW339460   6.214   3.605   1.301
 9785SOL    MW439461   6.214   3.620   1.217
 9786SOL     OW39462   7.107   3.198   1.438
 9786SOL    HW239463   7.092   3.127   1.501
 9786SOL    HW339464   7.153   3.156   1.366
 9786SOL    MW439465   7.113   3.182   1.438
 9787SOL     OW39466   6.181   2.929   1.555
 9787SOL    HW239467   6.218   2.934   1.467
 9787SOL    HW339468   6.220   3.002   1.602
 9787SOL    MW439469   6.191   2.939   1.550
 9788SOL     OW39470   6.361   2.972   1.367
 9788SOL    HW239471   6.420   2.918   1.420
 9788SOL    HW339472   6.376   2.944   1.277
 9788SOL    MW439473   6.371   2.961   1.363
 9789SOL     OW39474   7.172   3.461   1.539
 9789SOL    HW239475   7.214   3.446   1.624
 9789SOL    HW339476   7.163   3.374   1.501
 9789SOL    MW439477   7.176   3.449   1.546
 9790SOL     OW39478   6.832   1.940   1.130
 9790SOL    HW239479   6.887   1.949   1.052
 9790SOL    HW339480   6.887   1.974   1.201
 9790SOL    MW439481   6.846   1.945   1.129
 9791SOL     OW39482   5.993   3.596   0.894
 9791SOL    HW239483   5.997   3.507   0.929
 9791SOL    HW339484   6.019   3.587   0.803
 9791SOL    MW439485   5.996   3.584   0.886
 9792SOL     OW39486   6.610   3.074   1.137
 9792SOL    HW239487   6.542   3.008   1.153
 9792SOL    HW339488   6.628   3.068   1.044
 9792SOL    MW439489   6.603   3.065   1.128
 9793SOL     OW39490   5.699   3.349   1.388
 9793SOL    HW239491   5.689   3.307   1.474
 9793SOL    HW339492   5.620   3.402   1.378
 9793SOL    MW439493   5.688   3.350   1.399
 9794SOL     OW39494   6.603   2.213   0.958
 9794SOL    HW239495   6.533   2.165   1.003
 9794SOL    HW339496   6.635   2.276   1.022
 9794SOL    MW439497   6.598   2.215   0.972
 9795SOL     OW39498   6.254   2.649   1.578
 9795SOL    HW239499   6.247   2.744   1.566
 9795SOL    HW339500   6.263   2.638   1.673
 9795SOL    MW439501   6.255   2.661   1.588
 9796SOL     OW39502   5.975   3.164   1.836
 9796SOL    HW239503   6.047   3.166   1.773
 9796SOL    HW339504   5.945   3.073   1.835
 9796SOL    MW439505   5.980   3.153   1.828
 9797SOL     OW39506   7.059   1.927   1.303
 9797SOL    HW239507   7.130   1.873   1.267
 9797SOL    HW339508   7.058   1.906   1.396
 9797SOL    MW439509   7.068   1.918   1.311
 9798SOL     OW39510   7.259   3.457   1.787
 9798SOL    HW239511   7.232   3.454   1.878
 9798SOL    HW339512   7.355   3.461   1.790
 9798SOL    MW439513   7.269   3.457   1.799
 9799SOL     OW39514   6.070   2.319   0.771
 9799SOL    HW239515   6.141   2.267   0.734
 9799SOL    HW339516   6.056   2.284   0.858
 9799SOL    MW439517   6.078   2.308   0.778
 9800SOL     OW39518   5.625   3.654   1.843
 9800SOL    HW239519   5.675   3.632   1.765
 9800SOL    HW339520   5.633   3.749   1.851
 9800SOL    MW439521   5.633   3.663   1.834
 9801SOL     OW39522   6.386   3.412   0.847
 9801SOL    HW239523   6.314   3.349   0.860
 9801SOL    HW339524   6.347   3.497   0.865
 9801SOL    MW439525   6.370   3.415   0.850
 9802SOL     OW39526   6.706   2.260   0.495
 9802SOL    HW239527   6.728   2.197   0.427
 9802SOL    HW339528   6.611   2.252   0.506
 9802SOL    MW439529   6.696   2.251   0.487
 9803SOL     OW39530   5.622   2.417   1.570
 9803SOL    HW239531   5.686   2.483   1.545
 9803SOL    HW339532   5.541   2.444   1.527
 9803SOL    MW439533   5.620   2.429   1.562
 9804SOL     OW39534   7.360   3.324   0.527
 9804SOL    HW239535   7.330   3.257   0.588
 9804SOL    HW339536   7.454   3.330   0.541
 9804SOL    MW439537   7.368   3.316   0.537
 9805SOL     OW39538   6.916   3.001   0.457
 9805SOL    HW239539   6.888   3.087   0.490
 9805SOL    HW339540   6.944   3.017   0.367
 9805SOL    MW439541   6.916   3.015   0.449
 9806SOL     OW39542   6.578   1.921   0.510
 9806SOL    HW239543   6.615   1.980   0.575
 9806SOL    HW339544   6.555   1.977   0.436
 9806SOL    MW439545   6.579   1.936   0.509
 9807SOL     OW39546   7.431   2.803   0.932
 9807SOL    HW239547   7.422   2.835   0.843
 9807SOL    HW339548   7.384   2.719   0.932
 9807SOL    MW439549   7.424   2.796   0.922
 9808SOL     OW39550   5.807   2.643   1.511
 9808SOL    HW239551   5.828   2.712   1.449
 9808SOL    HW339552   5.887   2.590   1.516
 9808SOL    MW439553   5.820   2.644   1.505
 9809SOL     OW39554   7.343   2.734   0.633
 9809SOL    HW239555   7.437   2.723   0.621
 9809SOL    HW339556   7.319   2.806   0.574
 9809SOL    MW439557   7.353   2.742   0.624
 9810SOL     OW39558   5.792   2.658   1.778
 9810SOL    HW239559   5.718   2.602   1.804
 9810SOL    HW339560   5.787   2.661   1.683
 9810SOL    MW439561   5.781   2.651   1.768
 9811SOL     OW39562   5.958   1.945   1.228
 9811SOL    HW239563   6.001   2.029   1.248
 9811SOL    HW339564   6.031   1.883   1.221
 9811SOL    MW439565   5.973   1.948   1.229
 9812SOL     OW39566   5.999   2.612   0.406
 9812SOL    HW239567   5.999   2.707   0.391
 9812SOL    HW339568   6.076   2.596   0.460
 9812SOL    MW439569   6.009   2.623   0.411
 9813SOL     OW39570   6.775   2.471   1.470
 9813SOL    HW239571   6.811   2.444   1.386
 9813SOL    HW339572   6.688   2.505   1.449
 9813SOL    MW439573   6.769   2.472   1.457
 9814SOL     OW39574   5.758   2.343   0.695
 9814SOL    HW239575   5.820   2.350   0.768
 9814SOL    HW339576   5.758   2.250   0.672
 9814SOL    MW439577   5.766   2.332   0.702
 9815SOL     OW39578   6.440   2.604   1.179
 9815SOL    HW239579   6.398   2.522   1.155
 9815SOL    HW339580   6.441   2.603   1.275
 9815SOL    MW439581   6.433   2.593   1.188
 9816SOL     OW39582   7.111   3.737   1.578
 9816SOL    HW239583   7.114   3.643   1.561
 9816SOL    HW339584   7.134   3.745   1.670
 9816SOL    MW439585   7.114   3.725   1.588
 9817SOL     OW39586   6.244   2.074   1.284
 9817SOL    HW239587   6.175   2.137   1.305
 9817SOL    HW339588   6.271   2.038   1.369
 9817SOL    MW439589   6.238   2.077   1.297
 9818SOL     OW39590   7.039   1.927   0.901
 9818SOL    HW239591   7.127   1.936   0.938
 9818SOL    HW339592   7.049   1.868   0.827
 9818SOL    MW439593   7.053   1.921   0.895
 9819SOL     OW39594   7.071   2.666   0.745
 9819SOL    HW239595   7.151   2.681   0.694
 9819SOL    HW339596   7.064   2.571   0.751
 9819SOL    MW439597   7.080   2.655   0.740
 9820SOL     OW39598   6.521   2.592   1.442
 9820SOL    HW239599   6.590   2.659   1.439
 9820SOL    HW339600   6.454   2.630   1.498
 9820SOL    MW439601   6.522   2.605   1.449
 9821SOL     OW39602   5.939   2.892   1.690
 9821SOL    HW239603   5.893   2.808   1.692
 9821SOL    HW339604   5.996   2.886   1.614
 9821SOL    MW439605   5.941   2.880   1.682
 9822SOL     OW39606   7.056   2.535   0.011
 9822SOL    HW239607   6.984   2.511  -0.047
 9822SOL    HW339608   7.122   2.572  -0.047
 9822SOL    MW439609   7.055   2.537  -0.004
 9823SOL     OW39610   6.190   3.267   0.691
 9823SOL    HW239611   6.255   3.200   0.712
 9823SOL    HW339612   6.242   3.344   0.668
 9823SOL    MW439613   6.205   3.269   0.690
 9824SOL     OW39614   6.451   2.432   0.821
 9824SOL    HW239615   6.391   2.450   0.893
 9824SOL    HW339616   6.485   2.344   0.840
 9824SOL    MW439617   6.447   2.422   0.834
 9825SOL     OW39618   7.392   1.931   1.490
 9825SOL    HW239619   7.313   1.977   1.518
 9825SOL    HW339620   7.427   1.985   1.419
 9825SOL    MW439621   7.386   1.944   1.484
 9826SOL     OW39622   6.676   3.015   0.840
 9826SOL    HW239623   6.768   2.996   0.858
 9826SOL    HW339624   6.649   2.945   0.780
 9826SOL    MW439625   6.684   3.003   0.834
 9827SOL     OW39626   6.950   3.253   0.936
 9827SOL    HW239627   6.923   3.337   0.901
 9827SOL    HW339628   6.910   3.248   1.023
 9827SOL    MW439629   6.943   3.262   0.942
 9828SOL     OW39630   6.869   3.201   1.204
 9828SOL    HW239631   6.880   3.168   1.293
 9828SOL    HW339632   6.788   3.160   1.173
 9828SOL    MW439633   6.859   3.193   1.210
 9829SOL     OW39634   5.882   2.559   0.974
 9829SOL    HW239635   5.832   2.558   1.055
 9829SOL    HW339636   5.902   2.651   0.958
 9829SOL    MW439637   5.878   2.571   0.982
 9830SOL     OW39638   6.949   3.323   1.736
 9830SOL    HW239639   6.949   3.417   1.752
 9830SOL    HW339640   6.994   3.313   1.652
 9830SOL    MW439641   6.955   3.333   1.727
 9831SOL     OW39642   5.804   2.227   1.715
 9831SOL    HW239643   5.761   2.286   1.652
 9831SOL    HW339644   5.872   2.282   1.755
 9831SOL    MW439645   5.808   2.242   1.712
 9832SOL     OW39646   6.916   2.847   1.260
 9832SOL    HW239647   6.979   2.844   1.333
 9832SOL    HW339648   6.832   2.865   1.302
 9832SOL    MW439649   6.912   2.849   1.275
 9833SOL     OW39650   6.460   3.562   0.449
 9833SOL    HW239651   6.518   3.633   0.476
 9833SOL    HW339652   6.483   3.490   0.507
 9833SOL    MW439653   6.471   3.562   0.460
 9834SOL     OW39654   7.255   2.024   1.039
 9834SOL    HW239655   7.300   1.942   1.058
 9834SOL    HW339656   7.275   2.080   1.115
 9834SOL    MW439657   7.265   2.020   1.051
 9835SOL     OW39658   5.703   1.867   1.138
 9835SOL    HW239659   5.694   1.868   1.043
 9835SOL    HW339660   5.797   1.879   1.153
 9835SOL    MW439661   5.715   1.870   1.129
 9836SOL     OW39662   7.340   3.060   0.758
 9836SOL    HW239663   7.319   3.006   0.681
 9836SOL    HW339664   7.436   3.058   0.762
 9836SOL    MW439665   7.349   3.053   0.747
 9837SOL     OW39666   6.032   3.205   1.501
 9837SOL    HW239667   5.953   3.155   1.524
 9837SOL    HW339668   6.102   3.164   1.551
 9837SOL    MW439669   6.030   3.193   1.511
 9838SOL     OW39670   7.040   2.491   1.020
 9838SOL    HW239671   6.963   2.537   0.986
 9838SOL    HW339672   7.097   2.560   1.054
 9838SOL    MW439673   7.037   2.506   1.020
 9839SOL     OW39674   5.706   3.350   0.222
 9839SOL    HW239675   5.723   3.434   0.264
 9839SOL    HW339676   5.741   3.359   0.134
 9839SOL    MW439677   5.711   3.363   0.216
 9840SOL     OW39678   6.978   3.439   0.439
 9840SOL    HW239679   7.041   3.429   0.368
 9840SOL    HW339680   6.895   3.459   0.394
 9840SOL    MW439681   6.975   3.440   0.424
 9841SOL     OW39682   7.341   2.707   2.125
 9841SOL    HW239683   7.382   2.649   2.190
 9841SOL    HW339684   7.248   2.699   2.142
 9841SOL    MW439685   7.335   2.699   2.135
 9842SOL     OW39686   7.207   2.639   3.120
 9842SOL    HW239687   7.162   2.706   3.171
 9842SOL    HW339688   7.295   2.675   3.106
 9842SOL    MW439689   7.213   2.652   3.124
 9843SOL     OW39690   6.135   2.890   2.354
 9843SOL    HW239691   6.225   2.865   2.338
 9843SOL    HW339692   6.131   2.983   2.331
 9843SOL    MW439693   6.147   2.899   2.349
 9844SOL     OW39694   7.251   3.593   2.496
 9844SOL    HW239695   7.263   3.539   2.574
 9844SOL    HW339696   7.288   3.541   2.425
 9844SOL    MW439697   7.257   3.578   2.497
 9845SOL     OW39698   6.630   3.478   3.497
 9845SOL    HW239699   6.671   3.514   3.418
 9845SOL    HW339700   6.665   3.389   3.504
 9845SOL    MW439701   6.641   3.471   3.488
 9846SOL     OW39702   7.187   3.033   3.101
 9846SOL    HW239703   7.108   2.998   3.059
 9846SOL    HW339704   7.214   3.105   3.045
 9846SOL    MW439705   7.180   3.038   3.088
 9847SOL     OW39706   6.419   2.346   2.367
 9847SOL    HW239707   6.394   2.434   2.395
 9847SOL    HW339708   6.416   2.349   2.271
 9847SOL    MW439709   6.415   2.358   2.359
 9848SOL     OW39710   5.861   2.374   2.295
 9848SOL    HW239711   5.893   2.462   2.277
 9848SOL    HW339712   5.849   2.372   2.390
 9848SOL    MW439713   5.864   2.386   2.307
 9849SOL     OW39714   5.939   2.787   3.196
 9849SOL    HW239715   6.002   2.734   3.147
 9849SOL    HW339716   5.920   2.861   3.139
 9849SOL    MW439717   5.945   2.789   3.183
 9850SOL     OW39718   6.260   2.129   2.382
 9850SOL    HW239719   6.318   2.205   2.384
 9850SOL    HW339720   6.195   2.150   2.315
 9850SOL    MW439721   6.259   2.141   2.373
 9851SOL     OW39722   6.347   3.056   2.557
 9851SOL    HW239723   6.427   3.059   2.609
 9851SOL    HW339724   6.375   3.023   2.471
 9851SOL    MW439725   6.361   3.052   2.552
 9852SOL     OW39726   6.372   3.397   3.460
 9852SOL    HW239727   6.456   3.423   3.499
 9852SOL    HW339728   6.396   3.341   3.386
 9852SOL    MW439729   6.386   3.393   3.455
 9853SOL     OW39730   6.124   2.560   2.548
 9853SOL    HW239731   6.109   2.480   2.599
 9853SOL    HW339732   6.206   2.595   2.582
 9853SOL    MW439733   6.132   2.552   2.560
 9854SOL     OW39734   6.461   3.246   3.233
 9854SOL    HW239735   6.425   3.312   3.173
 9854SOL    HW339736   6.389   3.184   3.246
 9854SOL    MW439737   6.447   3.246   3.227
 9855SOL     OW39738   6.266   2.386   2.925
 9855SOL    HW239739   6.172   2.382   2.943
 9855SOL    HW339740   6.296   2.295   2.934
 9855SOL    MW439741   6.257   2.374   2.928
 9856SOL     OW39742   6.012   2.800   2.829
 9856SOL    HW239743   5.967   2.807   2.745
 9856SOL    HW339744   5.992   2.883   2.873
 9856SOL    MW439745   6.004   2.812   2.823
 9857SOL     OW39746   5.709   3.646   2.704
 9857SOL    HW239747   5.798   3.638   2.739
 9857SOL    HW339748   5.673   3.558   2.709
 9857SOL    MW439749   5.716   3.633   2.709
 9858SOL     OW39750   6.974   3.038   2.073
 9858SOL    HW239751   6.892   3.074   2.039
 9858SOL    HW339752   7.042   3.081   2.022
 9858SOL    MW439753   6.972   3.048   2.061
 9859SOL     OW39754   5.973   3.173   2.739
 9859SOL    HW239755   5.949   3.226   2.815
 9859SOL    HW339756   6.029   3.231   2.687
 9859SOL    MW439757   5.977   3.188   2.742
 9860SOL     OW39758   6.535   2.817   2.549
 9860SOL    HW239759   6.449   2.804   2.589
 9860SOL    HW339760   6.588   2.744   2.581
 9860SOL    MW439761   6.531   2.806   2.558
 9861SOL     OW39762   5.943   3.469   3.334
 9861SOL    HW239763   5.851   3.445   3.319
 9861SOL    HW339764   5.987   3.386   3.351
 9861SOL    MW439765   5.937   3.454   3.333
 9862SOL     OW39766   6.526   3.179   2.266
 9862SOL    HW239767   6.503   3.241   2.334
 9862SOL    HW339768   6.483   3.097   2.292
 9862SOL    MW439769   6.518   3.175   2.277
 9863SOL     OW39770   7.399   2.180   2.722
 9863SOL    HW239771   7.336   2.160   2.791
 9863SOL    HW339772   7.389   2.109   2.659
 9863SOL    MW439773   7.389   2.167   2.723
 9864SOL     OW39774   6.023   2.152   2.234
 9864SOL    HW239775   5.997   2.114   2.150
 9864SOL    HW339776   5.960   2.222   2.250
 9864SOL    MW439777   6.012   2.155   2.225
 9865SOL     OW39778   5.858   3.113   2.271
 9865SOL    HW239779   5.806   3.181   2.227
 9865SOL    HW339780   5.855   3.039   2.211
 9865SOL    MW439781   5.850   3.112   2.258
 9866SOL     OW39782   6.520   3.576   2.049
 9866SOL    HW239783   6.475   3.592   2.132
 9866SOL    HW339784   6.451   3.541   1.991
 9866SOL    MW439785   6.506   3.573   2.051
 9867SOL     OW39786   7.455   2.349   2.024
 9867SOL    HW239787   7.364   2.351   2.052
 9867SOL    HW339788   7.500   2.411   2.082
 9867SOL    MW439789   7.448   2.357   2.034
 9868SOL     OW39790   7.200   2.952   2.374
 9868SOL    HW239791   7.110   2.952   2.409
 9868SOL    HW339792   7.193   2.998   2.291
 9868SOL    MW439793   7.187   2.958   2.368
 9869SOL     OW39794   7.000   2.587   3.446
 9869SOL    HW239795   7.069   2.525   3.423
 9869SOL    HW339796   6.925   2.561   3.393
 9869SOL    MW439797   7.000   2.574   3.437
 9870SOL     OW39798   5.741   3.467   2.998
 9870SOL    HW239799   5.724   3.413   3.075
 9870SOL    HW339800   5.729   3.557   3.028
 9870SOL    MW439801   5.738   3.471   3.012
 9871SOL     OW39802   6.736   2.974   3.438
 9871SOL    HW239803   6.721   3.067   3.423
 9871SOL    HW339804   6.831   2.964   3.438
 9871SOL    MW439805   6.745   2.984   3.435
 9872SOL     OW39806   6.532   2.398   3.639
 9872SOL    HW239807   6.622   2.399   3.606
 9872SOL    HW339808   6.491   2.323   3.597
 9872SOL    MW439809   6.538   2.388   3.630
 9873SOL     OW39810   7.107   2.930   2.766
 9873SOL    HW239811   7.110   2.864   2.697
 9873SOL    HW339812   7.192   2.973   2.762
 9873SOL    MW439813   7.119   2.926   2.757
 9874SOL     OW39814   6.727   2.533   2.335
 9874SOL    HW239815   6.753   2.557   2.246
 9874SOL    HW339816   6.709   2.440   2.331
 9874SOL    MW439817   6.729   2.525   2.322
 9875SOL     OW39818   7.392   3.153   2.186
 9875SOL    HW239819   7.348   3.194   2.261
 9875SOL    HW339820   7.449   3.221   2.151
 9875SOL    MW439821   7.394   3.167   2.191
 9876SOL     OW39822   6.312   2.202   3.589
 9876SOL    HW239823   6.322   2.128   3.529
 9876SOL    HW339824   6.348   2.171   3.672
 9876SOL    MW439825   6.318   2.188   3.591
 9877SOL     OW39826   6.048   3.569   2.504
 9877SOL    HW239827   6.080   3.657   2.482
 9877SOL    HW339828   6.001   3.541   2.426
 9877SOL    MW439829   6.047   3.577   2.491
 9878SOL     OW39830   7.432   1.931   2.553
 9878SOL    HW239831   7.486   1.882   2.615
 9878SOL    HW339832   7.375   1.865   2.514
 9878SOL    MW439833   7.432   1.915   2.555
 9879SOL     OW39834   5.764   3.629   2.081
 9879SOL    HW239835   5.793   3.719   2.073
 9879SOL    HW339836   5.714   3.612   2.002
 9879SOL    MW439837   5.762   3.637   2.070
 9880SOL     OW39838   6.551   1.884   2.966
 9880SOL    HW239839   6.510   1.962   2.928
 9880SOL    HW339840   6.645   1.902   2.961
 9880SOL    MW439841   6.557   1.896   2.961
 9881SOL     OW39842   7.168   3.437   2.052
 9881SOL    HW239843   7.216   3.506   2.098
 9881SOL    HW339844   7.089   3.481   2.021
 9881SOL    MW439845   7.163   3.451   2.055
 9882SOL     OW39846   6.566   2.562   1.996
 9882SOL    HW239847   6.568   2.509   1.917
 9882SOL    HW339848   6.654   2.599   2.002
 9882SOL    MW439849   6.578   2.561   1.985
 9883SOL     OW39850   7.180   2.488   2.332
 9883SOL    HW239851   7.219   2.488   2.419
 9883SOL    HW339852   7.121   2.564   2.332
 9883SOL    MW439853   7.177   2.499   2.343
 9884SOL     OW39854   6.497   2.855   3.461
 9884SOL    HW239855   6.474   2.835   3.551
 9884SOL    HW339856   6.582   2.899   3.466
 9884SOL    MW439857   6.504   2.858   3.473
 9885SOL     OW39858   6.577   1.992   3.221
 9885SOL    HW239859   6.583   1.954   3.134
 9885SOL    HW339860   6.566   2.086   3.206
 9885SOL    MW439861   6.578   2.000   3.209
 9886SOL     OW39862   6.666   2.481   3.055
 9886SOL    HW239863   6.741   2.510   3.002
 9886SOL    HW339864   6.598   2.546   3.039
 9886SOL    MW439865   6.667   2.493   3.045
 9887SOL     OW39866   7.216   2.449   3.332
 9887SOL    HW239867   7.197   2.358   3.311
 9887SOL    HW339868   7.194   2.498   3.253
 9887SOL    MW439869   7.211   2.442   3.319
 9888SOL     OW39870   7.358   3.543   3.236
 9888SOL    HW239871   7.286   3.505   3.287
 9888SOL    HW339872   7.375   3.628   3.277
 9888SOL    MW439873   7.352   3.548   3.248
 9889SOL     OW39874   6.663   2.187   3.438
 9889SOL    HW239875   6.629   2.226   3.357
 9889SOL    HW339876   6.641   2.095   3.431
 9889SOL    MW439877   6.656   2.180   3.428
 9890SOL     OW39878   7.072   3.001   3.514
 9890SOL    HW239879   7.154   3.042   3.544
 9890SOL    HW339880   7.035   2.963   3.594
 9890SOL    MW439881   7.078   3.002   3.529
 9891SOL     OW39882   7.367   2.374   2.498
 9891SOL    HW239883   7.456   2.343   2.515
 9891SOL    HW339884   7.310   2.314   2.546
 9891SOL    MW439885   7.370   2.362   2.507
 9892SOL     OW39886   5.793   2.088   2.527
 9892SOL    HW239887   5.784   2.028   2.453
 9892SOL    HW339888   5.726   2.059   2.590
 9892SOL    MW439889   5.783   2.075   2.525
 9893SOL     OW39890   6.736   3.181   2.088
 9893SOL    HW239891   6.686   3.183   2.170
 9893SOL    HW339892   6.670   3.199   2.020
 9893SOL    MW439893   6.722   3.183   2.090
 9894SOL     OW39894   5.740   2.261   2.890
 9894SOL    HW239895   5.712   2.352   2.899
 9894SOL    HW339896   5.677   2.222   2.829
 9894SOL    MW439897   5.727   2.267   2.884
 9895SOL     OW39898   6.199   3.599   2.196
 9895SOL    HW239899   6.120   3.557   2.229
 9895SOL    HW339900   6.265   3.582   2.263
 9895SOL    MW439901   6.198   3.591   2.209
 9896SOL     OW39902   7.327   3.119   3.593
 9896SOL    HW239903   7.377   3.045   3.625
 9896SOL    HW339904   7.273   3.146   3.668
 9896SOL    MW439905   7.327   3.113   3.606
 9897SOL     OW39906   6.335   3.014   1.903
 9897SOL    HW239907   6.257   2.960   1.890
 9897SOL    HW339908   6.306   3.087   1.956
 9897SOL    MW439909   6.321   3.016   1.908
 9898SOL     OW39910   7.461   2.754   3.095
 9898SOL    HW239911   7.477   2.792   3.008
 9898SOL    HW339912   7.495   2.820   3.156
 9898SOL    MW439913   7.468   2.767   3.091
 9899SOL     OW39914   7.253   3.463   2.764
 9899SOL    HW239915   7.282   3.530   2.825
 9899SOL    HW339916   7.234   3.387   2.819
 9899SOL    MW439917   7.255   3.463   2.779
 9900SOL     OW39918   6.916   3.530   1.971
 9900SOL    HW239919   6.842   3.493   2.021
 9900SOL    HW339920   6.924   3.620   2.004
 9900SOL    MW439921   6.907   3.537   1.983
 9901SOL     OW39922   5.724   2.536   3.060
 9901SOL    HW239923   5.786   2.566   3.126
 9901SOL    HW339924   5.658   2.605   3.054
 9901SOL    MW439925   5.723   2.549   3.067
 9902SOL     OW39926   7.140   3.204   1.913
 9902SOL    HW239927   7.087   3.253   1.849
 9902SOL    HW339928   7.171   3.270   1.974
 9902SOL    MW439929   7.138   3.218   1.911
 9903SOL     OW39930   6.365   2.093   1.968
 9903SOL    HW239931   6.313   2.013   1.956
 9903SOL    HW339932   6.452   2.070   1.936
 9903SOL    MW439933   6.368   2.079   1.962
 9904SOL     OW39934   5.819   3.645   3.512
 9904SOL    HW239935   5.793   3.713   3.450
 9904SOL    HW339936   5.867   3.582   3.460
 9904SOL    MW439937   5.821   3.645   3.498
 9905SOL     OW39938   5.871   2.964   3.019
 9905SOL    HW239939   5.924   3.039   3.044
 9905SOL    HW339940   5.790   3.002   2.985
 9905SOL    MW439941   5.867   2.979   3.019
 9906SOL     OW39942   6.411   2.868   3.007
 9906SOL    HW239943   6.439   2.777   3.019
 9906SOL    HW339944   6.340   2.862   2.943
 9906SOL    MW439945   6.404   2.856   3.002
 9907SOL     OW39946   5.726   2.733   2.425
 9907SOL    HW239947   5.817   2.748   2.452
 9907SOL    HW339948   5.729   2.654   2.371
 9907SOL    MW439949   5.738   2.725   2.423
 9908SOL     OW39950   5.962   2.441   3.679
 9908SOL    HW239951   5.909   2.521   3.686
 9908SOL    HW339952   6.032   2.453   3.744
 9908SOL    MW439953   5.964   2.454   3.687
 9909SOL     OW39954   6.348   1.991   3.386
 9909SOL    HW239955   6.325   1.899   3.388
 9909SOL    HW339956   6.434   1.993   3.343
 9909SOL    MW439957   6.355   1.981   3.382
 9910SOL     OW39958   6.032   2.515   3.425
 9910SOL    HW239959   6.112   2.565   3.411
 9910SOL    HW339960   6.023   2.509   3.520
 9910SOL    MW439961   6.041   2.521   3.435
 9911SOL     OW39962   6.353   3.665   2.799
 9911SOL    HW239963   6.442   3.680   2.829
 9911SOL    HW339964   6.348   3.712   2.715
 9911SOL    MW439965   6.363   3.673   2.792
 9912SOL     OW39966   7.009   2.040   3.696
 9912SOL    HW239967   7.065   1.967   3.722
 9912SOL    HW339968   6.979   2.078   3.778
 9912SOL    MW439969   7.013   2.035   3.709
 9913SOL     OW39970   5.734   3.345   2.464
 9913SOL    HW239971   5.706   3.384   2.546
 9913SOL    HW339972   5.754   3.254   2.486
 9913SOL    MW439973   5.732   3.337   2.477
 9914SOL     OW39974   6.567   3.388   2.499
 9914SOL    HW239975   6.650   3.342   2.483
 9914SOL    HW339976   6.557   3.387   2.595
 9914SOL    MW439977   6.577   3.381   2.509
 9915SOL     OW39978   7.399   2.533   2.813
 9915SOL    HW239979   7.488   2.563   2.795
 9915SOL    HW339980   7.379   2.473   2.742
 9915SOL    MW439981   7.408   2.530   2.802
 9916SOL     OW39982   7.250   2.712   3.693
 9916SOL    HW239983   7.305   2.636   3.674
 9916SOL    HW339984   7.252   2.720   3.788
 9916SOL    MW439985   7.258   2.703   3.701
 9917SOL     OW39986   6.300   3.445   1.904
 9917SOL    HW239987   6.240   3.514   1.874
 9917SOL    HW339988   6.245   3.387   1.957
 9917SOL    MW439989   6.284   3.447   1.906
 9918SOL     OW39990   6.738   2.090   2.127
 9918SOL    HW239991   6.671   2.066   2.064
 9918SOL    HW339992   6.803   2.139   2.076
 9918SOL    MW439993   6.738   2.092   2.112
 9919SOL     OW39994   6.545   2.274   3.212
 9919SOL    HW239995   6.464   2.315   3.240
 9919SOL    HW339996   6.592   2.342   3.164
 9919SOL    MW439997   6.540   2.289   3.210
 9920SOL     OW39998   6.805   2.612   2.835
 9920SOL    HW239999   6.818   2.706   2.845
 9920SOL    HW340000   6.766   2.602   2.749
 9920SOL    MW440001   6.801   2.623   2.825
 9921SOL     OW40002   6.257   2.807   2.639
 9921SOL    HW240003   6.168   2.798   2.672
 9921SOL    HW340004   6.261   2.897   2.607
 9921SOL    MW440005   6.246   2.818   2.639
 9922SOL     OW40006   7.056   2.390   2.634
 9922SOL    HW240007   7.001   2.311   2.633
 9922SOL    HW340008   7.038   2.431   2.718
 9922SOL    MW440009   7.046   2.385   2.643
 9923SOL     OW40010   6.027   2.077   3.451
 9923SOL    HW240011   5.948   2.095   3.503
 9923SOL    HW340012   6.022   2.139   3.378
 9923SOL    MW440013   6.017   2.087   3.448
 9924SOL     OW40014   6.675   2.594   2.591
 9924SOL    HW240015   6.612   2.526   2.615
 9924SOL    HW340016   6.695   2.575   2.499
 9924SOL    MW440017   6.669   2.581   2.583
 9925SOL     OW40018   5.931   3.489   2.293
 9925SOL    HW240019   5.892   3.536   2.219
 9925SOL    HW340020   5.865   3.424   2.318
 9925SOL    MW440021   5.918   3.487   2.287
 9926SOL     OW40022   6.423   2.898   2.317
 9926SOL    HW240023   6.425   2.872   2.224
 9926SOL    HW340024   6.481   2.835   2.360
 9926SOL    MW440025   6.431   2.887   2.311
 9927SOL     OW40026   6.976   3.458   3.089
 9927SOL    HW240027   6.901   3.504   3.127
 9927SOL    HW340028   6.958   3.365   3.106
 9927SOL    MW440029   6.965   3.452   3.097
 9928SOL     OW40030   6.980   3.666   2.519
 9928SOL    HW240031   6.923   3.619   2.458
 9928SOL    HW340032   7.066   3.627   2.506
 9928SOL    MW440033   6.983   3.657   2.509
 9929SOL     OW40034   6.933   2.142   2.650
 9929SOL    HW240035   6.961   2.074   2.711
 9929SOL    HW340036   6.847   2.113   2.620
 9929SOL    MW440037   6.926   2.129   2.654
 9930SOL     OW40038   5.738   3.076   2.584
 9930SOL    HW240039   5.802   3.108   2.647
 9930SOL    HW340040   5.787   3.012   2.532
 9930SOL    MW440041   5.753   3.072   2.585
 9931SOL     OW40042   6.238   3.152   3.566
 9931SOL    HW240043   6.286   3.235   3.553
 9931SOL    HW340044   6.295   3.100   3.622
 9931SOL    MW440045   6.252   3.156   3.572
 9932SOL     OW40046   5.814   3.394   3.706
 9932SOL    HW240047   5.870   3.318   3.721
 9932SOL    HW340048   5.763   3.372   3.628
 9932SOL    MW440049   5.814   3.381   3.697
 9933SOL     OW40050   6.913   2.246   1.985
 9933SOL    HW240051   6.886   2.312   1.921
 9933SOL    HW340052   6.983   2.289   2.035
 9933SOL    MW440053   6.918   2.259   1.982
 9934SOL     OW40054   6.581   1.951   1.922
 9934SOL    HW240055   6.637   1.943   1.844
 9934SOL    HW340056   6.558   1.861   1.944
 9934SOL    MW440057   6.586   1.938   1.915
 9935SOL     OW40058   7.086   2.802   2.127
 9935SOL    HW240059   7.053   2.891   2.117
 9935SOL    HW340060   7.051   2.773   2.212
 9935SOL    MW440061   7.076   2.811   2.138
 9936SOL     OW40062   6.699   3.231   3.315
 9936SOL    HW240063   6.610   3.237   3.283
 9936SOL    HW340064   6.743   3.310   3.283
 9936SOL    MW440065   6.694   3.241   3.307
 9937SOL     OW40066   5.992   1.899   3.657
 9937SOL    HW240067   5.920   1.864   3.605
 9937SOL    HW340068   6.050   1.940   3.592
 9937SOL    MW440069   5.990   1.900   3.642
 9938SOL     OW40070   6.016   3.389   2.956
 9938SOL    HW240071   6.061   3.451   3.013
 9938SOL    HW340072   5.923   3.408   2.969
 9938SOL    MW440073   6.009   3.399   2.963
 9939SOL     OW40074   7.456   2.918   3.310
 9939SOL    HW240075   7.371   2.931   3.269
 9939SOL    HW340076   7.436   2.882   3.397
 9939SOL    MW440077   7.443   2.914   3.315
 9940SOL     OW40078   6.438   3.457   3.064
 9940SOL    HW240079   6.462   3.446   2.973
 9940SOL    HW340080   6.361   3.514   3.062
 9940SOL    MW440081   6.430   3.462   3.053
 9941SOL     OW40082   6.080   2.840   1.919
 9941SOL    HW240083   6.003   2.853   1.975
 9941SOL    HW340084   6.044   2.804   1.838
 9941SOL    MW440085   6.066   2.836   1.916
 9942SOL     OW40086   6.733   2.813   2.162
 9942SOL    HW240087   6.643   2.834   2.137
 9942SOL    HW340088   6.760   2.886   2.218
 9942SOL    MW440089   6.725   2.825   2.165
 9943SOL     OW40090   6.233   3.162   2.854
 9943SOL    HW240091   6.226   3.141   2.948
 9943SOL    HW340092   6.151   3.130   2.817
 9943SOL    MW440093   6.221   3.156   2.861
 9944SOL     OW40094   7.097   2.172   3.256
 9944SOL    HW240095   7.044   2.174   3.336
 9944SOL    HW340096   7.082   2.085   3.219
 9944SOL    MW440097   7.089   2.162   3.261
 9945SOL     OW40098   7.433   2.096   3.129
 9945SOL    HW240099   7.414   2.163   3.064
 9945SOL    HW340100   7.490   2.034   3.084
 9945SOL    MW440101   7.437   2.097   3.115
 9946SOL     OW40102   5.679   3.254   3.517
 9946SOL    HW240103   5.723   3.187   3.463
 9946SOL    HW340104   5.594   3.216   3.537
 9946SOL    MW440105   5.674   3.240   3.513
 9947SOL     OW40106   6.362   1.929   2.569
 9947SOL    HW240107   6.291   1.990   2.551
 9947SOL    HW340108   6.413   1.926   2.488
 9947SOL    MW440109   6.358   1.935   2.556
 9948SOL     OW40110   6.120   3.169   2.318
 9948SOL    HW240111   6.113   3.201   2.408
 9948SOL    HW340112   6.030   3.153   2.290
 9948SOL    MW440113   6.108   3.171   2.325
 9949SOL     OW40114   6.715   3.562   3.227
 9949SOL    HW240115   6.635   3.547   3.177
 9949SOL    HW340116   6.722   3.657   3.234
 9949SOL    MW440117   6.706   3.573   3.221
 9950SOL     OW40118   6.829   3.527   2.717
 9950SOL    HW240119   6.876   3.600   2.676
 9950SOL    HW340120   6.750   3.566   2.753
 9950SOL    MW440121   6.824   3.542   2.716
 9951SOL     OW40122   7.237   3.622   2.992
 9951SOL    HW240123   7.280   3.592   3.072
 9951SOL    HW340124   7.156   3.570   2.989
 9951SOL    MW440125   7.232   3.611   3.002
 9952SOL     OW40126   6.322   2.586   3.699
 9952SOL    HW240127   6.392   2.528   3.671
 9952SOL    HW340128   6.265   2.531   3.754
 9952SOL    MW440129   6.324   2.573   3.703
 9953SOL     OW40130   7.109   2.798   3.332
 9953SOL    HW240131   7.114   2.851   3.412
 9953SOL    HW340132   7.071   2.715   3.360
 9953SOL    MW440133   7.105   2.793   3.347
 9954SOL     OW40134   6.749   1.933   3.578
 9954SOL    HW240135   6.744   1.840   3.559
 9954SOL    HW340136   6.832   1.944   3.624
 9954SOL    MW440137   6.757   1.922   3.582
 9955SOL     OW40138   6.123   2.453   2.032
 9955SOL    HW240139   6.089   2.509   2.102
 9955SOL    HW340140   6.194   2.403   2.072
 9955SOL    MW440141   6.129   2.454   2.046
 9956SOL     OW40142   7.219   3.204   2.854
 9956SOL    HW240143   7.254   3.186   2.767
 9956SOL    HW340144   7.124   3.205   2.841
 9956SOL    MW440145   7.211   3.201   2.841
 9957SOL     OW40146   6.648   2.852   3.223
 9957SOL    HW240147   6.691   2.887   3.301
 9957SOL    HW340148   6.631   2.929   3.169
 9957SOL    MW440149   6.651   2.867   3.226
 9958SOL     OW40150   7.179   2.339   2.096
 9958SOL    HW240151   7.171   2.410   2.033
 9958SOL    HW340152   7.197   2.383   2.179
 9958SOL    MW440153   7.180   2.353   2.098
 9959SOL     OW40154   6.039   1.994   2.525
 9959SOL    HW240155   6.089   2.037   2.456
 9959SOL    HW340156   5.954   2.038   2.525
 9959SOL    MW440157   6.036   2.007   2.516
 9960SOL     OW40158   5.798   3.056   3.385
 9960SOL    HW240159   5.826   3.009   3.463
 9960SOL    HW340160   5.719   3.011   3.356
 9960SOL    MW440161   5.791   3.045   3.391
 9961SOL     OW40162   6.306   2.383   3.352
 9961SOL    HW240163   6.278   2.471   3.376
 9961SOL    HW340164   6.275   2.327   3.423
 9961SOL    MW440165   6.298   2.386   3.364
 9962SOL     OW40166   5.961   2.779   2.565
 9962SOL    HW240167   6.019   2.835   2.513
 9962SOL    HW340168   6.005   2.694   2.567
 9962SOL    MW440169   5.974   2.776   2.558
 9963SOL     OW40170   7.101   2.131   2.402
 9963SOL    HW240171   7.023   2.081   2.427
 9963SOL    HW340172   7.072   2.222   2.402
 9963SOL    MW440173   7.087   2.135   2.405
 9964SOL     OW40174   6.687   2.093   2.561
 9964SOL    HW240175   6.707   2.168   2.505
 9964SOL    HW340176   6.667   2.132   2.646
 9964SOL    MW440177   6.688   2.109   2.565
 9965SOL     OW40178   6.583   3.343   1.893
 9965SOL    HW240179   6.610   3.421   1.845
 9965SOL    HW340180   6.490   3.358   1.912
 9965SOL    MW440181   6.574   3.356   1.889
 9966SOL     OW40182   7.447   2.866   3.580
 9966SOL    HW240183   7.360   2.846   3.616
 9966SOL    HW340184   7.501   2.792   3.605
 9966SOL    MW440185   7.442   2.855   3.588
 9967SOL     OW40186   5.668   3.379   2.737
 9967SOL    HW240187   5.700   3.383   2.828
 9967SOL    HW340188   5.573   3.387   2.745
 9967SOL    MW440189   5.660   3.382   2.750
 9968SOL     OW40190   5.623   2.505   2.284
 9968SOL    HW240191   5.563   2.477   2.354
 9968SOL    HW340192   5.697   2.445   2.290
 9968SOL    MW440193   5.625   2.494   2.293
 9969SOL     OW40194   7.191   3.717   3.718
 9969SOL    HW240195   7.236   3.641   3.683
 9969SOL    HW340196   7.229   3.730   3.805
 9969SOL    MW440197   7.201   3.710   3.724
 9970SOL     OW40198   6.791   3.236   2.444
 9970SOL    HW240199   6.814   3.187   2.522
 9970SOL    HW340200   6.872   3.278   2.416
 9970SOL    MW440201   6.804   3.236   2.451
 9971SOL     OW40202   6.049   2.244   3.173
 9971SOL    HW240203   6.082   2.325   3.213
 9971SOL    HW340204   6.022   2.270   3.085
 9971SOL    MW440205   6.048   2.258   3.167
 9972SOL     OW40206   6.003   2.211   2.909
 9972SOL    HW240207   6.033   2.125   2.880
 9972SOL    HW340208   5.908   2.204   2.912
 9972SOL    MW440209   5.995   2.200   2.907
 9973SOL     OW40210   6.832   2.420   3.600
 9973SOL    HW240211   6.884   2.355   3.553
 9973SOL    HW340212   6.790   2.471   3.530
 9973SOL    MW440213   6.833   2.417   3.583
 9974SOL     OW40214   6.931   2.215   3.461
 9974SOL    HW240215   6.838   2.199   3.448
 9974SOL    HW340216   6.957   2.153   3.529
 9974SOL    MW440217   6.921   2.205   3.468
 9975SOL     OW40218   6.146   1.989   2.800
 9975SOL    HW240219   6.156   1.898   2.826
 9975SOL    HW340220   6.102   1.985   2.715
 9975SOL    MW440221   6.142   1.977   2.792
 9976SOL     OW40222   6.240   3.604   3.346
 9976SOL    HW240223   6.157   3.589   3.391
 9976SOL    HW340224   6.299   3.537   3.381
 9976SOL    MW440225   6.238   3.594   3.356
 9977SOL     OW40226   7.297   2.311   2.971
 9977SOL    HW240227   7.230   2.344   3.031
 9977SOL    HW340228   7.340   2.389   2.937
 9977SOL    MW440229   7.295   2.326   2.975
 9978SOL     OW40230   7.475   3.031   2.941
 9978SOL    HW240231   7.468   2.971   2.866
 9978SOL    HW340232   7.401   3.091   2.930
 9978SOL    MW440233   7.465   3.031   2.930
 9979SOL     OW40234   6.857   2.893   2.859
 9979SOL    HW240235   6.871   2.865   2.950
 9979SOL    HW340236   6.943   2.924   2.831
 9979SOL    MW440237   6.870   2.894   2.868
 9980SOL     OW40238   6.940   2.388   3.138
 9980SOL    HW240239   6.961   2.389   3.045
 9980SOL    HW340240   6.985   2.310   3.171
 9980SOL    MW440241   6.947   2.378   3.130
 9981SOL     OW40242   7.433   2.519   3.680
 9981SOL    HW240243   7.470   2.464   3.749
 9981SOL    HW340244   7.458   2.476   3.598
 9981SOL    MW440245   7.440   2.507   3.679
 9982SOL     OW40246   6.980   2.817   3.731
 9982SOL    HW240247   7.046   2.765   3.685
 9982SOL    HW340248   7.000   2.804   3.824
 9982SOL    MW440249   6.991   2.808   3.738
 9983SOL     OW40250   6.931   1.903   2.080
 9983SOL    HW240251   7.005   1.947   2.123
 9983SOL    HW340252   6.855   1.957   2.102
 9983SOL    MW440253   6.931   1.915   2.088
 9984SOL     OW40254   6.991   2.678   2.358
 9984SOL    HW240255   6.906   2.648   2.328
 9984SOL    HW340256   6.983   2.685   2.453
 9984SOL    MW440257   6.979   2.676   2.367
 9985SOL     OW40258   6.067   3.141   3.089
 9985SOL    HW240259   6.079   3.168   3.180
 9985SOL    HW340260   6.048   3.222   3.042
 9985SOL    MW440261   6.066   3.156   3.094
 9986SOL     OW40262   6.351   2.121   2.912
 9986SOL    HW240263   6.324   2.123   3.003
 9986SOL    HW340264   6.281   2.073   2.867
 9986SOL    MW440265   6.339   2.117   2.919
 9987SOL     OW40266   6.205   3.613   3.074
 9987SOL    HW240267   6.257   3.690   3.051
 9987SOL    HW340268   6.214   3.605   3.169
 9987SOL    MW440269   6.214   3.620   3.085
 9988SOL     OW40270   7.107   3.198   3.306
 9988SOL    HW240271   7.092   3.127   3.369
 9988SOL    HW340272   7.153   3.156   3.234
 9988SOL    MW440273   7.113   3.182   3.306
 9989SOL     OW40274   6.181   2.929   3.423
 9989SOL    HW240275   6.218   2.934   3.335
 9989SOL    HW340276   6.220   3.002   3.470
 9989SOL    MW440277   6.191   2.939   3.418
 9990SOL     OW40278   6.361   2.972   3.235
 9990SOL    HW240279   6.420   2.918   3.288
 9990SOL    HW340280   6.376   2.944   3.145
 9990SOL    MW440281   6.371   2.961   3.231
 9991SOL     OW40282   6.364   2.344   2.084
 9991SOL    HW240283   6.437   2.393   2.047
 9991SOL    HW340284   6.380   2.253   2.058
 9991SOL    MW440285   6.376   2.339   2.077
 9992SOL     OW40286   7.172   3.461   3.407
 9992SOL    HW240287   7.214   3.446   3.492
 9992SOL    HW340288   7.163   3.374   3.369
 9992SOL    MW440289   7.176   3.449   3.414
 9993SOL     OW40290   6.832   1.940   2.998
 9993SOL    HW240291   6.887   1.949   2.920
 9993SOL    HW340292   6.887   1.974   3.069
 9993SOL    MW440293   6.846   1.945   2.997
 9994SOL     OW40294   5.839   2.853   2.182
 9994SOL    HW240295   5.776   2.869   2.111
 9994SOL    HW340296   5.786   2.816   2.253
 9994SOL    MW440297   5.824   2.850   2.182
 9995SOL     OW40298   6.195   3.207   2.041
 9995SOL    HW240299   6.210   3.183   2.133
 9995SOL    HW340300   6.103   3.185   2.025
 9995SOL    MW440301   6.185   3.200   2.051
 9996SOL     OW40302   6.734   3.438   2.193
 9996SOL    HW240303   6.742   3.356   2.144
 9996SOL    HW340304   6.653   3.477   2.160
 9996SOL    MW440305   6.724   3.433   2.183
 9997SOL     OW40306   5.993   3.596   2.762
 9997SOL    HW240307   5.997   3.507   2.797
 9997SOL    HW340308   6.019   3.587   2.671
 9997SOL    MW440309   5.996   3.584   2.754
 9998SOL     OW40310   6.610   3.074   3.005
 9998SOL    HW240311   6.542   3.008   3.021
 9998SOL    HW340312   6.628   3.068   2.912
 9998SOL    MW440313   6.603   3.065   2.996
 9999SOL     OW40314   5.699   3.349   3.256
 9999SOL    HW240315   5.689   3.307   3.342
 9999SOL    HW340316   5.620   3.402   3.246
 9999SOL    MW440317   5.688   3.350   3.267
10000SOL     OW40318   6.603   2.213   2.826
10000SOL    HW240319   6.533   2.165   2.871
10000SOL    HW340320   6.635   2.276   2.890
10000SOL    MW440321   6.598   2.215   2.840
10001SOL     OW40322   6.254   2.649   3.446
10001SOL    HW240323   6.247   2.744   3.434
10001SOL    HW340324   6.263   2.638   3.541
10001SOL    MW440325   6.255   2.661   3.456
10002SOL     OW40326   5.975   3.164   3.704
10002SOL    HW240327   6.047   3.166   3.641
10002SOL    HW340328   5.945   3.073   3.703
10002SOL    MW440329   5.980   3.153   3.696
10003SOL     OW40330   7.059   1.927   3.171
10003SOL    HW240331   7.130   1.873   3.135
10003SOL    HW340332   7.058   1.906   3.264
10003SOL    MW440333   7.068   1.918   3.179
10004SOL     OW40334   7.259   3.457   3.655
10004SOL    HW240335   7.232   3.454   3.746
10004SOL    HW340336   7.355   3.461   3.658
10004SOL    MW440337   7.269   3.457   3.667
10005SOL     OW40338   6.070   2.319   2.639
10005SOL    HW240339   6.141   2.267   2.602
10005SOL    HW340340   6.056   2.284   2.726
10005SOL    MW440341   6.078   2.308   2.646
10006SOL     OW40342   5.625   3.654   3.711
10006SOL    HW240343   5.675   3.632   3.633
10006SOL    HW340344   5.633   3.749   3.719
10006SOL    MW440345   5.633   3.663   3.702
10007SOL     OW40346   6.386   3.412   2.715
10007SOL    HW240347   6.314   3.349   2.728
10007SOL    HW340348   6.347   3.497   2.733
10007SOL    MW440349   6.370   3.415   2.718
10008SOL     OW40350   6.706   2.260   2.363
10008SOL    HW240351   6.728   2.197   2.295
10008SOL    HW340352   6.611   2.252   2.374
10008SOL    MW440353   6.696   2.251   2.355
10009SOL     OW40354   5.791   1.950   2.295
10009SOL    HW240355   5.862   1.971   2.234
10009SOL    HW340356   5.745   1.878   2.253
10009SOL    MW440357   5.795   1.944   2.281
10010SOL     OW40358   5.622   2.417   3.438
10010SOL    HW240359   5.686   2.483   3.413
10010SOL    HW340360   5.541   2.444   3.395
10010SOL    MW440361   5.620   2.429   3.430
10011SOL     OW40362   7.360   3.324   2.395
10011SOL    HW240363   7.330   3.257   2.456
10011SOL    HW340364   7.454   3.330   2.409
10011SOL    MW440365   7.368   3.316   2.405
10012SOL     OW40366   6.916   3.001   2.325
10012SOL    HW240367   6.888   3.087   2.358
10012SOL    HW340368   6.944   3.017   2.235
10012SOL    MW440369   6.916   3.015   2.317
10013SOL     OW40370   6.578   1.921   2.378
10013SOL    HW240371   6.615   1.980   2.443
10013SOL    HW340372   6.555   1.977   2.304
10013SOL    MW440373   6.579   1.936   2.377
10014SOL     OW40374   7.431   2.803   2.800
10014SOL    HW240375   7.422   2.835   2.711
10014SOL    HW340376   7.384   2.719   2.800
10014SOL    MW440377   7.424   2.796   2.790
10015SOL     OW40378   5.807   2.643   3.379
10015SOL    HW240379   5.828   2.712   3.317
10015SOL    HW340380   5.887   2.590   3.384
10015SOL    MW440381   5.820   2.644   3.373
10016SOL     OW40382   7.343   2.734   2.501
10016SOL    HW240383   7.437   2.723   2.489
10016SOL    HW340384   7.319   2.806   2.442
10016SOL    MW440385   7.353   2.742   2.492
10017SOL     OW40386   5.792   2.658   3.646
10017SOL    HW240387   5.718   2.602   3.672
10017SOL    HW340388   5.787   2.661   3.551
10017SOL    MW440389   5.781   2.651   3.636
10018SOL     OW40390   5.958   1.945   3.096
10018SOL    HW240391   6.001   2.029   3.116
10018SOL    HW340392   6.031   1.883   3.089
10018SOL    MW440393   5.973   1.948   3.097
10019SOL     OW40394   5.999   2.612   2.274
10019SOL    HW240395   5.999   2.707   2.259
10019SOL    HW340396   6.076   2.596   2.328
10019SOL    MW440397   6.009   2.623   2.279
10020SOL     OW40398   6.775   2.471   3.338
10020SOL    HW240399   6.811   2.444   3.254
10020SOL    HW340400   6.688   2.505   3.317
10020SOL    MW440401   6.769   2.472   3.325
10021SOL     OW40402   5.758   2.343   2.563
10021SOL    HW240403   5.820   2.350   2.636
10021SOL    HW340404   5.758   2.250   2.540
10021SOL    MW440405   5.766   2.332   2.570
10022SOL     OW40406   7.305   3.683   2.095
10022SOL    HW240407   7.372   3.716   2.035
10022SOL    HW340408   7.262   3.762   2.129
10022SOL    MW440409   7.307   3.698   2.091
10023SOL     OW40410   6.440   2.604   3.047
10023SOL    HW240411   6.398   2.522   3.023
10023SOL    HW340412   6.441   2.603   3.143
10023SOL    MW440413   6.433   2.593   3.056
10024SOL     OW40414   7.111   3.737   3.446
10024SOL    HW240415   7.114   3.643   3.429
10024SOL    HW340416   7.134   3.745   3.538
10024SOL    MW440417   7.114   3.725   3.456
10025SOL     OW40418   6.244   2.074   3.152
10025SOL    HW240419   6.175   2.137   3.173
10025SOL    HW340420   6.271   2.038   3.237
10025SOL    MW440421   6.238   2.077   3.165
10026SOL     OW40422   5.627   2.915   2.021
10026SOL    HW240423   5.596   2.980   2.084
10026SOL    HW340424   5.576   2.837   2.040
10026SOL    MW440425   5.617   2.912   2.031
10027SOL     OW40426   7.039   1.927   2.769
10027SOL    HW240427   7.127   1.936   2.806
10027SOL    HW340428   7.049   1.868   2.695
10027SOL    MW440429   7.053   1.921   2.763
10028SOL     OW40430   7.071   2.666   2.613
10028SOL    HW240431   7.151   2.681   2.562
10028SOL    HW340432   7.064   2.571   2.619
10028SOL    MW440433   7.080   2.655   2.608
10029SOL     OW40434   6.211   3.715   1.963
10029SOL    HW240435   6.116   3.715   1.955
10029SOL    HW340436   6.227   3.661   2.041
10029SOL    MW440437   6.201   3.709   1.972
10030SOL     OW40438   6.521   2.592   3.310
10030SOL    HW240439   6.590   2.659   3.307
10030SOL    HW340440   6.454   2.630   3.366
10030SOL    MW440441   6.522   2.605   3.317
10031SOL     OW40442   5.939   2.892   3.558
10031SOL    HW240443   5.893   2.808   3.560
10031SOL    HW340444   5.996   2.886   3.482
10031SOL    MW440445   5.941   2.880   3.550
10032SOL     OW40446   7.056   2.535   1.879
10032SOL    HW240447   6.984   2.511   1.821
10032SOL    HW340448   7.122   2.572   1.821
10032SOL    MW440449   7.055   2.537   1.864
10033SOL     OW40450   6.190   3.267   2.559
10033SOL    HW240451   6.255   3.200   2.580
10033SOL    HW340452   6.242   3.344   2.536
10033SOL    MW440453   6.205   3.269   2.558
10034SOL     OW40454   6.451   2.432   2.689
10034SOL    HW240455   6.391   2.450   2.761
10034SOL    HW340456   6.485   2.344   2.708
10034SOL    MW440457   6.447   2.422   2.702
10035SOL     OW40458   7.392   1.931   3.358
10035SOL    HW240459   7.313   1.977   3.386
10035SOL    HW340460   7.427   1.985   3.287
10035SOL    MW440461   7.386   1.944   3.352
10036SOL     OW40462   6.676   3.015   2.708
10036SOL    HW240463   6.768   2.996   2.726
10036SOL    HW340464   6.649   2.945   2.648
10036SOL    MW440465   6.684   3.003   2.702
10037SOL     OW40466   6.469   2.835   2.063
10037SOL    HW240467   6.455   2.747   2.028
10037SOL    HW340468   6.420   2.892   2.004
10037SOL    MW440469   6.461   2.830   2.051
10038SOL     OW40470   6.950   3.253   2.804
10038SOL    HW240471   6.923   3.337   2.769
10038SOL    HW340472   6.910   3.248   2.891
10038SOL    MW440473   6.943   3.262   2.810
10039SOL     OW40474   6.869   3.201   3.072
10039SOL    HW240475   6.880   3.168   3.161
10039SOL    HW340476   6.788   3.160   3.041
10039SOL    MW440477   6.859   3.193   3.078
10040SOL     OW40478   5.882   2.559   2.842
10040SOL    HW240479   5.832   2.558   2.923
10040SOL    HW340480   5.902   2.651   2.826
10040SOL    MW440481   5.878   2.571   2.850
10041SOL     OW40482   6.949   3.323   3.604
10041SOL    HW240483   6.949   3.417   3.620
10041SOL    HW340484   6.994   3.313   3.520
10041SOL    MW440485   6.955   3.333   3.595
10042SOL     OW40486   7.188   2.041   2.165
10042SOL    HW240487   7.181   2.045   2.260
10042SOL    HW340488   7.200   2.132   2.138
10042SOL    MW440489   7.189   2.054   2.173
10043SOL     OW40490   6.477   2.604   2.279
10043SOL    HW240491   6.457   2.590   2.186
10043SOL    HW340492   6.570   2.583   2.286
10043SOL    MW440493   6.487   2.599   2.268
10044SOL     OW40494   5.804   2.227   3.583
10044SOL    HW240495   5.761   2.286   3.520
10044SOL    HW340496   5.872   2.282   3.623
10044SOL    MW440497   5.808   2.242   3.580
10045SOL     OW40498   6.916   2.847   3.128
10045SOL    HW240499   6.979   2.844   3.201
10045SOL    HW340500   6.832   2.865   3.170
10045SOL    MW440501   6.912   2.849   3.143
10046SOL     OW40502   6.460   3.562   2.317
10046SOL    HW240503   6.518   3.633   2.344
10046SOL    HW340504   6.483   3.490   2.375
10046SOL    MW440505   6.471   3.562   2.328
10047SOL     OW40506   7.255   2.024   2.907
10047SOL    HW240507   7.300   1.942   2.926
10047SOL    HW340508   7.275   2.080   2.983
10047SOL    MW440509   7.265   2.020   2.919
10048SOL     OW40510   5.703   1.867   3.006
10048SOL    HW240511   5.694   1.868   2.911
10048SOL    HW340512   5.797   1.879   3.021
10048SOL    MW440513   5.715   1.870   2.997
10049SOL     OW40514   7.340   3.060   2.626
10049SOL    HW240515   7.319   3.006   2.549
10049SOL    HW340516   7.436   3.058   2.630
10049SOL    MW440517   7.349   3.053   2.615
10050SOL     OW40518   6.032   3.205   3.369
10050SOL    HW240519   5.953   3.155   3.392
10050SOL    HW340520   6.102   3.164   3.419
10050SOL    MW440521   6.030   3.193   3.379
10051SOL     OW40522   5.916   1.994   2.052
10051SOL    HW240523   5.845   2.049   2.020
10051SOL    HW340524   5.958   1.960   1.973
10051SOL    MW440525   5.912   1.996   2.038
10052SOL     OW40526   7.040   2.491   2.888
10052SOL    HW240527   6.963   2.537   2.854
10052SOL    HW340528   7.097   2.560   2.922
10052SOL    MW440529   7.037   2.506   2.888
10053SOL     OW40530   5.672   2.093   1.901
10053SOL    HW240531   5.639   2.172   1.945
10053SOL    HW340532   5.727   2.126   1.830
10053SOL    MW440533   5.675   2.107   1.898
10054SOL     OW40534   5.706   3.350   2.090
10054SOL    HW240535   5.723   3.434   2.132
10054SOL    HW340536   5.741   3.359   2.002
10054SOL    MW440537   5.711   3.363   2.084
10055SOL     OW40538   6.978   3.439   2.307
10055SOL    HW240539   7.041   3.429   2.236
10055SOL    HW340540   6.895   3.459   2.262
10055SOL    MW440541   6.975   3.440   2.292
10056SOL     OW40542   7.341   2.707   3.993
10056SOL    HW240543   7.382   2.649   4.058
10056SOL    HW340544   7.248   2.699   4.010
10056SOL    MW440545   7.335   2.699   4.003
10057SOL     OW40546   7.207   2.639   4.988
10057SOL    HW240547   7.162   2.706   5.039
10057SOL    HW340548   7.295   2.675   4.974
10057SOL    MW440549   7.213   2.652   4.992
10058SOL     OW40550   6.135   2.890   4.222
10058SOL    HW240551   6.225   2.865   4.206
10058SOL    HW340552   6.131   2.983   4.199
10058SOL    MW440553   6.147   2.899   4.217
10059SOL     OW40554   7.251   3.593   4.364
10059SOL    HW240555   7.263   3.539   4.442
10059SOL    HW340556   7.288   3.541   4.293
10059SOL    MW440557   7.257   3.578   4.365
10060SOL     OW40558   6.630   3.478   5.365
10060SOL    HW240559   6.671   3.514   5.286
10060SOL    HW340560   6.665   3.389   5.372
10060SOL    MW440561   6.641   3.471   5.356
10061SOL     OW40562   7.187   3.033   4.969
10061SOL    HW240563   7.108   2.998   4.927
10061SOL    HW340564   7.214   3.105   4.913
10061SOL    MW440565   7.180   3.038   4.956
10062SOL     OW40566   6.419   2.346   4.235
10062SOL    HW240567   6.394   2.434   4.263
10062SOL    HW340568   6.416   2.349   4.139
10062SOL    MW440569   6.415   2.358   4.227
10063SOL     OW40570   5.861   2.374   4.163
10063SOL    HW240571   5.893   2.462   4.145
10063SOL    HW340572   5.849   2.372   4.258
10063SOL    MW440573   5.864   2.386   4.175
10064SOL     OW40574   5.939   2.787   5.064
10064SOL    HW240575   6.002   2.734   5.015
10064SOL    HW340576   5.920   2.861   5.007
10064SOL    MW440577   5.945   2.789   5.051
10065SOL     OW40578   6.260   2.129   4.250
10065SOL    HW240579   6.318   2.205   4.252
10065SOL    HW340580   6.195   2.150   4.183
10065SOL    MW440581   6.259   2.141   4.241
10066SOL     OW40582   6.347   3.056   4.425
10066SOL    HW240583   6.427   3.059   4.477
10066SOL    HW340584   6.375   3.023   4.339
10066SOL    MW440585   6.361   3.052   4.420
10067SOL     OW40586   6.372   3.397   5.328
10067SOL    HW240587   6.456   3.423   5.367
10067SOL    HW340588   6.396   3.341   5.254
10067SOL    MW440589   6.386   3.393   5.323
10068SOL     OW40590   6.124   2.560   4.416
10068SOL    HW240591   6.109   2.480   4.467
10068SOL    HW340592   6.206   2.595   4.450
10068SOL    MW440593   6.132   2.552   4.428
10069SOL     OW40594   6.461   3.246   5.101
10069SOL    HW240595   6.425   3.312   5.041
10069SOL    HW340596   6.389   3.184   5.114
10069SOL    MW440597   6.447   3.246   5.095
10070SOL     OW40598   6.266   2.386   4.793
10070SOL    HW240599   6.172   2.382   4.811
10070SOL    HW340600   6.296   2.295   4.802
10070SOL    MW440601   6.257   2.374   4.796
10071SOL     OW40602   6.012   2.800   4.697
10071SOL    HW240603   5.967   2.807   4.613
10071SOL    HW340604   5.992   2.883   4.741
10071SOL    MW440605   6.004   2.812   4.691
10072SOL     OW40606   5.709   3.646   4.572
10072SOL    HW240607   5.798   3.638   4.607
10072SOL    HW340608   5.673   3.558   4.577
10072SOL    MW440609   5.716   3.633   4.577
10073SOL     OW40610   6.974   3.038   3.941
10073SOL    HW240611   6.892   3.074   3.907
10073SOL    HW340612   7.042   3.081   3.890
10073SOL    MW440613   6.972   3.048   3.929
10074SOL     OW40614   5.973   3.173   4.607
10074SOL    HW240615   5.949   3.226   4.683
10074SOL    HW340616   6.029   3.231   4.555
10074SOL    MW440617   5.977   3.188   4.610
10075SOL     OW40618   6.535   2.817   4.417
10075SOL    HW240619   6.449   2.804   4.457
10075SOL    HW340620   6.588   2.744   4.449
10075SOL    MW440621   6.531   2.806   4.426
10076SOL     OW40622   5.943   3.469   5.202
10076SOL    HW240623   5.851   3.445   5.187
10076SOL    HW340624   5.987   3.386   5.219
10076SOL    MW440625   5.937   3.454   5.201
10077SOL     OW40626   6.526   3.179   4.134
10077SOL    HW240627   6.503   3.241   4.202
10077SOL    HW340628   6.483   3.097   4.160
10077SOL    MW440629   6.518   3.175   4.145
10078SOL     OW40630   7.399   2.180   4.590
10078SOL    HW240631   7.336   2.160   4.659
10078SOL    HW340632   7.389   2.109   4.527
10078SOL    MW440633   7.389   2.167   4.591
10079SOL     OW40634   6.023   2.152   4.102
10079SOL    HW240635   5.997   2.114   4.018
10079SOL    HW340636   5.960   2.222   4.118
10079SOL    MW440637   6.012   2.155   4.093
10080SOL     OW40638   5.858   3.113   4.139
10080SOL    HW240639   5.806   3.181   4.095
10080SOL    HW340640   5.855   3.039   4.079
10080SOL    MW440641   5.850   3.112   4.126
10081SOL     OW40642   6.520   3.576   3.917
10081SOL    HW240643   6.475   3.592   4.000
10081SOL    HW340644   6.451   3.541   3.859
10081SOL    MW440645   6.506   3.573   3.919
10082SOL     OW40646   7.455   2.349   3.892
10082SOL    HW240647   7.364   2.351   3.920
10082SOL    HW340648   7.500   2.411   3.950
10082SOL    MW440649   7.448   2.357   3.902
10083SOL     OW40650   7.200   2.952   4.242
10083SOL    HW240651   7.110   2.952   4.277
10083SOL    HW340652   7.193   2.998   4.159
10083SOL    MW440653   7.187   2.958   4.236
10084SOL     OW40654   7.000   2.587   5.314
10084SOL    HW240655   7.069   2.525   5.291
10084SOL    HW340656   6.925   2.561   5.261
10084SOL    MW440657   7.000   2.574   5.305
10085SOL     OW40658   5.741   3.467   4.866
10085SOL    HW240659   5.724   3.413   4.943
10085SOL    HW340660   5.729   3.557   4.896
10085SOL    MW440661   5.738   3.471   4.880
10086SOL     OW40662   6.736   2.974   5.306
10086SOL    HW240663   6.721   3.067   5.291
10086SOL    HW340664   6.831   2.964   5.306
10086SOL    MW440665   6.745   2.984   5.303
10087SOL     OW40666   6.532   2.398   5.507
10087SOL    HW240667   6.622   2.399   5.474
10087SOL    HW340668   6.491   2.323   5.465
10087SOL    MW440669   6.538   2.388   5.498
10088SOL     OW40670   7.107   2.930   4.634
10088SOL    HW240671   7.110   2.864   4.565
10088SOL    HW340672   7.192   2.973   4.630
10088SOL    MW440673   7.119   2.926   4.625
10089SOL     OW40674   6.727   2.533   4.203
10089SOL    HW240675   6.753   2.557   4.114
10089SOL    HW340676   6.709   2.440   4.199
10089SOL    MW440677   6.729   2.525   4.190
10090SOL     OW40678   7.392   3.153   4.054
10090SOL    HW240679   7.348   3.194   4.129
10090SOL    HW340680   7.449   3.221   4.019
10090SOL    MW440681   7.394   3.167   4.059
10091SOL     OW40682   6.312   2.202   5.457
10091SOL    HW240683   6.322   2.128   5.397
10091SOL    HW340684   6.348   2.171   5.540
10091SOL    MW440685   6.318   2.188   5.459
10092SOL     OW40686   6.048   3.569   4.372
10092SOL    HW240687   6.080   3.657   4.350
10092SOL    HW340688   6.001   3.541   4.294
10092SOL    MW440689   6.047   3.577   4.359
10093SOL     OW40690   7.432   1.931   4.421
10093SOL    HW240691   7.486   1.882   4.483
10093SOL    HW340692   7.375   1.865   4.382
10093SOL    MW440693   7.432   1.915   4.423
10094SOL     OW40694   5.764   3.629   3.949
10094SOL    HW240695   5.793   3.719   3.941
10094SOL    HW340696   5.714   3.612   3.870
10094SOL    MW440697   5.762   3.637   3.938
10095SOL     OW40698   6.551   1.884   4.834
10095SOL    HW240699   6.510   1.962   4.796
10095SOL    HW340700   6.645   1.902   4.829
10095SOL    MW440701   6.557   1.896   4.829
10096SOL     OW40702   7.168   3.437   3.920
10096SOL    HW240703   7.216   3.506   3.966
10096SOL    HW340704   7.089   3.481   3.889
10096SOL    MW440705   7.163   3.451   3.923
10097SOL     OW40706   6.566   2.562   3.864
10097SOL    HW240707   6.568   2.509   3.785
10097SOL    HW340708   6.654   2.599   3.870
10097SOL    MW440709   6.578   2.561   3.853
10098SOL     OW40710   7.180   2.488   4.200
10098SOL    HW240711   7.219   2.488   4.287
10098SOL    HW340712   7.121   2.564   4.200
10098SOL    MW440713   7.177   2.499   4.211
10099SOL     OW40714   6.497   2.855   5.329
10099SOL    HW240715   6.474   2.835   5.419
10099SOL    HW340716   6.582   2.899   5.334
10099SOL    MW440717   6.504   2.858   5.341
10100SOL     OW40718   6.577   1.992   5.089
10100SOL    HW240719   6.583   1.954   5.002
10100SOL    HW340720   6.566   2.086   5.074
10100SOL    MW440721   6.578   2.000   5.077
10101SOL     OW40722   6.666   2.481   4.923
10101SOL    HW240723   6.741   2.510   4.870
10101SOL    HW340724   6.598   2.546   4.907
10101SOL    MW440725   6.667   2.493   4.913
10102SOL     OW40726   7.216   2.449   5.200
10102SOL    HW240727   7.197   2.358   5.179
10102SOL    HW340728   7.194   2.498   5.121
10102SOL    MW440729   7.211   2.442   5.187
10103SOL     OW40730   7.358   3.543   5.104
10103SOL    HW240731   7.286   3.505   5.155
10103SOL    HW340732   7.375   3.628   5.145
10103SOL    MW440733   7.352   3.548   5.116
10104SOL     OW40734   6.663   2.187   5.306
10104SOL    HW240735   6.629   2.226   5.225
10104SOL    HW340736   6.641   2.095   5.299
10104SOL    MW440737   6.656   2.180   5.296
10105SOL     OW40738   7.072   3.001   5.382
10105SOL    HW240739   7.154   3.042   5.412
10105SOL    HW340740   7.035   2.963   5.462
10105SOL    MW440741   7.078   3.002   5.397
10106SOL     OW40742   7.367   2.374   4.366
10106SOL    HW240743   7.456   2.343   4.383
10106SOL    HW340744   7.310   2.314   4.414
10106SOL    MW440745   7.370   2.362   4.375
10107SOL     OW40746   5.793   2.088   4.395
10107SOL    HW240747   5.784   2.028   4.321
10107SOL    HW340748   5.726   2.059   4.458
10107SOL    MW440749   5.783   2.075   4.393
10108SOL     OW40750   6.736   3.181   3.956
10108SOL    HW240751   6.686   3.183   4.038
10108SOL    HW340752   6.670   3.199   3.888
10108SOL    MW440753   6.722   3.183   3.958
10109SOL     OW40754   5.740   2.261   4.758
10109SOL    HW240755   5.712   2.352   4.767
10109SOL    HW340756   5.677   2.222   4.697
10109SOL    MW440757   5.727   2.267   4.752
10110SOL     OW40758   6.199   3.599   4.064
10110SOL    HW240759   6.120   3.557   4.097
10110SOL    HW340760   6.265   3.582   4.131
10110SOL    MW440761   6.198   3.591   4.077
10111SOL     OW40762   7.327   3.119   5.461
10111SOL    HW240763   7.377   3.045   5.493
10111SOL    HW340764   7.273   3.146   5.536
10111SOL    MW440765   7.327   3.113   5.474
10112SOL     OW40766   6.335   3.014   3.771
10112SOL    HW240767   6.257   2.960   3.758
10112SOL    HW340768   6.306   3.087   3.824
10112SOL    MW440769   6.321   3.016   3.776
10113SOL     OW40770   7.461   2.754   4.963
10113SOL    HW240771   7.477   2.792   4.876
10113SOL    HW340772   7.495   2.820   5.024
10113SOL    MW440773   7.468   2.767   4.959
10114SOL     OW40774   7.253   3.463   4.632
10114SOL    HW240775   7.282   3.530   4.693
10114SOL    HW340776   7.234   3.387   4.687
10114SOL    MW440777   7.255   3.463   4.647
10115SOL     OW40778   6.916   3.530   3.839
10115SOL    HW240779   6.842   3.493   3.889
10115SOL    HW340780   6.924   3.620   3.872
10115SOL    MW440781   6.907   3.537   3.851
10116SOL     OW40782   5.724   2.536   4.928
10116SOL    HW240783   5.786   2.566   4.994
10116SOL    HW340784   5.658   2.605   4.922
10116SOL    MW440785   5.723   2.549   4.935
10117SOL     OW40786   7.140   3.204   3.781
10117SOL    HW240787   7.087   3.253   3.717
10117SOL    HW340788   7.171   3.270   3.842
10117SOL    MW440789   7.138   3.218   3.779
10118SOL     OW40790   6.365   2.093   3.836
10118SOL    HW240791   6.313   2.013   3.824
10118SOL    HW340792   6.452   2.070   3.804
10118SOL    MW440793   6.368   2.079   3.830
10119SOL     OW40794   5.819   3.645   5.380
10119SOL    HW240795   5.793   3.713   5.318
10119SOL    HW340796   5.867   3.582   5.328
10119SOL    MW440797   5.821   3.645   5.366
10120SOL     OW40798   5.871   2.964   4.887
10120SOL    HW240799   5.924   3.039   4.912
10120SOL    HW340800   5.790   3.002   4.853
10120SOL    MW440801   5.867   2.979   4.887
10121SOL     OW40802   6.411   2.868   4.875
10121SOL    HW240803   6.439   2.777   4.887
10121SOL    HW340804   6.340   2.862   4.811
10121SOL    MW440805   6.404   2.856   4.870
10122SOL     OW40806   5.726   2.733   4.293
10122SOL    HW240807   5.817   2.748   4.320
10122SOL    HW340808   5.729   2.654   4.239
10122SOL    MW440809   5.738   2.725   4.291
10123SOL     OW40810   5.962   2.441   5.547
10123SOL    HW240811   5.909   2.521   5.554
10123SOL    HW340812   6.032   2.453   5.612
10123SOL    MW440813   5.964   2.454   5.555
10124SOL     OW40814   6.348   1.991   5.254
10124SOL    HW240815   6.325   1.899   5.256
10124SOL    HW340816   6.434   1.993   5.211
10124SOL    MW440817   6.355   1.981   5.250
10125SOL     OW40818   6.032   2.515   5.293
10125SOL    HW240819   6.112   2.565   5.279
10125SOL    HW340820   6.023   2.509   5.388
10125SOL    MW440821   6.041   2.521   5.303
10126SOL     OW40822   6.353   3.665   4.667
10126SOL    HW240823   6.442   3.680   4.697
10126SOL    HW340824   6.348   3.712   4.583
10126SOL    MW440825   6.363   3.673   4.660
10127SOL     OW40826   7.009   2.040   5.564
10127SOL    HW240827   7.065   1.967   5.590
10127SOL    HW340828   6.979   2.078   5.646
10127SOL    MW440829   7.013   2.035   5.577
10128SOL     OW40830   5.734   3.345   4.332
10128SOL    HW240831   5.706   3.384   4.414
10128SOL    HW340832   5.754   3.254   4.354
10128SOL    MW440833   5.732   3.337   4.345
10129SOL     OW40834   6.567   3.388   4.367
10129SOL    HW240835   6.650   3.342   4.351
10129SOL    HW340836   6.557   3.387   4.463
10129SOL    MW440837   6.577   3.381   4.377
10130SOL     OW40838   7.399   2.533   4.681
10130SOL    HW240839   7.488   2.563   4.663
10130SOL    HW340840   7.379   2.473   4.610
10130SOL    MW440841   7.408   2.530   4.670
10131SOL     OW40842   7.250   2.712   5.561
10131SOL    HW240843   7.305   2.636   5.542
10131SOL    HW340844   7.252   2.720   5.656
10131SOL    MW440845   7.258   2.703   5.569
10132SOL     OW40846   6.300   3.445   3.772
10132SOL    HW240847   6.240   3.514   3.742
10132SOL    HW340848   6.245   3.387   3.825
10132SOL    MW440849   6.284   3.447   3.774
10133SOL     OW40850   6.738   2.090   3.995
10133SOL    HW240851   6.671   2.066   3.932
10133SOL    HW340852   6.803   2.139   3.944
10133SOL    MW440853   6.738   2.092   3.980
10134SOL     OW40854   6.545   2.274   5.080
10134SOL    HW240855   6.464   2.315   5.108
10134SOL    HW340856   6.592   2.342   5.032
10134SOL    MW440857   6.540   2.289   5.078
10135SOL     OW40858   6.805   2.612   4.703
10135SOL    HW240859   6.818   2.706   4.713
10135SOL    HW340860   6.766   2.602   4.617
10135SOL    MW440861   6.801   2.623   4.693
10136SOL     OW40862   6.257   2.807   4.507
10136SOL    HW240863   6.168   2.798   4.540
10136SOL    HW340864   6.261   2.897   4.475
10136SOL    MW440865   6.246   2.818   4.507
10137SOL     OW40866   7.056   2.390   4.502
10137SOL    HW240867   7.001   2.311   4.501
10137SOL    HW340868   7.038   2.431   4.586
10137SOL    MW440869   7.046   2.385   4.511
10138SOL     OW40870   6.027   2.077   5.319
10138SOL    HW240871   5.948   2.095   5.371
10138SOL    HW340872   6.022   2.139   5.246
10138SOL    MW440873   6.017   2.087   5.316
10139SOL     OW40874   6.675   2.594   4.459
10139SOL    HW240875   6.612   2.526   4.483
10139SOL    HW340876   6.695   2.575   4.367
10139SOL    MW440877   6.669   2.581   4.451
10140SOL     OW40878   5.931   3.489   4.161
10140SOL    HW240879   5.892   3.536   4.087
10140SOL    HW340880   5.865   3.424   4.186
10140SOL    MW440881   5.918   3.487   4.155
10141SOL     OW40882   6.423   2.898   4.185
10141SOL    HW240883   6.425   2.872   4.092
10141SOL    HW340884   6.481   2.835   4.228
10141SOL    MW440885   6.431   2.887   4.179
10142SOL     OW40886   6.976   3.458   4.957
10142SOL    HW240887   6.901   3.504   4.995
10142SOL    HW340888   6.958   3.365   4.974
10142SOL    MW440889   6.965   3.452   4.965
10143SOL     OW40890   6.980   3.666   4.387
10143SOL    HW240891   6.923   3.619   4.326
10143SOL    HW340892   7.066   3.627   4.374
10143SOL    MW440893   6.983   3.657   4.377
10144SOL     OW40894   6.933   2.142   4.518
10144SOL    HW240895   6.961   2.074   4.579
10144SOL    HW340896   6.847   2.113   4.488
10144SOL    MW440897   6.926   2.129   4.522
10145SOL     OW40898   5.738   3.076   4.452
10145SOL    HW240899   5.802   3.108   4.515
10145SOL    HW340900   5.787   3.012   4.400
10145SOL    MW440901   5.753   3.072   4.453
10146SOL     OW40902   6.238   3.152   5.434
10146SOL    HW240903   6.286   3.235   5.421
10146SOL    HW340904   6.295   3.100   5.490
10146SOL    MW440905   6.252   3.156   5.440
10147SOL     OW40906   5.814   3.394   5.574
10147SOL    HW240907   5.870   3.318   5.589
10147SOL    HW340908   5.763   3.372   5.496
10147SOL    MW440909   5.814   3.381   5.565
10148SOL     OW40910   6.913   2.246   3.853
10148SOL    HW240911   6.886   2.312   3.789
10148SOL    HW340912   6.983   2.289   3.903
10148SOL    MW440913   6.918   2.259   3.850
10149SOL     OW40914   6.581   1.951   3.790
10149SOL    HW240915   6.637   1.943   3.712
10149SOL    HW340916   6.558   1.861   3.812
10149SOL    MW440917   6.586   1.938   3.783
10150SOL     OW40918   7.086   2.802   3.995
10150SOL    HW240919   7.053   2.891   3.985
10150SOL    HW340920   7.051   2.773   4.080
10150SOL    MW440921   7.076   2.811   4.006
10151SOL     OW40922   6.699   3.231   5.183
10151SOL    HW240923   6.610   3.237   5.151
10151SOL    HW340924   6.743   3.310   5.151
10151SOL    MW440925   6.694   3.241   5.175
10152SOL     OW40926   5.992   1.899   5.525
10152SOL    HW240927   5.920   1.864   5.473
10152SOL    HW340928   6.050   1.940   5.460
10152SOL    MW440929   5.990   1.900   5.510
10153SOL     OW40930   6.016   3.389   4.824
10153SOL    HW240931   6.061   3.451   4.881
10153SOL    HW340932   5.923   3.408   4.837
10153SOL    MW440933   6.009   3.399   4.831
10154SOL     OW40934   7.456   2.918   5.178
10154SOL    HW240935   7.371   2.931   5.137
10154SOL    HW340936   7.436   2.882   5.265
10154SOL    MW440937   7.443   2.914   5.183
10155SOL     OW40938   6.438   3.457   4.932
10155SOL    HW240939   6.462   3.446   4.841
10155SOL    HW340940   6.361   3.514   4.930
10155SOL    MW440941   6.430   3.462   4.921
10156SOL     OW40942   6.080   2.840   3.787
10156SOL    HW240943   6.003   2.853   3.843
10156SOL    HW340944   6.044   2.804   3.706
10156SOL    MW440945   6.066   2.836   3.784
10157SOL     OW40946   6.733   2.813   4.030
10157SOL    HW240947   6.643   2.834   4.005
10157SOL    HW340948   6.760   2.886   4.086
10157SOL    MW440949   6.725   2.825   4.033
10158SOL     OW40950   6.233   3.162   4.722
10158SOL    HW240951   6.226   3.141   4.816
10158SOL    HW340952   6.151   3.130   4.685
10158SOL    MW440953   6.221   3.156   4.729
10159SOL     OW40954   7.097   2.172   5.124
10159SOL    HW240955   7.044   2.174   5.204
10159SOL    HW340956   7.082   2.085   5.087
10159SOL    MW440957   7.089   2.162   5.129
10160SOL     OW40958   7.433   2.096   4.997
10160SOL    HW240959   7.414   2.163   4.932
10160SOL    HW340960   7.490   2.034   4.952
10160SOL    MW440961   7.437   2.097   4.983
10161SOL     OW40962   5.679   3.254   5.385
10161SOL    HW240963   5.723   3.187   5.331
10161SOL    HW340964   5.594   3.216   5.405
10161SOL    MW440965   5.674   3.240   5.381
10162SOL     OW40966   6.362   1.929   4.437
10162SOL    HW240967   6.291   1.990   4.419
10162SOL    HW340968   6.413   1.926   4.356
10162SOL    MW440969   6.358   1.935   4.424
10163SOL     OW40970   6.120   3.169   4.186
10163SOL    HW240971   6.113   3.201   4.276
10163SOL    HW340972   6.030   3.153   4.158
10163SOL    MW440973   6.108   3.171   4.193
10164SOL     OW40974   6.715   3.562   5.095
10164SOL    HW240975   6.635   3.547   5.045
10164SOL    HW340976   6.722   3.657   5.102
10164SOL    MW440977   6.706   3.573   5.089
10165SOL     OW40978   6.829   3.527   4.585
10165SOL    HW240979   6.876   3.600   4.544
10165SOL    HW340980   6.750   3.566   4.621
10165SOL    MW440981   6.824   3.542   4.584
10166SOL     OW40982   7.237   3.622   4.860
10166SOL    HW240983   7.280   3.592   4.940
10166SOL    HW340984   7.156   3.570   4.857
10166SOL    MW440985   7.232   3.611   4.870
10167SOL     OW40986   6.322   2.586   5.567
10167SOL    HW240987   6.392   2.528   5.539
10167SOL    HW340988   6.265   2.531   5.622
10167SOL    MW440989   6.324   2.573   5.571
10168SOL     OW40990   7.109   2.798   5.200
10168SOL    HW240991   7.114   2.851   5.280
10168SOL    HW340992   7.071   2.715   5.228
10168SOL    MW440993   7.105   2.793   5.215
10169SOL     OW40994   6.749   1.933   5.446
10169SOL    HW240995   6.744   1.840   5.427
10169SOL    HW340996   6.832   1.944   5.492
10169SOL    MW440997   6.757   1.922   5.450
10170SOL     OW40998   6.123   2.453   3.900
10170SOL    HW240999   6.089   2.509   3.970
10170SOL    HW341000   6.194   2.403   3.940
10170SOL    MW441001   6.129   2.454   3.914
10171SOL     OW41002   7.219   3.204   4.722
10171SOL    HW241003   7.254   3.186   4.635
10171SOL    HW341004   7.124   3.205   4.709
10171SOL    MW441005   7.211   3.201   4.709
10172SOL     OW41006   6.648   2.852   5.091
10172SOL    HW241007   6.691   2.887   5.169
10172SOL    HW341008   6.631   2.929   5.037
10172SOL    MW441009   6.651   2.867   5.094
10173SOL     OW41010   7.179   2.339   3.964
10173SOL    HW241011   7.171   2.410   3.901
10173SOL    HW341012   7.197   2.383   4.047
10173SOL    MW441013   7.180   2.353   3.966
10174SOL     OW41014   6.039   1.994   4.393
10174SOL    HW241015   6.089   2.037   4.324
10174SOL    HW341016   5.954   2.038   4.393
10174SOL    MW441017   6.036   2.007   4.384
10175SOL     OW41018   5.798   3.056   5.253
10175SOL    HW241019   5.826   3.009   5.331
10175SOL    HW341020   5.719   3.011   5.224
10175SOL    MW441021   5.791   3.045   5.259
10176SOL     OW41022   6.306   2.383   5.220
10176SOL    HW241023   6.278   2.471   5.244
10176SOL    HW341024   6.275   2.327   5.291
10176SOL    MW441025   6.298   2.386   5.232
10177SOL     OW41026   6.848   2.601   3.939
10177SOL    HW241027   6.895   2.619   3.858
10177SOL    HW341028   6.814   2.685   3.967
10177SOL    MW441029   6.850   2.615   3.932
10178SOL     OW41030   5.961   2.779   4.433
10178SOL    HW241031   6.019   2.835   4.381
10178SOL    HW341032   6.005   2.694   4.435
10178SOL    MW441033   5.974   2.776   4.426
10179SOL     OW41034   7.101   2.131   4.270
10179SOL    HW241035   7.023   2.081   4.295
10179SOL    HW341036   7.072   2.222   4.270
10179SOL    MW441037   7.087   2.135   4.273
10180SOL     OW41038   6.687   2.093   4.429
10180SOL    HW241039   6.707   2.168   4.373
10180SOL    HW341040   6.667   2.132   4.514
10180SOL    MW441041   6.688   2.109   4.433
10181SOL     OW41042   6.583   3.343   3.761
10181SOL    HW241043   6.610   3.421   3.713
10181SOL    HW341044   6.490   3.358   3.780
10181SOL    MW441045   6.574   3.356   3.757
10182SOL     OW41046   7.447   2.866   5.448
10182SOL    HW241047   7.360   2.846   5.484
10182SOL    HW341048   7.501   2.792   5.473
10182SOL    MW441049   7.442   2.855   5.456
10183SOL     OW41050   5.668   3.379   4.605
10183SOL    HW241051   5.700   3.383   4.696
10183SOL    HW341052   5.573   3.387   4.613
10183SOL    MW441053   5.660   3.382   4.618
10184SOL     OW41054   5.623   2.505   4.152
10184SOL    HW241055   5.563   2.477   4.222
10184SOL    HW341056   5.697   2.445   4.158
10184SOL    MW441057   5.625   2.494   4.161
10185SOL     OW41058   7.191   3.717   5.586
10185SOL    HW241059   7.236   3.641   5.551
10185SOL    HW341060   7.229   3.730   5.673
10185SOL    MW441061   7.201   3.710   5.592
10186SOL     OW41062   6.791   3.236   4.312
10186SOL    HW241063   6.814   3.187   4.390
10186SOL    HW341064   6.872   3.278   4.284
10186SOL    MW441065   6.804   3.236   4.319
10187SOL     OW41066   6.049   2.244   5.041
10187SOL    HW241067   6.082   2.325   5.081
10187SOL    HW341068   6.022   2.270   4.953
10187SOL    MW441069   6.048   2.258   5.035
10188SOL     OW41070   6.003   2.211   4.777
10188SOL    HW241071   6.033   2.125   4.748
10188SOL    HW341072   5.908   2.204   4.780
10188SOL    MW441073   5.995   2.200   4.775
10189SOL     OW41074   6.931   2.215   5.329
10189SOL    HW241075   6.838   2.199   5.316
10189SOL    HW341076   6.957   2.153   5.397
10189SOL    MW441077   6.921   2.205   5.336
10190SOL     OW41078   6.146   1.989   4.668
10190SOL    HW241079   6.156   1.898   4.694
10190SOL    HW341080   6.102   1.985   4.583
10190SOL    MW441081   6.142   1.977   4.660
10191SOL     OW41082   6.240   3.604   5.214
10191SOL    HW241083   6.157   3.589   5.259
10191SOL    HW341084   6.299   3.537   5.249
10191SOL    MW441085   6.238   3.594   5.224
10192SOL     OW41086   7.297   2.311   4.839
10192SOL    HW241087   7.230   2.344   4.899
10192SOL    HW341088   7.340   2.389   4.805
10192SOL    MW441089   7.295   2.326   4.843
10193SOL     OW41090   7.475   3.031   4.809
10193SOL    HW241091   7.468   2.971   4.734
10193SOL    HW341092   7.401   3.091   4.798
10193SOL    MW441093   7.465   3.031   4.798
10194SOL     OW41094   6.857   2.893   4.727
10194SOL    HW241095   6.871   2.865   4.818
10194SOL    HW341096   6.943   2.924   4.699
10194SOL    MW441097   6.870   2.894   4.736
10195SOL     OW41098   6.940   2.388   5.006
10195SOL    HW241099   6.961   2.389   4.913
10195SOL    HW341100   6.985   2.310   5.039
10195SOL    MW441101   6.947   2.378   4.998
10196SOL     OW41102   7.433   2.519   5.548
10196SOL    HW241103   7.470   2.464   5.617
10196SOL    HW341104   7.458   2.476   5.466
10196SOL    MW441105   7.440   2.507   5.547
10197SOL     OW41106   6.980   2.817   5.600
10197SOL    HW241107   7.046   2.765   5.554
10197SOL    HW341108   7.000   2.804   5.693
10197SOL    MW441109   6.991   2.808   5.607
10198SOL     OW41110   6.931   1.903   3.948
10198SOL    HW241111   7.005   1.947   3.991
10198SOL    HW341112   6.855   1.957   3.970
10198SOL    MW441113   6.931   1.915   3.956
10199SOL     OW41114   6.991   2.678   4.226
10199SOL    HW241115   6.906   2.648   4.196
10199SOL    HW341116   6.983   2.685   4.321
10199SOL    MW441117   6.979   2.676   4.235
10200SOL     OW41118   6.067   3.141   4.957
10200SOL    HW241119   6.079   3.168   5.048
10200SOL    HW341120   6.048   3.222   4.910
10200SOL    MW441121   6.066   3.156   4.962
10201SOL     OW41122   6.351   2.121   4.780
10201SOL    HW241123   6.324   2.123   4.871
10201SOL    HW341124   6.281   2.073   4.735
10201SOL    MW441125   6.339   2.117   4.787
10202SOL     OW41126   6.205   3.613   4.942
10202SOL    HW241127   6.257   3.690   4.919
10202SOL    HW341128   6.214   3.605   5.037
10202SOL    MW441129   6.214   3.620   4.953
10203SOL     OW41130   7.107   3.198   5.174
10203SOL    HW241131   7.092   3.127   5.237
10203SOL    HW341132   7.153   3.156   5.102
10203SOL    MW441133   7.113   3.182   5.174
10204SOL     OW41134   6.181   2.929   5.291
10204SOL    HW241135   6.218   2.934   5.203
10204SOL    HW341136   6.220   3.002   5.338
10204SOL    MW441137   6.191   2.939   5.286
10205SOL     OW41138   6.361   2.972   5.103
10205SOL    HW241139   6.420   2.918   5.156
10205SOL    HW341140   6.376   2.944   5.013
10205SOL    MW441141   6.371   2.961   5.099
10206SOL     OW41142   6.364   2.344   3.952
10206SOL    HW241143   6.437   2.393   3.915
10206SOL    HW341144   6.380   2.253   3.926
10206SOL    MW441145   6.376   2.339   3.945
10207SOL     OW41146   6.832   1.940   4.866
10207SOL    HW241147   6.887   1.949   4.788
10207SOL    HW341148   6.887   1.974   4.937
10207SOL    MW441149   6.846   1.945   4.865
10208SOL     OW41150   5.839   2.853   4.050
10208SOL    HW241151   5.776   2.869   3.979
10208SOL    HW341152   5.786   2.816   4.121
10208SOL    MW441153   5.824   2.850   4.050
10209SOL     OW41154   6.195   3.207   3.909
10209SOL    HW241155   6.210   3.183   4.001
10209SOL    HW341156   6.103   3.185   3.893
10209SOL    MW441157   6.185   3.200   3.919
10210SOL     OW41158   6.734   3.438   4.061
10210SOL    HW241159   6.742   3.356   4.012
10210SOL    HW341160   6.653   3.477   4.028
10210SOL    MW441161   6.724   3.433   4.051
10211SOL     OW41162   5.993   3.596   4.630
10211SOL    HW241163   5.997   3.507   4.665
10211SOL    HW341164   6.019   3.587   4.539
10211SOL    MW441165   5.996   3.584   4.622
10212SOL     OW41166   6.610   3.074   4.873
10212SOL    HW241167   6.542   3.008   4.889
10212SOL    HW341168   6.628   3.068   4.780
10212SOL    MW441169   6.603   3.065   4.864
10213SOL     OW41170   5.699   3.349   5.124
10213SOL    HW241171   5.689   3.307   5.210
10213SOL    HW341172   5.620   3.402   5.114
10213SOL    MW441173   5.688   3.350   5.135
10214SOL     OW41174   6.603   2.213   4.694
10214SOL    HW241175   6.533   2.165   4.739
10214SOL    HW341176   6.635   2.276   4.758
10214SOL    MW441177   6.598   2.215   4.708
10215SOL     OW41178   6.254   2.649   5.314
10215SOL    HW241179   6.247   2.744   5.302
10215SOL    HW341180   6.263   2.638   5.409
10215SOL    MW441181   6.255   2.661   5.324
10216SOL     OW41182   5.975   3.164   5.572
10216SOL    HW241183   6.047   3.166   5.509
10216SOL    HW341184   5.945   3.073   5.571
10216SOL    MW441185   5.980   3.153   5.564
10217SOL     OW41186   7.059   1.927   5.039
10217SOL    HW241187   7.130   1.873   5.003
10217SOL    HW341188   7.058   1.906   5.132
10217SOL    MW441189   7.068   1.918   5.047
10218SOL     OW41190   7.259   3.457   5.523
10218SOL    HW241191   7.232   3.454   5.614
10218SOL    HW341192   7.355   3.461   5.526
10218SOL    MW441193   7.269   3.457   5.535
10219SOL     OW41194   6.070   2.319   4.507
10219SOL    HW241195   6.141   2.267   4.470
10219SOL    HW341196   6.056   2.284   4.594
10219SOL    MW441197   6.078   2.308   4.514
10220SOL     OW41198   5.625   3.654   5.579
10220SOL    HW241199   5.675   3.632   5.501
10220SOL    HW341200   5.633   3.749   5.587
10220SOL    MW441201   5.633   3.663   5.570
10221SOL     OW41202   6.386   3.412   4.583
10221SOL    HW241203   6.314   3.349   4.596
10221SOL    HW341204   6.347   3.497   4.601
10221SOL    MW441205   6.370   3.415   4.586
10222SOL     OW41206   6.706   2.260   4.231
10222SOL    HW241207   6.728   2.197   4.163
10222SOL    HW341208   6.611   2.252   4.242
10222SOL    MW441209   6.696   2.251   4.223
10223SOL     OW41210   5.791   1.950   4.163
10223SOL    HW241211   5.862   1.971   4.102
10223SOL    HW341212   5.745   1.878   4.121
10223SOL    MW441213   5.795   1.944   4.149
10224SOL     OW41214   5.622   2.417   5.306
10224SOL    HW241215   5.686   2.483   5.281
10224SOL    HW341216   5.541   2.444   5.263
10224SOL    MW441217   5.620   2.429   5.298
10225SOL     OW41218   7.360   3.324   4.263
10225SOL    HW241219   7.330   3.257   4.324
10225SOL    HW341220   7.454   3.330   4.277
10225SOL    MW441221   7.368   3.316   4.273
10226SOL     OW41222   6.916   3.001   4.193
10226SOL    HW241223   6.888   3.087   4.226
10226SOL    HW341224   6.944   3.017   4.103
10226SOL    MW441225   6.916   3.015   4.185
10227SOL     OW41226   6.578   1.921   4.246
10227SOL    HW241227   6.615   1.980   4.311
10227SOL    HW341228   6.555   1.977   4.172
10227SOL    MW441229   6.579   1.936   4.245
10228SOL     OW41230   7.431   2.803   4.668
10228SOL    HW241231   7.422   2.835   4.579
10228SOL    HW341232   7.384   2.719   4.668
10228SOL    MW441233   7.424   2.796   4.658
10229SOL     OW41234   5.807   2.643   5.247
10229SOL    HW241235   5.828   2.712   5.185
10229SOL    HW341236   5.887   2.590   5.252
10229SOL    MW441237   5.820   2.644   5.241
10230SOL     OW41238   7.343   2.734   4.369
10230SOL    HW241239   7.437   2.723   4.357
10230SOL    HW341240   7.319   2.806   4.310
10230SOL    MW441241   7.353   2.742   4.360
10231SOL     OW41242   5.792   2.658   5.514
10231SOL    HW241243   5.718   2.602   5.540
10231SOL    HW341244   5.787   2.661   5.419
10231SOL    MW441245   5.781   2.651   5.504
10232SOL     OW41246   5.958   1.945   4.964
10232SOL    HW241247   6.001   2.029   4.984
10232SOL    HW341248   6.031   1.883   4.957
10232SOL    MW441249   5.973   1.948   4.965
10233SOL     OW41250   5.999   2.612   4.142
10233SOL    HW241251   5.999   2.707   4.127
10233SOL    HW341252   6.076   2.596   4.196
10233SOL    MW441253   6.009   2.623   4.147
10234SOL     OW41254   6.775   2.471   5.206
10234SOL    HW241255   6.811   2.444   5.122
10234SOL    HW341256   6.688   2.505   5.185
10234SOL    MW441257   6.769   2.472   5.193
10235SOL     OW41258   5.758   2.343   4.431
10235SOL    HW241259   5.820   2.350   4.504
10235SOL    HW341260   5.758   2.250   4.408
10235SOL    MW441261   5.766   2.332   4.438
10236SOL     OW41262   7.305   3.683   3.963
10236SOL    HW241263   7.372   3.716   3.903
10236SOL    HW341264   7.262   3.762   3.997
10236SOL    MW441265   7.307   3.698   3.959
10237SOL     OW41266   6.440   2.604   4.915
10237SOL    HW241267   6.398   2.522   4.891
10237SOL    HW341268   6.441   2.603   5.011
10237SOL    MW441269   6.433   2.593   4.924
10238SOL     OW41270   7.111   3.737   5.314
10238SOL    HW241271   7.114   3.643   5.297
10238SOL    HW341272   7.134   3.745   5.406
10238SOL    MW441273   7.114   3.725   5.324
10239SOL     OW41274   6.244   2.074   5.020
10239SOL    HW241275   6.175   2.137   5.041
10239SOL    HW341276   6.271   2.038   5.105
10239SOL    MW441277   6.238   2.077   5.033
10240SOL     OW41278   5.627   2.915   3.889
10240SOL    HW241279   5.596   2.980   3.952
10240SOL    HW341280   5.576   2.837   3.908
10240SOL    MW441281   5.617   2.912   3.899
10241SOL     OW41282   7.039   1.927   4.637
10241SOL    HW241283   7.127   1.936   4.674
10241SOL    HW341284   7.049   1.868   4.563
10241SOL    MW441285   7.053   1.921   4.631
10242SOL     OW41286   7.071   2.666   4.481
10242SOL    HW241287   7.151   2.681   4.430
10242SOL    HW341288   7.064   2.571   4.487
10242SOL    MW441289   7.080   2.655   4.476
10243SOL     OW41290   6.211   3.715   3.831
10243SOL    HW241291   6.116   3.715   3.823
10243SOL    HW341292   6.227   3.661   3.909
10243SOL    MW441293   6.201   3.709   3.840
10244SOL     OW41294   6.521   2.592   5.178
10244SOL    HW241295   6.590   2.659   5.175
10244SOL    HW341296   6.454   2.630   5.234
10244SOL    MW441297   6.522   2.605   5.185
10245SOL     OW41298   5.939   2.892   5.426
10245SOL    HW241299   5.893   2.808   5.428
10245SOL    HW341300   5.996   2.886   5.350
10245SOL    MW441301   5.941   2.880   5.418
10246SOL     OW41302   7.056   2.535   3.747
10246SOL    HW241303   6.984   2.511   3.689
10246SOL    HW341304   7.122   2.572   3.689
10246SOL    MW441305   7.055   2.537   3.732
10247SOL     OW41306   6.190   3.267   4.427
10247SOL    HW241307   6.255   3.200   4.448
10247SOL    HW341308   6.242   3.344   4.404
10247SOL    MW441309   6.205   3.269   4.426
10248SOL     OW41310   6.451   2.432   4.557
10248SOL    HW241311   6.391   2.450   4.629
10248SOL    HW341312   6.485   2.344   4.576
10248SOL    MW441313   6.447   2.422   4.570
10249SOL     OW41314   7.392   1.931   5.226
10249SOL    HW241315   7.313   1.977   5.254
10249SOL    HW341316   7.427   1.985   5.155
10249SOL    MW441317   7.386   1.944   5.220
10250SOL     OW41318   6.676   3.015   4.576
10250SOL    HW241319   6.768   2.996   4.594
10250SOL    HW341320   6.649   2.945   4.516
10250SOL    MW441321   6.684   3.003   4.570
10251SOL     OW41322   6.469   2.835   3.931
10251SOL    HW241323   6.455   2.747   3.896
10251SOL    HW341324   6.420   2.892   3.872
10251SOL    MW441325   6.461   2.830   3.919
10252SOL     OW41326   6.950   3.253   4.672
10252SOL    HW241327   6.923   3.337   4.637
10252SOL    HW341328   6.910   3.248   4.759
10252SOL    MW441329   6.943   3.262   4.678
10253SOL     OW41330   6.869   3.201   4.940
10253SOL    HW241331   6.880   3.168   5.029
10253SOL    HW341332   6.788   3.160   4.909
10253SOL    MW441333   6.859   3.193   4.946
10254SOL     OW41334   5.882   2.559   4.710
10254SOL    HW241335   5.832   2.558   4.791
10254SOL    HW341336   5.902   2.651   4.694
10254SOL    MW441337   5.878   2.571   4.718
10255SOL     OW41338   6.949   3.323   5.472
10255SOL    HW241339   6.949   3.417   5.488
10255SOL    HW341340   6.994   3.313   5.388
10255SOL    MW441341   6.955   3.333   5.463
10256SOL     OW41342   7.188   2.041   4.033
10256SOL    HW241343   7.181   2.045   4.128
10256SOL    HW341344   7.200   2.132   4.006
10256SOL    MW441345   7.189   2.054   4.041
10257SOL     OW41346   6.477   2.604   4.147
10257SOL    HW241347   6.457   2.590   4.054
10257SOL    HW341348   6.570   2.583   4.154
10257SOL    MW441349   6.487   2.599   4.136
10258SOL     OW41350   5.804   2.227   5.451
10258SOL    HW241351   5.761   2.286   5.388
10258SOL    HW341352   5.872   2.282   5.491
10258SOL    MW441353   5.808   2.242   5.448
10259SOL     OW41354   6.916   2.847   4.996
10259SOL    HW241355   6.979   2.844   5.069
10259SOL    HW341356   6.832   2.865   5.038
10259SOL    MW441357   6.912   2.849   5.011
10260SOL     OW41358   6.460   3.562   4.185
10260SOL    HW241359   6.518   3.633   4.212
10260SOL    HW341360   6.483   3.490   4.243
10260SOL    MW441361   6.471   3.562   4.196
10261SOL     OW41362   7.255   2.024   4.775
10261SOL    HW241363   7.300   1.942   4.794
10261SOL    HW341364   7.275   2.080   4.851
10261SOL    MW441365   7.265   2.020   4.787
10262SOL     OW41366   7.340   3.060   4.494
10262SOL    HW241367   7.319   3.006   4.417
10262SOL    HW341368   7.436   3.058   4.498
10262SOL    MW441369   7.349   3.053   4.483
10263SOL     OW41370   6.032   3.205   5.237
10263SOL    HW241371   5.953   3.155   5.260
10263SOL    HW341372   6.102   3.164   5.287
10263SOL    MW441373   6.030   3.193   5.247
10264SOL     OW41374   5.916   1.994   3.920
10264SOL    HW241375   5.845   2.049   3.888
10264SOL    HW341376   5.958   1.960   3.841
10264SOL    MW441377   5.912   1.996   3.906
10265SOL     OW41378   7.040   2.491   4.756
10265SOL    HW241379   6.963   2.537   4.722
10265SOL    HW341380   7.097   2.560   4.790
10265SOL    MW441381   7.037   2.506   4.756
10266SOL     OW41382   5.672   2.093   3.769
10266SOL    HW241383   5.639   2.172   3.813
10266SOL    HW341384   5.727   2.126   3.698
10266SOL    MW441385   5.675   2.107   3.766
10267SOL     OW41386   5.706   3.350   3.958
10267SOL    HW241387   5.723   3.434   4.000
10267SOL    HW341388   5.741   3.359   3.870
10267SOL    MW441389   5.711   3.363   3.952
10268SOL     OW41390   6.978   3.439   4.175
10268SOL    HW241391   7.041   3.429   4.104
10268SOL    HW341392   6.895   3.459   4.130
10268SOL    MW441393   6.975   3.440   4.160
10269SOL     OW41394   7.341   2.707   5.862
10269SOL    HW241395   7.382   2.649   5.927
10269SOL    HW341396   7.248   2.699   5.879
10269SOL    MW441397   7.335   2.699   5.872
10270SOL     OW41398   6.135   2.890   6.091
10270SOL    HW241399   6.225   2.865   6.075
10270SOL    HW341400   6.131   2.983   6.068
10270SOL    MW441401   6.147   2.899   6.086
10271SOL     OW41402   7.251   3.593   6.233
10271SOL    HW241403   7.263   3.539   6.311
10271SOL    HW341404   7.288   3.541   6.162
10271SOL    MW441405   7.257   3.578   6.234
10272SOL     OW41406   6.419   2.346   6.104
10272SOL    HW241407   6.394   2.434   6.132
10272SOL    HW341408   6.416   2.349   6.008
10272SOL    MW441409   6.415   2.358   6.096
10273SOL     OW41410   5.861   2.374   6.032
10273SOL    HW241411   5.893   2.462   6.014
10273SOL    HW341412   5.849   2.372   6.127
10273SOL    MW441413   5.864   2.386   6.044
10274SOL     OW41414   6.260   2.129   6.119
10274SOL    HW241415   6.318   2.205   6.121
10274SOL    HW341416   6.195   2.150   6.052
10274SOL    MW441417   6.259   2.141   6.110
10275SOL     OW41418   6.347   3.056   6.294
10275SOL    HW241419   6.427   3.059   6.346
10275SOL    HW341420   6.375   3.023   6.208
10275SOL    MW441421   6.361   3.052   6.289
10276SOL     OW41422   6.124   2.560   6.285
10276SOL    HW241423   6.109   2.480   6.336
10276SOL    HW341424   6.206   2.595   6.319
10276SOL    MW441425   6.132   2.552   6.297
10277SOL     OW41426   6.012   2.800   6.566
10277SOL    HW241427   5.967   2.807   6.482
10277SOL    HW341428   5.992   2.883   6.610
10277SOL    MW441429   6.004   2.812   6.560
10278SOL     OW41430   5.709   3.646   6.441
10278SOL    HW241431   5.798   3.638   6.476
10278SOL    HW341432   5.673   3.558   6.446
10278SOL    MW441433   5.716   3.633   6.446
10279SOL     OW41434   6.974   3.038   5.810
10279SOL    HW241435   6.892   3.074   5.776
10279SOL    HW341436   7.042   3.081   5.759
10279SOL    MW441437   6.972   3.048   5.798
10280SOL     OW41438   6.535   2.817   6.286
10280SOL    HW241439   6.449   2.804   6.326
10280SOL    HW341440   6.588   2.744   6.318
10280SOL    MW441441   6.531   2.806   6.295
10281SOL     OW41442   6.526   3.179   6.003
10281SOL    HW241443   6.503   3.241   6.071
10281SOL    HW341444   6.483   3.097   6.029
10281SOL    MW441445   6.518   3.175   6.014
10282SOL     OW41446   7.399   2.180   6.459
10282SOL    HW241447   7.336   2.160   6.528
10282SOL    HW341448   7.389   2.109   6.396
10282SOL    MW441449   7.389   2.167   6.460
10283SOL     OW41450   6.023   2.152   5.971
10283SOL    HW241451   5.997   2.114   5.887
10283SOL    HW341452   5.960   2.222   5.987
10283SOL    MW441453   6.012   2.155   5.962
10284SOL     OW41454   5.858   3.113   6.008
10284SOL    HW241455   5.806   3.181   5.964
10284SOL    HW341456   5.855   3.039   5.948
10284SOL    MW441457   5.850   3.112   5.995
10285SOL     OW41458   6.520   3.576   5.786
10285SOL    HW241459   6.475   3.592   5.869
10285SOL    HW341460   6.451   3.541   5.728
10285SOL    MW441461   6.506   3.573   5.788
10286SOL     OW41462   7.455   2.349   5.761
10286SOL    HW241463   7.364   2.351   5.789
10286SOL    HW341464   7.500   2.411   5.819
10286SOL    MW441465   7.448   2.357   5.771
10287SOL     OW41466   7.200   2.952   6.111
10287SOL    HW241467   7.110   2.952   6.146
10287SOL    HW341468   7.193   2.998   6.028
10287SOL    MW441469   7.187   2.958   6.105
10288SOL     OW41470   6.727   2.533   6.072
10288SOL    HW241471   6.753   2.557   5.983
10288SOL    HW341472   6.709   2.440   6.068
10288SOL    MW441473   6.729   2.525   6.059
10289SOL     OW41474   7.392   3.153   5.923
10289SOL    HW241475   7.348   3.194   5.998
10289SOL    HW341476   7.449   3.221   5.888
10289SOL    MW441477   7.394   3.167   5.928
10290SOL     OW41478   6.048   3.569   6.241
10290SOL    HW241479   6.080   3.657   6.219
10290SOL    HW341480   6.001   3.541   6.163
10290SOL    MW441481   6.047   3.577   6.228
10291SOL     OW41482   7.432   1.931   6.290
10291SOL    HW241483   7.486   1.882   6.352
10291SOL    HW341484   7.375   1.865   6.251
10291SOL    MW441485   7.432   1.915   6.292
10292SOL     OW41486   5.764   3.629   5.818
10292SOL    HW241487   5.793   3.719   5.810
10292SOL    HW341488   5.714   3.612   5.739
10292SOL    MW441489   5.762   3.637   5.807
10293SOL     OW41490   7.168   3.437   5.789
10293SOL    HW241491   7.216   3.506   5.835
10293SOL    HW341492   7.089   3.481   5.758
10293SOL    MW441493   7.163   3.451   5.792
10294SOL     OW41494   6.566   2.562   5.733
10294SOL    HW241495   6.568   2.509   5.654
10294SOL    HW341496   6.654   2.599   5.739
10294SOL    MW441497   6.578   2.561   5.722
10295SOL     OW41498   7.180   2.488   6.069
10295SOL    HW241499   7.219   2.488   6.156
10295SOL    HW341500   7.121   2.564   6.069
10295SOL    MW441501   7.177   2.499   6.080
10296SOL     OW41502   7.367   2.374   6.235
10296SOL    HW241503   7.456   2.343   6.252
10296SOL    HW341504   7.310   2.314   6.283
10296SOL    MW441505   7.370   2.362   6.244
10297SOL     OW41506   5.793   2.088   6.264
10297SOL    HW241507   5.784   2.028   6.190
10297SOL    HW341508   5.726   2.059   6.327
10297SOL    MW441509   5.783   2.075   6.262
10298SOL     OW41510   6.736   3.181   5.825
10298SOL    HW241511   6.686   3.183   5.907
10298SOL    HW341512   6.670   3.199   5.757
10298SOL    MW441513   6.722   3.183   5.827
10299SOL     OW41514   6.199   3.599   5.933
10299SOL    HW241515   6.120   3.557   5.966
10299SOL    HW341516   6.265   3.582   6.000
10299SOL    MW441517   6.198   3.591   5.946
10300SOL     OW41518   6.335   3.014   5.640
10300SOL    HW241519   6.257   2.960   5.627
10300SOL    HW341520   6.306   3.087   5.693
10300SOL    MW441521   6.321   3.016   5.645
10301SOL     OW41522   6.916   3.530   5.708
10301SOL    HW241523   6.842   3.493   5.758
10301SOL    HW341524   6.924   3.620   5.741
10301SOL    MW441525   6.907   3.537   5.720
10302SOL     OW41526   7.140   3.204   5.650
10302SOL    HW241527   7.087   3.253   5.586
10302SOL    HW341528   7.171   3.270   5.711
10302SOL    MW441529   7.138   3.218   5.648
10303SOL     OW41530   6.365   2.093   5.705
10303SOL    HW241531   6.313   2.013   5.693
10303SOL    HW341532   6.452   2.070   5.673
10303SOL    MW441533   6.368   2.079   5.699
10304SOL     OW41534   5.726   2.733   6.162
10304SOL    HW241535   5.817   2.748   6.189
10304SOL    HW341536   5.729   2.654   6.108
10304SOL    MW441537   5.738   2.725   6.160
10305SOL     OW41538   5.734   3.345   6.201
10305SOL    HW241539   5.706   3.384   6.283
10305SOL    HW341540   5.754   3.254   6.223
10305SOL    MW441541   5.732   3.337   6.214
10306SOL     OW41542   6.567   3.388   6.236
10306SOL    HW241543   6.650   3.342   6.220
10306SOL    HW341544   6.557   3.387   6.332
10306SOL    MW441545   6.577   3.381   6.246
10307SOL     OW41546   6.300   3.445   5.641
10307SOL    HW241547   6.240   3.514   5.611
10307SOL    HW341548   6.245   3.387   5.694
10307SOL    MW441549   6.284   3.447   5.643
10308SOL     OW41550   6.738   2.090   5.864
10308SOL    HW241551   6.671   2.066   5.801
10308SOL    HW341552   6.803   2.139   5.813
10308SOL    MW441553   6.738   2.092   5.849
10309SOL     OW41554   6.257   2.807   6.376
10309SOL    HW241555   6.168   2.798   6.409
10309SOL    HW341556   6.261   2.897   6.344
10309SOL    MW441557   6.246   2.818   6.376
10310SOL     OW41558   7.056   2.390   6.371
10310SOL    HW241559   7.001   2.311   6.370
10310SOL    HW341560   7.038   2.431   6.455
10310SOL    MW441561   7.046   2.385   6.380
10311SOL     OW41562   6.675   2.594   6.328
10311SOL    HW241563   6.612   2.526   6.352
10311SOL    HW341564   6.695   2.575   6.236
10311SOL    MW441565   6.669   2.581   6.320
10312SOL     OW41566   5.931   3.489   6.030
10312SOL    HW241567   5.892   3.536   5.956
10312SOL    HW341568   5.865   3.424   6.055
10312SOL    MW441569   5.918   3.487   6.024
10313SOL     OW41570   6.423   2.898   6.054
10313SOL    HW241571   6.425   2.872   5.961
10313SOL    HW341572   6.481   2.835   6.097
10313SOL    MW441573   6.431   2.887   6.048
10314SOL     OW41574   6.980   3.666   6.256
10314SOL    HW241575   6.923   3.619   6.195
10314SOL    HW341576   7.066   3.627   6.243
10314SOL    MW441577   6.983   3.657   6.246
10315SOL     OW41578   6.933   2.142   6.387
10315SOL    HW241579   6.961   2.074   6.448
10315SOL    HW341580   6.847   2.113   6.357
10315SOL    MW441581   6.926   2.129   6.391
10316SOL     OW41582   5.738   3.076   6.321
10316SOL    HW241583   5.802   3.108   6.384
10316SOL    HW341584   5.787   3.012   6.269
10316SOL    MW441585   5.753   3.072   6.322
10317SOL     OW41586   6.913   2.246   5.722
10317SOL    HW241587   6.886   2.312   5.658
10317SOL    HW341588   6.983   2.289   5.772
10317SOL    MW441589   6.918   2.259   5.719
10318SOL     OW41590   6.581   1.951   5.659
10318SOL    HW241591   6.637   1.943   5.581
10318SOL    HW341592   6.558   1.861   5.681
10318SOL    MW441593   6.586   1.938   5.652
10319SOL     OW41594   7.086   2.802   5.864
10319SOL    HW241595   7.053   2.891   5.854
10319SOL    HW341596   7.051   2.773   5.949
10319SOL    MW441597   7.076   2.811   5.875
10320SOL     OW41598   6.080   2.840   5.656
10320SOL    HW241599   6.003   2.853   5.712
10320SOL    HW341600   6.044   2.804   5.575
10320SOL    MW441601   6.066   2.836   5.653
10321SOL     OW41602   6.733   2.813   5.899
10321SOL    HW241603   6.643   2.834   5.874
10321SOL    HW341604   6.760   2.886   5.955
10321SOL    MW441605   6.725   2.825   5.902
10322SOL     OW41606   6.362   1.929   6.306
10322SOL    HW241607   6.291   1.990   6.288
10322SOL    HW341608   6.413   1.926   6.225
10322SOL    MW441609   6.358   1.935   6.293
10323SOL     OW41610   6.120   3.169   6.055
10323SOL    HW241611   6.113   3.201   6.145
10323SOL    HW341612   6.030   3.153   6.027
10323SOL    MW441613   6.108   3.171   6.062
10324SOL     OW41614   6.829   3.527   6.454
10324SOL    HW241615   6.876   3.600   6.413
10324SOL    HW341616   6.750   3.566   6.490
10324SOL    MW441617   6.824   3.542   6.453
10325SOL     OW41618   6.123   2.453   5.769
10325SOL    HW241619   6.089   2.509   5.839
10325SOL    HW341620   6.194   2.403   5.809
10325SOL    MW441621   6.129   2.454   5.783
10326SOL     OW41622   7.179   2.339   5.833
10326SOL    HW241623   7.171   2.410   5.770
10326SOL    HW341624   7.197   2.383   5.916
10326SOL    MW441625   7.180   2.353   5.835
10327SOL     OW41626   6.039   1.994   6.262
10327SOL    HW241627   6.089   2.037   6.193
10327SOL    HW341628   5.954   2.038   6.262
10327SOL    MW441629   6.036   2.007   6.253
10328SOL     OW41630   6.848   2.601   5.808
10328SOL    HW241631   6.895   2.619   5.727
10328SOL    HW341632   6.814   2.685   5.836
10328SOL    MW441633   6.850   2.615   5.801
10329SOL     OW41634   5.961   2.779   6.302
10329SOL    HW241635   6.019   2.835   6.250
10329SOL    HW341636   6.005   2.694   6.304
10329SOL    MW441637   5.974   2.776   6.295
10330SOL     OW41638   7.101   2.131   6.139
10330SOL    HW241639   7.023   2.081   6.164
10330SOL    HW341640   7.072   2.222   6.139
10330SOL    MW441641   7.087   2.135   6.142
10331SOL     OW41642   6.687   2.093   6.298
10331SOL    HW241643   6.707   2.168   6.242
10331SOL    HW341644   6.667   2.132   6.383
10331SOL    MW441645   6.688   2.109   6.302
10332SOL     OW41646   6.583   3.343   5.630
10332SOL    HW241647   6.610   3.421   5.582
10332SOL    HW341648   6.490   3.358   5.649
10332SOL    MW441649   6.574   3.356   5.626
10333SOL     OW41650   5.623   2.505   6.021
10333SOL    HW241651   5.563   2.477   6.091
10333SOL    HW341652   5.697   2.445   6.027
10333SOL    MW441653   5.625   2.494   6.030
10334SOL     OW41654   6.791   3.236   6.181
10334SOL    HW241655   6.814   3.187   6.259
10334SOL    HW341656   6.872   3.278   6.153
10334SOL    MW441657   6.804   3.236   6.188
10335SOL     OW41658   6.146   1.989   6.537
10335SOL    HW241659   6.156   1.898   6.563
10335SOL    HW341660   6.102   1.985   6.452
10335SOL    MW441661   6.142   1.977   6.529
10336SOL     OW41662   6.931   1.903   5.817
10336SOL    HW241663   7.005   1.947   5.860
10336SOL    HW341664   6.855   1.957   5.839
10336SOL    MW441665   6.931   1.915   5.825
10337SOL     OW41666   6.991   2.678   6.095
10337SOL    HW241667   6.906   2.648   6.065
10337SOL    HW341668   6.983   2.685   6.190
10337SOL    MW441669   6.979   2.676   6.104
10338SOL     OW41670   6.364   2.344   5.821
10338SOL    HW241671   6.437   2.393   5.784
10338SOL    HW341672   6.380   2.253   5.795
10338SOL    MW441673   6.376   2.339   5.814
10339SOL     OW41674   5.839   2.853   5.919
10339SOL    HW241675   5.776   2.869   5.848
10339SOL    HW341676   5.786   2.816   5.990
10339SOL    MW441677   5.824   2.850   5.919
10340SOL     OW41678   6.195   3.207   5.778
10340SOL    HW241679   6.210   3.183   5.870
10340SOL    HW341680   6.103   3.185   5.762
10340SOL    MW441681   6.185   3.200   5.788
10341SOL     OW41682   6.734   3.438   5.930
10341SOL    HW241683   6.742   3.356   5.881
10341SOL    HW341684   6.653   3.477   5.897
10341SOL    MW441685   6.724   3.433   5.920
10342SOL     OW41686   5.993   3.596   6.499
10342SOL    HW241687   5.997   3.507   6.534
10342SOL    HW341688   6.019   3.587   6.408
10342SOL    MW441689   5.996   3.584   6.491
10343SOL     OW41690   6.070   2.319   6.376
10343SOL    HW241691   6.141   2.267   6.339
10343SOL    HW341692   6.056   2.284   6.463
10343SOL    MW441693   6.078   2.308   6.383
10344SOL     OW41694   6.386   3.412   6.452
10344SOL    HW241695   6.314   3.349   6.465
10344SOL    HW341696   6.347   3.497   6.470
10344SOL    MW441697   6.370   3.415   6.455
10345SOL     OW41698   6.706   2.260   6.100
10345SOL    HW241699   6.728   2.197   6.032
10345SOL    HW341700   6.611   2.252   6.111
10345SOL    MW441701   6.696   2.251   6.092
10346SOL     OW41702   5.791   1.950   6.032
10346SOL    HW241703   5.862   1.971   5.971
10346SOL    HW341704   5.745   1.878   5.990
10346SOL    MW441705   5.795   1.944   6.018
10347SOL     OW41706   7.360   3.324   6.132
10347SOL    HW241707   7.330   3.257   6.193
10347SOL    HW341708   7.454   3.330   6.146
10347SOL    MW441709   7.368   3.316   6.142
10348SOL     OW41710   6.916   3.001   6.062
10348SOL    HW241711   6.888   3.087   6.095
10348SOL    HW341712   6.944   3.017   5.972
10348SOL    MW441713   6.916   3.015   6.054
10349SOL     OW41714   6.578   1.921   6.115
10349SOL    HW241715   6.615   1.980   6.180
10349SOL    HW341716   6.555   1.977   6.041
10349SOL    MW441717   6.579   1.936   6.114
10350SOL     OW41718   7.431   2.803   6.537
10350SOL    HW241719   7.422   2.835   6.448
10350SOL    HW341720   7.384   2.719   6.537
10350SOL    MW441721   7.424   2.796   6.527
10351SOL     OW41722   7.343   2.734   6.238
10351SOL    HW241723   7.437   2.723   6.226
10351SOL    HW341724   7.319   2.806   6.179
10351SOL    MW441725   7.353   2.742   6.229
10352SOL     OW41726   5.999   2.612   6.011
10352SOL    HW241727   5.999   2.707   5.996
10352SOL    HW341728   6.076   2.596   6.065
10352SOL    MW441729   6.009   2.623   6.016
10353SOL     OW41730   5.758   2.343   6.300
10353SOL    HW241731   5.820   2.350   6.373
10353SOL    HW341732   5.758   2.250   6.277
10353SOL    MW441733   5.766   2.332   6.307
10354SOL     OW41734   7.305   3.683   5.832
10354SOL    HW241735   7.372   3.716   5.772
10354SOL    HW341736   7.262   3.762   5.866
10354SOL    MW441737   7.307   3.698   5.828
10355SOL     OW41738   5.627   2.915   5.758
10355SOL    HW241739   5.596   2.980   5.821
10355SOL    HW341740   5.576   2.837   5.777
10355SOL    MW441741   5.617   2.912   5.768
10356SOL     OW41742   7.071   2.666   6.350
10356SOL    HW241743   7.151   2.681   6.299
10356SOL    HW341744   7.064   2.571   6.356
10356SOL    MW441745   7.080   2.655   6.345
10357SOL     OW41746   6.211   3.715   5.700
10357SOL    HW241747   6.116   3.715   5.692
10357SOL    HW341748   6.227   3.661   5.778
10357SOL    MW441749   6.201   3.709   5.709
10358SOL     OW41750   7.056   2.535   5.615
10358SOL    HW241751   6.984   2.511   5.557
10358SOL    HW341752   7.122   2.572   5.557
10358SOL    MW441753   7.055   2.537   5.600
10359SOL     OW41754   6.190   3.267   6.296
10359SOL    HW241755   6.255   3.200   6.317
10359SOL    HW341756   6.242   3.344   6.273
10359SOL    MW441757   6.205   3.269   6.295
10360SOL     OW41758   6.451   2.432   6.426
10360SOL    HW241759   6.391   2.450   6.498
10360SOL    HW341760   6.485   2.344   6.445
10360SOL    MW441761   6.447   2.422   6.439
10361SOL     OW41762   6.676   3.015   6.445
10361SOL    HW241763   6.768   2.996   6.463
10361SOL    HW341764   6.649   2.945   6.385
10361SOL    MW441765   6.684   3.003   6.439
10362SOL     OW41766   6.469   2.835   5.800
10362SOL    HW241767   6.455   2.747   5.765
10362SOL    HW341768   6.420   2.892   5.741
10362SOL    MW441769   6.461   2.830   5.788
10363SOL     OW41770   7.188   2.041   5.902
10363SOL    HW241771   7.181   2.045   5.997
10363SOL    HW341772   7.200   2.132   5.875
10363SOL    MW441773   7.189   2.054   5.910
10364SOL     OW41774   6.477   2.604   6.016
10364SOL    HW241775   6.457   2.590   5.923
10364SOL    HW341776   6.570   2.583   6.023
10364SOL    MW441777   6.487   2.599   6.005
10365SOL     OW41778   6.460   3.562   6.054
10365SOL    HW241779   6.518   3.633   6.081
10365SOL    HW341780   6.483   3.490   6.112
10365SOL    MW441781   6.471   3.562   6.065
10366SOL     OW41782   7.340   3.060   6.363
10366SOL    HW241783   7.319   3.006   6.286
10366SOL    HW341784   7.436   3.058   6.367
10366SOL    MW441785   7.349   3.053   6.352
10367SOL     OW41786   5.916   1.994   5.789
10367SOL    HW241787   5.845   2.049   5.757
10367SOL    HW341788   5.958   1.960   5.710
10367SOL    MW441789   5.912   1.996   5.775
10368SOL     OW41790   5.672   2.093   5.638
10368SOL    HW241791   5.639   2.172   5.682
10368SOL    HW341792   5.727   2.126   5.567
10368SOL    MW441793   5.675   2.107   5.635
10369SOL     OW41794   5.706   3.350   5.827
10369SOL    HW241795   5.723   3.434   5.869
10369SOL    HW341796   5.741   3.359   5.739
10369SOL    MW441797   5.711   3.363   5.821
10370SOL     OW41798   6.978   3.439   6.044
10370SOL    HW241799   7.041   3.429   5.973
10370SOL    HW341800   6.895   3.459   5.999
10370SOL    MW441801   6.975   3.440   6.029
10371SOL     OW41802   7.207   4.507   1.252
10371SOL    HW241803   7.162   4.574   1.303
10371SOL    HW341804   7.295   4.543   1.238
10371SOL    MW441805   7.213   4.520   1.256
10372SOL     OW41806   6.135   4.758   0.486
10372SOL    HW241807   6.225   4.733   0.470
10372SOL    HW341808   6.131   4.851   0.463
10372SOL    MW441809   6.147   4.767   0.481
10373SOL     OW41810   7.251   5.461   0.628
10373SOL    HW241811   7.263   5.407   0.706
10373SOL    HW341812   7.288   5.409   0.557
10373SOL    MW441813   7.257   5.446   0.629
10374SOL     OW41814   6.630   5.346   1.629
10374SOL    HW241815   6.671   5.382   1.550
10374SOL    HW341816   6.665   5.257   1.636
10374SOL    MW441817   6.641   5.339   1.620
10375SOL     OW41818   7.187   4.901   1.233
10375SOL    HW241819   7.108   4.866   1.191
10375SOL    HW341820   7.214   4.973   1.177
10375SOL    MW441821   7.180   4.906   1.220
10376SOL     OW41822   6.419   4.214   0.499
10376SOL    HW241823   6.394   4.302   0.527
10376SOL    HW341824   6.416   4.217   0.403
10376SOL    MW441825   6.415   4.226   0.491
10377SOL     OW41826   5.861   4.242   0.427
10377SOL    HW241827   5.893   4.330   0.409
10377SOL    HW341828   5.849   4.240   0.522
10377SOL    MW441829   5.864   4.254   0.439
10378SOL     OW41830   5.939   4.655   1.328
10378SOL    HW241831   6.002   4.602   1.279
10378SOL    HW341832   5.920   4.729   1.271
10378SOL    MW441833   5.945   4.657   1.315
10379SOL     OW41834   6.260   3.997   0.514
10379SOL    HW241835   6.318   4.073   0.516
10379SOL    HW341836   6.195   4.018   0.447
10379SOL    MW441837   6.259   4.009   0.505
10380SOL     OW41838   6.347   4.924   0.689
10380SOL    HW241839   6.427   4.927   0.741
10380SOL    HW341840   6.375   4.891   0.603
10380SOL    MW441841   6.361   4.920   0.684
10381SOL     OW41842   6.372   5.265   1.592
10381SOL    HW241843   6.456   5.291   1.631
10381SOL    HW341844   6.396   5.209   1.518
10381SOL    MW441845   6.386   5.261   1.587
10382SOL     OW41846   6.124   4.428   0.680
10382SOL    HW241847   6.109   4.348   0.731
10382SOL    HW341848   6.206   4.463   0.714
10382SOL    MW441849   6.132   4.420   0.692
10383SOL     OW41850   6.461   5.114   1.365
10383SOL    HW241851   6.425   5.180   1.305
10383SOL    HW341852   6.389   5.052   1.378
10383SOL    MW441853   6.447   5.114   1.359
10384SOL     OW41854   6.266   4.254   1.057
10384SOL    HW241855   6.172   4.250   1.075
10384SOL    HW341856   6.296   4.163   1.066
10384SOL    MW441857   6.257   4.242   1.060
10385SOL     OW41858   6.012   4.668   0.961
10385SOL    HW241859   5.967   4.675   0.877
10385SOL    HW341860   5.992   4.751   1.005
10385SOL    MW441861   6.004   4.680   0.955
10386SOL     OW41862   5.709   5.514   0.836
10386SOL    HW241863   5.798   5.506   0.871
10386SOL    HW341864   5.673   5.426   0.841
10386SOL    MW441865   5.716   5.501   0.841
10387SOL     OW41866   5.973   5.041   0.871
10387SOL    HW241867   5.949   5.094   0.947
10387SOL    HW341868   6.029   5.099   0.819
10387SOL    MW441869   5.977   5.056   0.874
10388SOL     OW41870   6.535   4.685   0.681
10388SOL    HW241871   6.449   4.672   0.721
10388SOL    HW341872   6.588   4.612   0.713
10388SOL    MW441873   6.531   4.674   0.690
10389SOL     OW41874   5.943   5.337   1.466
10389SOL    HW241875   5.851   5.313   1.451
10389SOL    HW341876   5.987   5.254   1.483
10389SOL    MW441877   5.937   5.322   1.465
10390SOL     OW41878   6.526   5.047   0.398
10390SOL    HW241879   6.503   5.109   0.466
10390SOL    HW341880   6.483   4.965   0.424
10390SOL    MW441881   6.518   5.043   0.409
10391SOL     OW41882   7.399   4.048   0.854
10391SOL    HW241883   7.336   4.028   0.923
10391SOL    HW341884   7.389   3.977   0.791
10391SOL    MW441885   7.389   4.035   0.855
10392SOL     OW41886   5.858   4.981   0.403
10392SOL    HW241887   5.806   5.049   0.359
10392SOL    HW341888   5.855   4.907   0.343
10392SOL    MW441889   5.850   4.980   0.390
10393SOL     OW41890   6.520   5.444   0.181
10393SOL    HW241891   6.475   5.460   0.264
10393SOL    HW341892   6.451   5.409   0.123
10393SOL    MW441893   6.506   5.441   0.183
10394SOL     OW41894   7.200   4.820   0.506
10394SOL    HW241895   7.110   4.820   0.541
10394SOL    HW341896   7.193   4.866   0.423
10394SOL    MW441897   7.187   4.826   0.500
10395SOL     OW41898   7.000   4.455   1.578
10395SOL    HW241899   7.069   4.393   1.555
10395SOL    HW341900   6.925   4.429   1.525
10395SOL    MW441901   7.000   4.442   1.569
10396SOL     OW41902   5.741   5.335   1.130
10396SOL    HW241903   5.724   5.281   1.207
10396SOL    HW341904   5.729   5.425   1.160
10396SOL    MW441905   5.738   5.339   1.144
10397SOL     OW41906   6.736   4.842   1.570
10397SOL    HW241907   6.721   4.935   1.555
10397SOL    HW341908   6.831   4.832   1.570
10397SOL    MW441909   6.745   4.852   1.567
10398SOL     OW41910   6.532   4.266   1.771
10398SOL    HW241911   6.622   4.267   1.738
10398SOL    HW341912   6.491   4.191   1.729
10398SOL    MW441913   6.538   4.256   1.762
10399SOL     OW41914   7.107   4.798   0.898
10399SOL    HW241915   7.110   4.732   0.829
10399SOL    HW341916   7.192   4.841   0.894
10399SOL    MW441917   7.119   4.794   0.889
10400SOL     OW41918   6.727   4.401   0.467
10400SOL    HW241919   6.753   4.425   0.378
10400SOL    HW341920   6.709   4.308   0.463
10400SOL    MW441921   6.729   4.393   0.454
10401SOL     OW41922   7.392   5.021   0.318
10401SOL    HW241923   7.348   5.062   0.393
10401SOL    HW341924   7.449   5.089   0.283
10401SOL    MW441925   7.394   5.035   0.323
10402SOL     OW41926   6.312   4.070   1.721
10402SOL    HW241927   6.322   3.996   1.661
10402SOL    HW341928   6.348   4.039   1.804
10402SOL    MW441929   6.318   4.056   1.723
10403SOL     OW41930   6.048   5.437   0.636
10403SOL    HW241931   6.080   5.525   0.614
10403SOL    HW341932   6.001   5.409   0.558
10403SOL    MW441933   6.047   5.445   0.623
10404SOL     OW41934   7.432   3.799   0.685
10404SOL    HW241935   7.486   3.750   0.747
10404SOL    HW341936   7.375   3.733   0.646
10404SOL    MW441937   7.432   3.783   0.687
10405SOL     OW41938   6.551   3.752   1.098
10405SOL    HW241939   6.510   3.830   1.060
10405SOL    HW341940   6.645   3.770   1.093
10405SOL    MW441941   6.557   3.764   1.093
10406SOL     OW41942   7.180   4.356   0.464
10406SOL    HW241943   7.219   4.356   0.551
10406SOL    HW341944   7.121   4.432   0.464
10406SOL    MW441945   7.177   4.367   0.475
10407SOL     OW41946   6.497   4.723   1.593
10407SOL    HW241947   6.474   4.703   1.683
10407SOL    HW341948   6.582   4.767   1.598
10407SOL    MW441949   6.504   4.726   1.605
10408SOL     OW41950   6.577   3.860   1.353
10408SOL    HW241951   6.583   3.822   1.266
10408SOL    HW341952   6.566   3.954   1.338
10408SOL    MW441953   6.578   3.868   1.341
10409SOL     OW41954   6.666   4.349   1.187
10409SOL    HW241955   6.741   4.378   1.134
10409SOL    HW341956   6.598   4.414   1.171
10409SOL    MW441957   6.667   4.361   1.177
10410SOL     OW41958   7.216   4.317   1.464
10410SOL    HW241959   7.197   4.226   1.443
10410SOL    HW341960   7.194   4.366   1.385
10410SOL    MW441961   7.211   4.310   1.451
10411SOL     OW41962   7.358   5.411   1.368
10411SOL    HW241963   7.286   5.373   1.419
10411SOL    HW341964   7.375   5.496   1.409
10411SOL    MW441965   7.352   5.416   1.380
10412SOL     OW41966   6.663   4.055   1.570
10412SOL    HW241967   6.629   4.094   1.489
10412SOL    HW341968   6.641   3.963   1.563
10412SOL    MW441969   6.656   4.048   1.560
10413SOL     OW41970   7.072   4.869   1.646
10413SOL    HW241971   7.154   4.910   1.676
10413SOL    HW341972   7.035   4.831   1.726
10413SOL    MW441973   7.078   4.870   1.661
10414SOL     OW41974   7.367   4.242   0.630
10414SOL    HW241975   7.456   4.211   0.647
10414SOL    HW341976   7.310   4.182   0.678
10414SOL    MW441977   7.370   4.230   0.639
10415SOL     OW41978   5.793   3.956   0.659
10415SOL    HW241979   5.784   3.896   0.585
10415SOL    HW341980   5.726   3.927   0.722
10415SOL    MW441981   5.783   3.943   0.657
10416SOL     OW41982   5.740   4.129   1.022
10416SOL    HW241983   5.712   4.220   1.031
10416SOL    HW341984   5.677   4.090   0.961
10416SOL    MW441985   5.727   4.135   1.016
10417SOL     OW41986   7.327   4.987   1.725
10417SOL    HW241987   7.377   4.913   1.757
10417SOL    HW341988   7.273   5.014   1.800
10417SOL    MW441989   7.327   4.981   1.738
10418SOL     OW41990   7.461   4.622   1.227
10418SOL    HW241991   7.477   4.660   1.140
10418SOL    HW341992   7.495   4.688   1.288
10418SOL    MW441993   7.468   4.635   1.223
10419SOL     OW41994   7.253   5.331   0.896
10419SOL    HW241995   7.282   5.398   0.957
10419SOL    HW341996   7.234   5.255   0.951
10419SOL    MW441997   7.255   5.331   0.911
10420SOL     OW41998   5.724   4.404   1.192
10420SOL    HW241999   5.786   4.434   1.258
10420SOL    HW342000   5.658   4.473   1.186
10420SOL    MW442001   5.723   4.417   1.199
10421SOL     OW42002   5.819   5.513   1.644
10421SOL    HW242003   5.793   5.581   1.582
10421SOL    HW342004   5.867   5.450   1.592
10421SOL    MW442005   5.821   5.513   1.630
10422SOL     OW42006   5.871   4.832   1.151
10422SOL    HW242007   5.924   4.907   1.176
10422SOL    HW342008   5.790   4.870   1.117
10422SOL    MW442009   5.867   4.847   1.151
10423SOL     OW42010   6.411   4.736   1.139
10423SOL    HW242011   6.439   4.645   1.151
10423SOL    HW342012   6.340   4.730   1.075
10423SOL    MW442013   6.404   4.724   1.134
10424SOL     OW42014   5.726   4.601   0.557
10424SOL    HW242015   5.817   4.616   0.584
10424SOL    HW342016   5.729   4.522   0.503
10424SOL    MW442017   5.738   4.593   0.555
10425SOL     OW42018   5.962   4.309   1.811
10425SOL    HW242019   5.909   4.389   1.818
10425SOL    HW342020   6.032   4.321   1.876
10425SOL    MW442021   5.964   4.322   1.819
10426SOL     OW42022   6.348   3.859   1.518
10426SOL    HW242023   6.325   3.767   1.520
10426SOL    HW342024   6.434   3.861   1.475
10426SOL    MW442025   6.355   3.849   1.514
10427SOL     OW42026   6.032   4.383   1.557
10427SOL    HW242027   6.112   4.433   1.543
10427SOL    HW342028   6.023   4.377   1.652
10427SOL    MW442029   6.041   4.389   1.567
10428SOL     OW42030   6.353   5.533   0.931
10428SOL    HW242031   6.442   5.548   0.961
10428SOL    HW342032   6.348   5.580   0.847
10428SOL    MW442033   6.363   5.541   0.924
10429SOL     OW42034   7.009   3.908   1.828
10429SOL    HW242035   7.065   3.835   1.854
10429SOL    HW342036   6.979   3.946   1.910
10429SOL    MW442037   7.013   3.903   1.841
10430SOL     OW42038   5.734   5.213   0.596
10430SOL    HW242039   5.706   5.252   0.678
10430SOL    HW342040   5.754   5.122   0.618
10430SOL    MW442041   5.732   5.205   0.609
10431SOL     OW42042   6.567   5.256   0.631
10431SOL    HW242043   6.650   5.210   0.615
10431SOL    HW342044   6.557   5.255   0.727
10431SOL    MW442045   6.577   5.249   0.641
10432SOL     OW42046   7.399   4.401   0.945
10432SOL    HW242047   7.488   4.431   0.927
10432SOL    HW342048   7.379   4.341   0.874
10432SOL    MW442049   7.408   4.398   0.934
10433SOL     OW42050   7.250   4.580   1.825
10433SOL    HW242051   7.305   4.504   1.806
10433SOL    HW342052   7.252   4.588   1.920
10433SOL    MW442053   7.258   4.571   1.833
10434SOL     OW42054   6.300   5.313   0.036
10434SOL    HW242055   6.240   5.382   0.006
10434SOL    HW342056   6.245   5.255   0.089
10434SOL    MW442057   6.284   5.315   0.038
10435SOL     OW42058   6.545   4.142   1.344
10435SOL    HW242059   6.464   4.183   1.372
10435SOL    HW342060   6.592   4.210   1.296
10435SOL    MW442061   6.540   4.157   1.342
10436SOL     OW42062   6.805   4.480   0.967
10436SOL    HW242063   6.818   4.574   0.977
10436SOL    HW342064   6.766   4.470   0.881
10436SOL    MW442065   6.801   4.491   0.957
10437SOL     OW42066   6.257   4.675   0.771
10437SOL    HW242067   6.168   4.666   0.804
10437SOL    HW342068   6.261   4.765   0.739
10437SOL    MW442069   6.246   4.686   0.771
10438SOL     OW42070   7.056   4.258   0.766
10438SOL    HW242071   7.001   4.179   0.765
10438SOL    HW342072   7.038   4.299   0.850
10438SOL    MW442073   7.046   4.253   0.775
10439SOL     OW42074   6.027   3.945   1.583
10439SOL    HW242075   5.948   3.963   1.635
10439SOL    HW342076   6.022   4.007   1.510
10439SOL    MW442077   6.017   3.955   1.580
10440SOL     OW42078   6.675   4.462   0.723
10440SOL    HW242079   6.612   4.394   0.747
10440SOL    HW342080   6.695   4.443   0.631
10440SOL    MW442081   6.669   4.449   0.715
10441SOL     OW42082   5.931   5.357   0.425
10441SOL    HW242083   5.892   5.404   0.351
10441SOL    HW342084   5.865   5.292   0.450
10441SOL    MW442085   5.918   5.355   0.419
10442SOL     OW42086   6.423   4.766   0.449
10442SOL    HW242087   6.425   4.740   0.356
10442SOL    HW342088   6.481   4.703   0.492
10442SOL    MW442089   6.431   4.755   0.443
10443SOL     OW42090   6.976   5.326   1.221
10443SOL    HW242091   6.901   5.372   1.259
10443SOL    HW342092   6.958   5.233   1.238
10443SOL    MW442093   6.965   5.320   1.229
10444SOL     OW42094   6.980   5.534   0.651
10444SOL    HW242095   6.923   5.487   0.590
10444SOL    HW342096   7.066   5.495   0.638
10444SOL    MW442097   6.983   5.525   0.641
10445SOL     OW42098   6.933   4.010   0.782
10445SOL    HW242099   6.961   3.942   0.843
10445SOL    HW342100   6.847   3.981   0.752
10445SOL    MW442101   6.926   3.997   0.786
10446SOL     OW42102   5.738   4.944   0.716
10446SOL    HW242103   5.802   4.976   0.779
10446SOL    HW342104   5.787   4.880   0.664
10446SOL    MW442105   5.753   4.940   0.717
10447SOL     OW42106   6.238   5.020   1.698
10447SOL    HW242107   6.286   5.103   1.685
10447SOL    HW342108   6.295   4.968   1.754
10447SOL    MW442109   6.252   5.024   1.704
10448SOL     OW42110   5.814   5.262   1.838
10448SOL    HW242111   5.870   5.186   1.853
10448SOL    HW342112   5.763   5.240   1.760
10448SOL    MW442113   5.814   5.249   1.829
10449SOL     OW42114   6.699   5.099   1.447
10449SOL    HW242115   6.610   5.105   1.415
10449SOL    HW342116   6.743   5.178   1.415
10449SOL    MW442117   6.694   5.109   1.439
10450SOL     OW42118   5.992   3.767   1.789
10450SOL    HW242119   5.920   3.732   1.737
10450SOL    HW342120   6.050   3.808   1.724
10450SOL    MW442121   5.990   3.768   1.774
10451SOL     OW42122   6.016   5.257   1.088
10451SOL    HW242123   6.061   5.319   1.145
10451SOL    HW342124   5.923   5.276   1.101
10451SOL    MW442125   6.009   5.267   1.095
10452SOL     OW42126   7.456   4.786   1.442
10452SOL    HW242127   7.371   4.799   1.401
10452SOL    HW342128   7.436   4.750   1.529
10452SOL    MW442129   7.443   4.782   1.447
10453SOL     OW42130   6.438   5.325   1.196
10453SOL    HW242131   6.462   5.314   1.105
10453SOL    HW342132   6.361   5.382   1.194
10453SOL    MW442133   6.430   5.330   1.185
10454SOL     OW42134   6.233   5.030   0.986
10454SOL    HW242135   6.226   5.009   1.080
10454SOL    HW342136   6.151   4.998   0.949
10454SOL    MW442137   6.221   5.024   0.993
10455SOL     OW42138   7.097   4.040   1.388
10455SOL    HW242139   7.044   4.042   1.468
10455SOL    HW342140   7.082   3.953   1.351
10455SOL    MW442141   7.089   4.030   1.393
10456SOL     OW42142   7.433   3.964   1.261
10456SOL    HW242143   7.414   4.031   1.196
10456SOL    HW342144   7.490   3.902   1.216
10456SOL    MW442145   7.437   3.965   1.247
10457SOL     OW42146   5.679   5.122   1.649
10457SOL    HW242147   5.723   5.055   1.595
10457SOL    HW342148   5.594   5.084   1.669
10457SOL    MW442149   5.674   5.108   1.645
10458SOL     OW42150   6.362   3.797   0.701
10458SOL    HW242151   6.291   3.858   0.683
10458SOL    HW342152   6.413   3.794   0.620
10458SOL    MW442153   6.358   3.803   0.688
10459SOL     OW42154   6.120   5.037   0.450
10459SOL    HW242155   6.113   5.069   0.540
10459SOL    HW342156   6.030   5.021   0.422
10459SOL    MW442157   6.108   5.039   0.457
10460SOL     OW42158   6.715   5.430   1.359
10460SOL    HW242159   6.635   5.415   1.309
10460SOL    HW342160   6.722   5.525   1.366
10460SOL    MW442161   6.706   5.441   1.353
10461SOL     OW42162   6.829   5.395   0.849
10461SOL    HW242163   6.876   5.468   0.808
10461SOL    HW342164   6.750   5.434   0.885
10461SOL    MW442165   6.824   5.410   0.848
10462SOL     OW42166   7.237   5.490   1.124
10462SOL    HW242167   7.280   5.460   1.204
10462SOL    HW342168   7.156   5.438   1.121
10462SOL    MW442169   7.232   5.479   1.134
10463SOL     OW42170   6.322   4.454   1.831
10463SOL    HW242171   6.392   4.396   1.803
10463SOL    HW342172   6.265   4.399   1.886
10463SOL    MW442173   6.324   4.441   1.835
10464SOL     OW42174   7.109   4.666   1.464
10464SOL    HW242175   7.114   4.719   1.544
10464SOL    HW342176   7.071   4.583   1.492
10464SOL    MW442177   7.105   4.661   1.479
10465SOL     OW42178   6.749   3.801   1.710
10465SOL    HW242179   6.744   3.708   1.691
10465SOL    HW342180   6.832   3.812   1.756
10465SOL    MW442181   6.757   3.790   1.714
10466SOL     OW42182   7.219   5.072   0.986
10466SOL    HW242183   7.254   5.054   0.899
10466SOL    HW342184   7.124   5.073   0.973
10466SOL    MW442185   7.211   5.069   0.973
10467SOL     OW42186   6.648   4.720   1.355
10467SOL    HW242187   6.691   4.755   1.433
10467SOL    HW342188   6.631   4.797   1.301
10467SOL    MW442189   6.651   4.735   1.358
10468SOL     OW42190   6.039   3.862   0.657
10468SOL    HW242191   6.089   3.905   0.588
10468SOL    HW342192   5.954   3.906   0.657
10468SOL    MW442193   6.036   3.875   0.648
10469SOL     OW42194   5.798   4.924   1.517
10469SOL    HW242195   5.826   4.877   1.595
10469SOL    HW342196   5.719   4.879   1.488
10469SOL    MW442197   5.791   4.913   1.523
10470SOL     OW42198   6.306   4.251   1.484
10470SOL    HW242199   6.278   4.339   1.508
10470SOL    HW342200   6.275   4.195   1.555
10470SOL    MW442201   6.298   4.254   1.496
10471SOL     OW42202   5.961   4.647   0.697
10471SOL    HW242203   6.019   4.703   0.645
10471SOL    HW342204   6.005   4.562   0.699
10471SOL    MW442205   5.974   4.644   0.690
10472SOL     OW42206   7.101   3.999   0.534
10472SOL    HW242207   7.023   3.949   0.559
10472SOL    HW342208   7.072   4.090   0.534
10472SOL    MW442209   7.087   4.003   0.537
10473SOL     OW42210   6.687   3.961   0.693
10473SOL    HW242211   6.707   4.036   0.637
10473SOL    HW342212   6.667   4.000   0.778
10473SOL    MW442213   6.688   3.977   0.697
10474SOL     OW42214   7.447   4.734   1.712
10474SOL    HW242215   7.360   4.714   1.748
10474SOL    HW342216   7.501   4.660   1.737
10474SOL    MW442217   7.442   4.723   1.720
10475SOL     OW42218   5.668   5.247   0.869
10475SOL    HW242219   5.700   5.251   0.960
10475SOL    HW342220   5.573   5.255   0.877
10475SOL    MW442221   5.660   5.250   0.882
10476SOL     OW42222   5.623   4.373   0.416
10476SOL    HW242223   5.563   4.345   0.486
10476SOL    HW342224   5.697   4.313   0.422
10476SOL    MW442225   5.625   4.362   0.425
10477SOL     OW42226   7.191   5.585   1.850
10477SOL    HW242227   7.236   5.509   1.815
10477SOL    HW342228   7.229   5.598   1.937
10477SOL    MW442229   7.201   5.578   1.856
10478SOL     OW42230   6.791   5.104   0.576
10478SOL    HW242231   6.814   5.055   0.654
10478SOL    HW342232   6.872   5.146   0.548
10478SOL    MW442233   6.804   5.104   0.583
10479SOL     OW42234   6.049   4.112   1.305
10479SOL    HW242235   6.082   4.193   1.345
10479SOL    HW342236   6.022   4.138   1.217
10479SOL    MW442237   6.048   4.126   1.299
10480SOL     OW42238   6.003   4.079   1.041
10480SOL    HW242239   6.033   3.993   1.012
10480SOL    HW342240   5.908   4.072   1.044
10480SOL    MW442241   5.995   4.068   1.039
10481SOL     OW42242   6.832   4.288   1.732
10481SOL    HW242243   6.884   4.223   1.685
10481SOL    HW342244   6.790   4.339   1.662
10481SOL    MW442245   6.833   4.285   1.715
10482SOL     OW42246   6.931   4.083   1.593
10482SOL    HW242247   6.838   4.067   1.580
10482SOL    HW342248   6.957   4.021   1.661
10482SOL    MW442249   6.921   4.073   1.600
10483SOL     OW42250   6.146   3.857   0.932
10483SOL    HW242251   6.156   3.766   0.958
10483SOL    HW342252   6.102   3.853   0.847
10483SOL    MW442253   6.142   3.845   0.924
10484SOL     OW42254   6.240   5.472   1.478
10484SOL    HW242255   6.157   5.457   1.523
10484SOL    HW342256   6.299   5.405   1.513
10484SOL    MW442257   6.238   5.462   1.488
10485SOL     OW42258   7.297   4.179   1.103
10485SOL    HW242259   7.230   4.212   1.163
10485SOL    HW342260   7.340   4.257   1.069
10485SOL    MW442261   7.295   4.194   1.107
10486SOL     OW42262   7.475   4.899   1.073
10486SOL    HW242263   7.468   4.839   0.998
10486SOL    HW342264   7.401   4.959   1.062
10486SOL    MW442265   7.465   4.899   1.062
10487SOL     OW42266   6.857   4.761   0.991
10487SOL    HW242267   6.871   4.733   1.082
10487SOL    HW342268   6.943   4.792   0.963
10487SOL    MW442269   6.870   4.762   1.000
10488SOL     OW42270   6.940   4.256   1.270
10488SOL    HW242271   6.961   4.257   1.177
10488SOL    HW342272   6.985   4.178   1.303
10488SOL    MW442273   6.947   4.246   1.262
10489SOL     OW42274   7.433   4.387   1.812
10489SOL    HW242275   7.470   4.332   1.881
10489SOL    HW342276   7.458   4.344   1.730
10489SOL    MW442277   7.440   4.375   1.811
10490SOL     OW42278   6.980   4.685   1.863
10490SOL    HW242279   7.046   4.633   1.817
10490SOL    HW342280   7.000   4.672   1.956
10490SOL    MW442281   6.991   4.676   1.870
10491SOL     OW42282   6.991   4.546   0.490
10491SOL    HW242283   6.906   4.516   0.460
10491SOL    HW342284   6.983   4.553   0.585
10491SOL    MW442285   6.979   4.544   0.499
10492SOL     OW42286   6.067   5.009   1.221
10492SOL    HW242287   6.079   5.036   1.312
10492SOL    HW342288   6.048   5.090   1.174
10492SOL    MW442289   6.066   5.024   1.226
10493SOL     OW42290   6.351   3.989   1.044
10493SOL    HW242291   6.324   3.991   1.135
10493SOL    HW342292   6.281   3.941   0.999
10493SOL    MW442293   6.339   3.985   1.051
10494SOL     OW42294   6.205   5.481   1.206
10494SOL    HW242295   6.257   5.558   1.183
10494SOL    HW342296   6.214   5.473   1.301
10494SOL    MW442297   6.214   5.488   1.217
10495SOL     OW42298   7.107   5.066   1.438
10495SOL    HW242299   7.092   4.995   1.501
10495SOL    HW342300   7.153   5.024   1.366
10495SOL    MW442301   7.113   5.050   1.438
10496SOL     OW42302   6.181   4.797   1.555
10496SOL    HW242303   6.218   4.802   1.467
10496SOL    HW342304   6.220   4.870   1.602
10496SOL    MW442305   6.191   4.807   1.550
10497SOL     OW42306   6.361   4.840   1.367
10497SOL    HW242307   6.420   4.786   1.420
10497SOL    HW342308   6.376   4.812   1.277
10497SOL    MW442309   6.371   4.829   1.363
10498SOL     OW42310   7.172   5.329   1.539
10498SOL    HW242311   7.214   5.314   1.624
10498SOL    HW342312   7.163   5.242   1.501
10498SOL    MW442313   7.176   5.317   1.546
10499SOL     OW42314   6.832   3.808   1.130
10499SOL    HW242315   6.887   3.817   1.052
10499SOL    HW342316   6.887   3.842   1.201
10499SOL    MW442317   6.846   3.813   1.129
10500SOL     OW42318   5.839   4.721   0.314
10500SOL    HW242319   5.776   4.737   0.243
10500SOL    HW342320   5.786   4.684   0.385
10500SOL    MW442321   5.824   4.718   0.314
10501SOL     OW42322   6.734   5.306   0.325
10501SOL    HW242323   6.742   5.224   0.276
10501SOL    HW342324   6.653   5.345   0.292
10501SOL    MW442325   6.724   5.301   0.315
10502SOL     OW42326   5.993   5.464   0.894
10502SOL    HW242327   5.997   5.375   0.929
10502SOL    HW342328   6.019   5.455   0.803
10502SOL    MW442329   5.996   5.452   0.886
10503SOL     OW42330   6.610   4.942   1.137
10503SOL    HW242331   6.542   4.876   1.153
10503SOL    HW342332   6.628   4.936   1.044
10503SOL    MW442333   6.603   4.933   1.128
10504SOL     OW42334   5.699   5.217   1.388
10504SOL    HW242335   5.689   5.175   1.474
10504SOL    HW342336   5.620   5.270   1.378
10504SOL    MW442337   5.688   5.218   1.399
10505SOL     OW42338   6.603   4.081   0.958
10505SOL    HW242339   6.533   4.033   1.003
10505SOL    HW342340   6.635   4.144   1.022
10505SOL    MW442341   6.598   4.083   0.972
10506SOL     OW42342   6.254   4.517   1.578
10506SOL    HW242343   6.247   4.612   1.566
10506SOL    HW342344   6.263   4.506   1.673
10506SOL    MW442345   6.255   4.529   1.588
10507SOL     OW42346   5.975   5.032   1.836
10507SOL    HW242347   6.047   5.034   1.773
10507SOL    HW342348   5.945   4.941   1.835
10507SOL    MW442349   5.980   5.021   1.828
10508SOL     OW42350   7.059   3.795   1.303
10508SOL    HW242351   7.130   3.741   1.267
10508SOL    HW342352   7.058   3.774   1.396
10508SOL    MW442353   7.068   3.786   1.311
10509SOL     OW42354   7.259   5.325   1.787
10509SOL    HW242355   7.232   5.322   1.878
10509SOL    HW342356   7.355   5.329   1.790
10509SOL    MW442357   7.269   5.325   1.799
10510SOL     OW42358   6.070   4.187   0.771
10510SOL    HW242359   6.141   4.135   0.734
10510SOL    HW342360   6.056   4.152   0.858
10510SOL    MW442361   6.078   4.176   0.778
10511SOL     OW42362   5.625   5.522   1.843
10511SOL    HW242363   5.675   5.500   1.765
10511SOL    HW342364   5.633   5.617   1.851
10511SOL    MW442365   5.633   5.531   1.834
10512SOL     OW42366   6.386   5.280   0.847
10512SOL    HW242367   6.314   5.217   0.860
10512SOL    HW342368   6.347   5.365   0.865
10512SOL    MW442369   6.370   5.283   0.850
10513SOL     OW42370   6.706   4.128   0.495
10513SOL    HW242371   6.728   4.065   0.427
10513SOL    HW342372   6.611   4.120   0.506
10513SOL    MW442373   6.696   4.119   0.487
10514SOL     OW42374   5.791   3.818   0.427
10514SOL    HW242375   5.862   3.839   0.366
10514SOL    HW342376   5.745   3.746   0.385
10514SOL    MW442377   5.795   3.812   0.413
10515SOL     OW42378   5.622   4.285   1.570
10515SOL    HW242379   5.686   4.351   1.545
10515SOL    HW342380   5.541   4.312   1.527
10515SOL    MW442381   5.620   4.297   1.562
10516SOL     OW42382   7.360   5.192   0.527
10516SOL    HW242383   7.330   5.125   0.588
10516SOL    HW342384   7.454   5.198   0.541
10516SOL    MW442385   7.368   5.184   0.537
10517SOL     OW42386   6.916   4.869   0.457
10517SOL    HW242387   6.888   4.955   0.490
10517SOL    HW342388   6.944   4.885   0.367
10517SOL    MW442389   6.916   4.883   0.449
10518SOL     OW42390   6.578   3.789   0.510
10518SOL    HW242391   6.615   3.848   0.575
10518SOL    HW342392   6.555   3.845   0.436
10518SOL    MW442393   6.579   3.804   0.509
10519SOL     OW42394   7.431   4.671   0.932
10519SOL    HW242395   7.422   4.703   0.843
10519SOL    HW342396   7.384   4.587   0.932
10519SOL    MW442397   7.424   4.664   0.922
10520SOL     OW42398   5.807   4.511   1.511
10520SOL    HW242399   5.828   4.580   1.449
10520SOL    HW342400   5.887   4.458   1.516
10520SOL    MW442401   5.820   4.512   1.505
10521SOL     OW42402   7.343   4.602   0.633
10521SOL    HW242403   7.437   4.591   0.621
10521SOL    HW342404   7.319   4.674   0.574
10521SOL    MW442405   7.353   4.610   0.624
10522SOL     OW42406   5.792   4.526   1.778
10522SOL    HW242407   5.718   4.470   1.804
10522SOL    HW342408   5.787   4.529   1.683
10522SOL    MW442409   5.781   4.519   1.768
10523SOL     OW42410   5.958   3.813   1.228
10523SOL    HW242411   6.001   3.897   1.248
10523SOL    HW342412   6.031   3.751   1.221
10523SOL    MW442413   5.973   3.816   1.229
10524SOL     OW42414   6.775   4.339   1.470
10524SOL    HW242415   6.811   4.312   1.386
10524SOL    HW342416   6.688   4.373   1.449
10524SOL    MW442417   6.769   4.340   1.457
10525SOL     OW42418   5.758   4.211   0.695
10525SOL    HW242419   5.820   4.218   0.768
10525SOL    HW342420   5.758   4.118   0.672
10525SOL    MW442421   5.766   4.200   0.702
10526SOL     OW42422   6.440   4.472   1.179
10526SOL    HW242423   6.398   4.390   1.155
10526SOL    HW342424   6.441   4.471   1.275
10526SOL    MW442425   6.433   4.461   1.188
10527SOL     OW42426   7.111   5.605   1.578
10527SOL    HW242427   7.114   5.511   1.561
10527SOL    HW342428   7.134   5.613   1.670
10527SOL    MW442429   7.114   5.593   1.588
10528SOL     OW42430   6.244   3.942   1.284
10528SOL    HW242431   6.175   4.005   1.305
10528SOL    HW342432   6.271   3.906   1.369
10528SOL    MW442433   6.238   3.945   1.297
10529SOL     OW42434   7.039   3.795   0.901
10529SOL    HW242435   7.127   3.804   0.938
10529SOL    HW342436   7.049   3.736   0.827
10529SOL    MW442437   7.053   3.789   0.895
10530SOL     OW42438   7.071   4.534   0.745
10530SOL    HW242439   7.151   4.549   0.694
10530SOL    HW342440   7.064   4.439   0.751
10530SOL    MW442441   7.080   4.523   0.740
10531SOL     OW42442   6.521   4.460   1.442
10531SOL    HW242443   6.590   4.527   1.439
10531SOL    HW342444   6.454   4.498   1.498
10531SOL    MW442445   6.522   4.473   1.449
10532SOL     OW42446   5.939   4.760   1.690
10532SOL    HW242447   5.893   4.676   1.692
10532SOL    HW342448   5.996   4.754   1.614
10532SOL    MW442449   5.941   4.748   1.682
10533SOL     OW42450   6.190   5.135   0.691
10533SOL    HW242451   6.255   5.068   0.712
10533SOL    HW342452   6.242   5.212   0.668
10533SOL    MW442453   6.205   5.137   0.690
10534SOL     OW42454   6.451   4.300   0.821
10534SOL    HW242455   6.391   4.318   0.893
10534SOL    HW342456   6.485   4.212   0.840
10534SOL    MW442457   6.447   4.290   0.834
10535SOL     OW42458   7.392   3.799   1.490
10535SOL    HW242459   7.313   3.845   1.518
10535SOL    HW342460   7.427   3.853   1.419
10535SOL    MW442461   7.386   3.812   1.484
10536SOL     OW42462   6.676   4.883   0.840
10536SOL    HW242463   6.768   4.864   0.858
10536SOL    HW342464   6.649   4.813   0.780
10536SOL    MW442465   6.684   4.871   0.834
10537SOL     OW42466   6.950   5.121   0.936
10537SOL    HW242467   6.923   5.205   0.901
10537SOL    HW342468   6.910   5.116   1.023
10537SOL    MW442469   6.943   5.130   0.942
10538SOL     OW42470   6.869   5.069   1.204
10538SOL    HW242471   6.880   5.036   1.293
10538SOL    HW342472   6.788   5.028   1.173
10538SOL    MW442473   6.859   5.061   1.210
10539SOL     OW42474   5.882   4.427   0.974
10539SOL    HW242475   5.832   4.426   1.055
10539SOL    HW342476   5.902   4.519   0.958
10539SOL    MW442477   5.878   4.439   0.982
10540SOL     OW42478   6.949   5.191   1.736
10540SOL    HW242479   6.949   5.285   1.752
10540SOL    HW342480   6.994   5.181   1.652
10540SOL    MW442481   6.955   5.201   1.727
10541SOL     OW42482   7.188   3.909   0.297
10541SOL    HW242483   7.181   3.913   0.392
10541SOL    HW342484   7.200   4.000   0.270
10541SOL    MW442485   7.189   3.922   0.305
10542SOL     OW42486   5.804   4.095   1.715
10542SOL    HW242487   5.761   4.154   1.652
10542SOL    HW342488   5.872   4.150   1.755
10542SOL    MW442489   5.808   4.110   1.712
10543SOL     OW42490   6.916   4.715   1.260
10543SOL    HW242491   6.979   4.712   1.333
10543SOL    HW342492   6.832   4.733   1.302
10543SOL    MW442493   6.912   4.717   1.275
10544SOL     OW42494   6.460   5.430   0.449
10544SOL    HW242495   6.518   5.501   0.476
10544SOL    HW342496   6.483   5.358   0.507
10544SOL    MW442497   6.471   5.430   0.460
10545SOL     OW42498   7.255   3.892   1.039
10545SOL    HW242499   7.300   3.810   1.058
10545SOL    HW342500   7.275   3.948   1.115
10545SOL    MW442501   7.265   3.888   1.051
10546SOL     OW42502   5.703   3.735   1.138
10546SOL    HW242503   5.694   3.736   1.043
10546SOL    HW342504   5.797   3.747   1.153
10546SOL    MW442505   5.715   3.738   1.129
10547SOL     OW42506   7.340   4.928   0.758
10547SOL    HW242507   7.319   4.874   0.681
10547SOL    HW342508   7.436   4.926   0.762
10547SOL    MW442509   7.349   4.921   0.747
10548SOL     OW42510   6.032   5.073   1.501
10548SOL    HW242511   5.953   5.023   1.524
10548SOL    HW342512   6.102   5.032   1.551
10548SOL    MW442513   6.030   5.061   1.511
10549SOL     OW42514   7.040   4.359   1.020
10549SOL    HW242515   6.963   4.405   0.986
10549SOL    HW342516   7.097   4.428   1.054
10549SOL    MW442517   7.037   4.374   1.020
10550SOL     OW42518   6.978   5.307   0.439
10550SOL    HW242519   7.041   5.297   0.368
10550SOL    HW342520   6.895   5.327   0.394
10550SOL    MW442521   6.975   5.308   0.424
10551SOL     OW42522   7.341   4.575   2.125
10551SOL    HW242523   7.382   4.517   2.190
10551SOL    HW342524   7.248   4.567   2.142
10551SOL    MW442525   7.335   4.567   2.135
10552SOL     OW42526   7.207   4.507   3.120
10552SOL    HW242527   7.162   4.574   3.171
10552SOL    HW342528   7.295   4.543   3.106
10552SOL    MW442529   7.213   4.520   3.124
10553SOL     OW42530   6.135   4.758   2.354
10553SOL    HW242531   6.225   4.733   2.338
10553SOL    HW342532   6.131   4.851   2.331
10553SOL    MW442533   6.147   4.767   2.349
10554SOL     OW42534   7.251   5.461   2.496
10554SOL    HW242535   7.263   5.407   2.574
10554SOL    HW342536   7.288   5.409   2.425
10554SOL    MW442537   7.257   5.446   2.497
10555SOL     OW42538   6.630   5.346   3.497
10555SOL    HW242539   6.671   5.382   3.418
10555SOL    HW342540   6.665   5.257   3.504
10555SOL    MW442541   6.641   5.339   3.488
10556SOL     OW42542   7.187   4.901   3.101
10556SOL    HW242543   7.108   4.866   3.059
10556SOL    HW342544   7.214   4.973   3.045
10556SOL    MW442545   7.180   4.906   3.088
10557SOL     OW42546   6.419   4.214   2.367
10557SOL    HW242547   6.394   4.302   2.395
10557SOL    HW342548   6.416   4.217   2.271
10557SOL    MW442549   6.415   4.226   2.359
10558SOL     OW42550   5.861   4.242   2.295
10558SOL    HW242551   5.893   4.330   2.277
10558SOL    HW342552   5.849   4.240   2.390
10558SOL    MW442553   5.864   4.254   2.307
10559SOL     OW42554   5.939   4.655   3.196
10559SOL    HW242555   6.002   4.602   3.147
10559SOL    HW342556   5.920   4.729   3.139
10559SOL    MW442557   5.945   4.657   3.183
10560SOL     OW42558   6.260   3.997   2.382
10560SOL    HW242559   6.318   4.073   2.384
10560SOL    HW342560   6.195   4.018   2.315
10560SOL    MW442561   6.259   4.009   2.373
10561SOL     OW42562   6.347   4.924   2.557
10561SOL    HW242563   6.427   4.927   2.609
10561SOL    HW342564   6.375   4.891   2.471
10561SOL    MW442565   6.361   4.920   2.552
10562SOL     OW42566   6.372   5.265   3.460
10562SOL    HW242567   6.456   5.291   3.499
10562SOL    HW342568   6.396   5.209   3.386
10562SOL    MW442569   6.386   5.261   3.455
10563SOL     OW42570   6.124   4.428   2.548
10563SOL    HW242571   6.109   4.348   2.599
10563SOL    HW342572   6.206   4.463   2.582
10563SOL    MW442573   6.132   4.420   2.560
10564SOL     OW42574   6.461   5.114   3.233
10564SOL    HW242575   6.425   5.180   3.173
10564SOL    HW342576   6.389   5.052   3.246
10564SOL    MW442577   6.447   5.114   3.227
10565SOL     OW42578   6.266   4.254   2.925
10565SOL    HW242579   6.172   4.250   2.943
10565SOL    HW342580   6.296   4.163   2.934
10565SOL    MW442581   6.257   4.242   2.928
10566SOL     OW42582   6.012   4.668   2.829
10566SOL    HW242583   5.967   4.675   2.745
10566SOL    HW342584   5.992   4.751   2.873
10566SOL    MW442585   6.004   4.680   2.823
10567SOL     OW42586   5.709   5.514   2.704
10567SOL    HW242587   5.798   5.506   2.739
10567SOL    HW342588   5.673   5.426   2.709
10567SOL    MW442589   5.716   5.501   2.709
10568SOL     OW42590   6.974   4.906   2.073
10568SOL    HW242591   6.892   4.942   2.039
10568SOL    HW342592   7.042   4.949   2.022
10568SOL    MW442593   6.972   4.916   2.061
10569SOL     OW42594   5.973   5.041   2.739
10569SOL    HW242595   5.949   5.094   2.815
10569SOL    HW342596   6.029   5.099   2.687
10569SOL    MW442597   5.977   5.056   2.742
10570SOL     OW42598   6.535   4.685   2.549
10570SOL    HW242599   6.449   4.672   2.589
10570SOL    HW342600   6.588   4.612   2.581
10570SOL    MW442601   6.531   4.674   2.558
10571SOL     OW42602   5.943   5.337   3.334
10571SOL    HW242603   5.851   5.313   3.319
10571SOL    HW342604   5.987   5.254   3.351
10571SOL    MW442605   5.937   5.322   3.333
10572SOL     OW42606   6.526   5.047   2.266
10572SOL    HW242607   6.503   5.109   2.334
10572SOL    HW342608   6.483   4.965   2.292
10572SOL    MW442609   6.518   5.043   2.277
10573SOL     OW42610   7.399   4.048   2.722
10573SOL    HW242611   7.336   4.028   2.791
10573SOL    HW342612   7.389   3.977   2.659
10573SOL    MW442613   7.389   4.035   2.723
10574SOL     OW42614   6.023   4.020   2.234
10574SOL    HW242615   5.997   3.982   2.150
10574SOL    HW342616   5.960   4.090   2.250
10574SOL    MW442617   6.012   4.023   2.225
10575SOL     OW42618   5.858   4.981   2.271
10575SOL    HW242619   5.806   5.049   2.227
10575SOL    HW342620   5.855   4.907   2.211
10575SOL    MW442621   5.850   4.980   2.258
10576SOL     OW42622   6.520   5.444   2.049
10576SOL    HW242623   6.475   5.460   2.132
10576SOL    HW342624   6.451   5.409   1.991
10576SOL    MW442625   6.506   5.441   2.051
10577SOL     OW42626   7.455   4.217   2.024
10577SOL    HW242627   7.364   4.219   2.052
10577SOL    HW342628   7.500   4.279   2.082
10577SOL    MW442629   7.448   4.225   2.034
10578SOL     OW42630   7.200   4.820   2.374
10578SOL    HW242631   7.110   4.820   2.409
10578SOL    HW342632   7.193   4.866   2.291
10578SOL    MW442633   7.187   4.826   2.368
10579SOL     OW42634   7.000   4.455   3.446
10579SOL    HW242635   7.069   4.393   3.423
10579SOL    HW342636   6.925   4.429   3.393
10579SOL    MW442637   7.000   4.442   3.437
10580SOL     OW42638   5.741   5.335   2.998
10580SOL    HW242639   5.724   5.281   3.075
10580SOL    HW342640   5.729   5.425   3.028
10580SOL    MW442641   5.738   5.339   3.012
10581SOL     OW42642   6.736   4.842   3.438
10581SOL    HW242643   6.721   4.935   3.423
10581SOL    HW342644   6.831   4.832   3.438
10581SOL    MW442645   6.745   4.852   3.435
10582SOL     OW42646   6.532   4.266   3.639
10582SOL    HW242647   6.622   4.267   3.606
10582SOL    HW342648   6.491   4.191   3.597
10582SOL    MW442649   6.538   4.256   3.630
10583SOL     OW42650   7.107   4.798   2.766
10583SOL    HW242651   7.110   4.732   2.697
10583SOL    HW342652   7.192   4.841   2.762
10583SOL    MW442653   7.119   4.794   2.757
10584SOL     OW42654   6.727   4.401   2.335
10584SOL    HW242655   6.753   4.425   2.246
10584SOL    HW342656   6.709   4.308   2.331
10584SOL    MW442657   6.729   4.393   2.322
10585SOL     OW42658   7.392   5.021   2.186
10585SOL    HW242659   7.348   5.062   2.261
10585SOL    HW342660   7.449   5.089   2.151
10585SOL    MW442661   7.394   5.035   2.191
10586SOL     OW42662   6.312   4.070   3.589
10586SOL    HW242663   6.322   3.996   3.529
10586SOL    HW342664   6.348   4.039   3.672
10586SOL    MW442665   6.318   4.056   3.591
10587SOL     OW42666   6.048   5.437   2.504
10587SOL    HW242667   6.080   5.525   2.482
10587SOL    HW342668   6.001   5.409   2.426
10587SOL    MW442669   6.047   5.445   2.491
10588SOL     OW42670   7.432   3.799   2.553
10588SOL    HW242671   7.486   3.750   2.615
10588SOL    HW342672   7.375   3.733   2.514
10588SOL    MW442673   7.432   3.783   2.555
10589SOL     OW42674   5.764   5.497   2.081
10589SOL    HW242675   5.793   5.587   2.073
10589SOL    HW342676   5.714   5.480   2.002
10589SOL    MW442677   5.762   5.505   2.070
10590SOL     OW42678   6.551   3.752   2.966
10590SOL    HW242679   6.510   3.830   2.928
10590SOL    HW342680   6.645   3.770   2.961
10590SOL    MW442681   6.557   3.764   2.961
10591SOL     OW42682   7.168   5.305   2.052
10591SOL    HW242683   7.216   5.374   2.098
10591SOL    HW342684   7.089   5.349   2.021
10591SOL    MW442685   7.163   5.319   2.055
10592SOL     OW42686   6.566   4.430   1.996
10592SOL    HW242687   6.568   4.377   1.917
10592SOL    HW342688   6.654   4.467   2.002
10592SOL    MW442689   6.578   4.429   1.985
10593SOL     OW42690   7.180   4.356   2.332
10593SOL    HW242691   7.219   4.356   2.419
10593SOL    HW342692   7.121   4.432   2.332
10593SOL    MW442693   7.177   4.367   2.343
10594SOL     OW42694   6.497   4.723   3.461
10594SOL    HW242695   6.474   4.703   3.551
10594SOL    HW342696   6.582   4.767   3.466
10594SOL    MW442697   6.504   4.726   3.473
10595SOL     OW42698   6.577   3.860   3.221
10595SOL    HW242699   6.583   3.822   3.134
10595SOL    HW342700   6.566   3.954   3.206
10595SOL    MW442701   6.578   3.868   3.209
10596SOL     OW42702   6.666   4.349   3.055
10596SOL    HW242703   6.741   4.378   3.002
10596SOL    HW342704   6.598   4.414   3.039
10596SOL    MW442705   6.667   4.361   3.045
10597SOL     OW42706   7.216   4.317   3.332
10597SOL    HW242707   7.197   4.226   3.311
10597SOL    HW342708   7.194   4.366   3.253
10597SOL    MW442709   7.211   4.310   3.319
10598SOL     OW42710   7.358   5.411   3.236
10598SOL    HW242711   7.286   5.373   3.287
10598SOL    HW342712   7.375   5.496   3.277
10598SOL    MW442713   7.352   5.416   3.248
10599SOL     OW42714   6.663   4.055   3.438
10599SOL    HW242715   6.629   4.094   3.357
10599SOL    HW342716   6.641   3.963   3.431
10599SOL    MW442717   6.656   4.048   3.428
10600SOL     OW42718   7.072   4.869   3.514
10600SOL    HW242719   7.154   4.910   3.544
10600SOL    HW342720   7.035   4.831   3.594
10600SOL    MW442721   7.078   4.870   3.529
10601SOL     OW42722   7.367   4.242   2.498
10601SOL    HW242723   7.456   4.211   2.515
10601SOL    HW342724   7.310   4.182   2.546
10601SOL    MW442725   7.370   4.230   2.507
10602SOL     OW42726   5.793   3.956   2.527
10602SOL    HW242727   5.784   3.896   2.453
10602SOL    HW342728   5.726   3.927   2.590
10602SOL    MW442729   5.783   3.943   2.525
10603SOL     OW42730   6.736   5.049   2.088
10603SOL    HW242731   6.686   5.051   2.170
10603SOL    HW342732   6.670   5.067   2.020
10603SOL    MW442733   6.722   5.051   2.090
10604SOL     OW42734   5.740   4.129   2.890
10604SOL    HW242735   5.712   4.220   2.899
10604SOL    HW342736   5.677   4.090   2.829
10604SOL    MW442737   5.727   4.135   2.884
10605SOL     OW42738   6.199   5.467   2.196
10605SOL    HW242739   6.120   5.425   2.229
10605SOL    HW342740   6.265   5.450   2.263
10605SOL    MW442741   6.198   5.459   2.209
10606SOL     OW42742   7.327   4.987   3.593
10606SOL    HW242743   7.377   4.913   3.625
10606SOL    HW342744   7.273   5.014   3.668
10606SOL    MW442745   7.327   4.981   3.606
10607SOL     OW42746   6.335   4.882   1.903
10607SOL    HW242747   6.257   4.828   1.890
10607SOL    HW342748   6.306   4.955   1.956
10607SOL    MW442749   6.321   4.884   1.908
10608SOL     OW42750   7.461   4.622   3.095
10608SOL    HW242751   7.477   4.660   3.008
10608SOL    HW342752   7.495   4.688   3.156
10608SOL    MW442753   7.468   4.635   3.091
10609SOL     OW42754   7.253   5.331   2.764
10609SOL    HW242755   7.282   5.398   2.825
10609SOL    HW342756   7.234   5.255   2.819
10609SOL    MW442757   7.255   5.331   2.779
10610SOL     OW42758   6.916   5.398   1.971
10610SOL    HW242759   6.842   5.361   2.021
10610SOL    HW342760   6.924   5.488   2.004
10610SOL    MW442761   6.907   5.405   1.983
10611SOL     OW42762   5.724   4.404   3.060
10611SOL    HW242763   5.786   4.434   3.126
10611SOL    HW342764   5.658   4.473   3.054
10611SOL    MW442765   5.723   4.417   3.067
10612SOL     OW42766   7.140   5.072   1.913
10612SOL    HW242767   7.087   5.121   1.849
10612SOL    HW342768   7.171   5.138   1.974
10612SOL    MW442769   7.138   5.086   1.911
10613SOL     OW42770   6.365   3.961   1.968
10613SOL    HW242771   6.313   3.881   1.956
10613SOL    HW342772   6.452   3.938   1.936
10613SOL    MW442773   6.368   3.947   1.962
10614SOL     OW42774   5.819   5.513   3.512
10614SOL    HW242775   5.793   5.581   3.450
10614SOL    HW342776   5.867   5.450   3.460
10614SOL    MW442777   5.821   5.513   3.498
10615SOL     OW42778   5.871   4.832   3.019
10615SOL    HW242779   5.924   4.907   3.044
10615SOL    HW342780   5.790   4.870   2.985
10615SOL    MW442781   5.867   4.847   3.019
10616SOL     OW42782   6.411   4.736   3.007
10616SOL    HW242783   6.439   4.645   3.019
10616SOL    HW342784   6.340   4.730   2.943
10616SOL    MW442785   6.404   4.724   3.002
10617SOL     OW42786   5.726   4.601   2.425
10617SOL    HW242787   5.817   4.616   2.452
10617SOL    HW342788   5.729   4.522   2.371
10617SOL    MW442789   5.738   4.593   2.423
10618SOL     OW42790   5.962   4.309   3.679
10618SOL    HW242791   5.909   4.389   3.686
10618SOL    HW342792   6.032   4.321   3.744
10618SOL    MW442793   5.964   4.322   3.687
10619SOL     OW42794   6.348   3.859   3.386
10619SOL    HW242795   6.325   3.767   3.388
10619SOL    HW342796   6.434   3.861   3.343
10619SOL    MW442797   6.355   3.849   3.382
10620SOL     OW42798   6.032   4.383   3.425
10620SOL    HW242799   6.112   4.433   3.411
10620SOL    HW342800   6.023   4.377   3.520
10620SOL    MW442801   6.041   4.389   3.435
10621SOL     OW42802   6.353   5.533   2.799
10621SOL    HW242803   6.442   5.548   2.829
10621SOL    HW342804   6.348   5.580   2.715
10621SOL    MW442805   6.363   5.541   2.792
10622SOL     OW42806   7.009   3.908   3.696
10622SOL    HW242807   7.065   3.835   3.722
10622SOL    HW342808   6.979   3.946   3.778
10622SOL    MW442809   7.013   3.903   3.709
10623SOL     OW42810   5.734   5.213   2.464
10623SOL    HW242811   5.706   5.252   2.546
10623SOL    HW342812   5.754   5.122   2.486
10623SOL    MW442813   5.732   5.205   2.477
10624SOL     OW42814   6.567   5.256   2.499
10624SOL    HW242815   6.650   5.210   2.483
10624SOL    HW342816   6.557   5.255   2.595
10624SOL    MW442817   6.577   5.249   2.509
10625SOL     OW42818   7.399   4.401   2.813
10625SOL    HW242819   7.488   4.431   2.795
10625SOL    HW342820   7.379   4.341   2.742
10625SOL    MW442821   7.408   4.398   2.802
10626SOL     OW42822   7.250   4.580   3.693
10626SOL    HW242823   7.305   4.504   3.674
10626SOL    HW342824   7.252   4.588   3.788
10626SOL    MW442825   7.258   4.571   3.701
10627SOL     OW42826   6.300   5.313   1.904
10627SOL    HW242827   6.240   5.382   1.874
10627SOL    HW342828   6.245   5.255   1.957
10627SOL    MW442829   6.284   5.315   1.906
10628SOL     OW42830   6.738   3.958   2.127
10628SOL    HW242831   6.671   3.934   2.064
10628SOL    HW342832   6.803   4.007   2.076
10628SOL    MW442833   6.738   3.960   2.112
10629SOL     OW42834   6.545   4.142   3.212
10629SOL    HW242835   6.464   4.183   3.240
10629SOL    HW342836   6.592   4.210   3.164
10629SOL    MW442837   6.540   4.157   3.210
10630SOL     OW42838   6.805   4.480   2.835
10630SOL    HW242839   6.818   4.574   2.845
10630SOL    HW342840   6.766   4.470   2.749
10630SOL    MW442841   6.801   4.491   2.825
10631SOL     OW42842   6.257   4.675   2.639
10631SOL    HW242843   6.168   4.666   2.672
10631SOL    HW342844   6.261   4.765   2.607
10631SOL    MW442845   6.246   4.686   2.639
10632SOL     OW42846   7.056   4.258   2.634
10632SOL    HW242847   7.001   4.179   2.633
10632SOL    HW342848   7.038   4.299   2.718
10632SOL    MW442849   7.046   4.253   2.643
10633SOL     OW42850   6.027   3.945   3.451
10633SOL    HW242851   5.948   3.963   3.503
10633SOL    HW342852   6.022   4.007   3.378
10633SOL    MW442853   6.017   3.955   3.448
10634SOL     OW42854   6.675   4.462   2.591
10634SOL    HW242855   6.612   4.394   2.615
10634SOL    HW342856   6.695   4.443   2.499
10634SOL    MW442857   6.669   4.449   2.583
10635SOL     OW42858   5.931   5.357   2.293
10635SOL    HW242859   5.892   5.404   2.219
10635SOL    HW342860   5.865   5.292   2.318
10635SOL    MW442861   5.918   5.355   2.287
10636SOL     OW42862   6.423   4.766   2.317
10636SOL    HW242863   6.425   4.740   2.224
10636SOL    HW342864   6.481   4.703   2.360
10636SOL    MW442865   6.431   4.755   2.311
10637SOL     OW42866   6.976   5.326   3.089
10637SOL    HW242867   6.901   5.372   3.127
10637SOL    HW342868   6.958   5.233   3.106
10637SOL    MW442869   6.965   5.320   3.097
10638SOL     OW42870   6.980   5.534   2.519
10638SOL    HW242871   6.923   5.487   2.458
10638SOL    HW342872   7.066   5.495   2.506
10638SOL    MW442873   6.983   5.525   2.509
10639SOL     OW42874   6.933   4.010   2.650
10639SOL    HW242875   6.961   3.942   2.711
10639SOL    HW342876   6.847   3.981   2.620
10639SOL    MW442877   6.926   3.997   2.654
10640SOL     OW42878   5.738   4.944   2.584
10640SOL    HW242879   5.802   4.976   2.647
10640SOL    HW342880   5.787   4.880   2.532
10640SOL    MW442881   5.753   4.940   2.585
10641SOL     OW42882   6.238   5.020   3.566
10641SOL    HW242883   6.286   5.103   3.553
10641SOL    HW342884   6.295   4.968   3.622
10641SOL    MW442885   6.252   5.024   3.572
10642SOL     OW42886   5.814   5.262   3.706
10642SOL    HW242887   5.870   5.186   3.721
10642SOL    HW342888   5.763   5.240   3.628
10642SOL    MW442889   5.814   5.249   3.697
10643SOL     OW42890   6.913   4.114   1.985
10643SOL    HW242891   6.886   4.180   1.921
10643SOL    HW342892   6.983   4.157   2.035
10643SOL    MW442893   6.918   4.127   1.982
10644SOL     OW42894   6.581   3.819   1.922
10644SOL    HW242895   6.637   3.811   1.844
10644SOL    HW342896   6.558   3.729   1.944
10644SOL    MW442897   6.586   3.806   1.915
10645SOL     OW42898   7.086   4.670   2.127
10645SOL    HW242899   7.053   4.759   2.117
10645SOL    HW342900   7.051   4.641   2.212
10645SOL    MW442901   7.076   4.679   2.138
10646SOL     OW42902   6.699   5.099   3.315
10646SOL    HW242903   6.610   5.105   3.283
10646SOL    HW342904   6.743   5.178   3.283
10646SOL    MW442905   6.694   5.109   3.307
10647SOL     OW42906   5.992   3.767   3.657
10647SOL    HW242907   5.920   3.732   3.605
10647SOL    HW342908   6.050   3.808   3.592
10647SOL    MW442909   5.990   3.768   3.642
10648SOL     OW42910   6.016   5.257   2.956
10648SOL    HW242911   6.061   5.319   3.013
10648SOL    HW342912   5.923   5.276   2.969
10648SOL    MW442913   6.009   5.267   2.963
10649SOL     OW42914   7.456   4.786   3.310
10649SOL    HW242915   7.371   4.799   3.269
10649SOL    HW342916   7.436   4.750   3.397
10649SOL    MW442917   7.443   4.782   3.315
10650SOL     OW42918   6.438   5.325   3.064
10650SOL    HW242919   6.462   5.314   2.973
10650SOL    HW342920   6.361   5.382   3.062
10650SOL    MW442921   6.430   5.330   3.053
10651SOL     OW42922   6.080   4.708   1.919
10651SOL    HW242923   6.003   4.721   1.975
10651SOL    HW342924   6.044   4.672   1.838
10651SOL    MW442925   6.066   4.704   1.916
10652SOL     OW42926   6.733   4.681   2.162
10652SOL    HW242927   6.643   4.702   2.137
10652SOL    HW342928   6.760   4.754   2.218
10652SOL    MW442929   6.725   4.693   2.165
10653SOL     OW42930   6.233   5.030   2.854
10653SOL    HW242931   6.226   5.009   2.948
10653SOL    HW342932   6.151   4.998   2.817
10653SOL    MW442933   6.221   5.024   2.861
10654SOL     OW42934   7.097   4.040   3.256
10654SOL    HW242935   7.044   4.042   3.336
10654SOL    HW342936   7.082   3.953   3.219
10654SOL    MW442937   7.089   4.030   3.261
10655SOL     OW42938   7.433   3.964   3.129
10655SOL    HW242939   7.414   4.031   3.064
10655SOL    HW342940   7.490   3.902   3.084
10655SOL    MW442941   7.437   3.965   3.115
10656SOL     OW42942   5.679   5.122   3.517
10656SOL    HW242943   5.723   5.055   3.463
10656SOL    HW342944   5.594   5.084   3.537
10656SOL    MW442945   5.674   5.108   3.513
10657SOL     OW42946   6.362   3.797   2.569
10657SOL    HW242947   6.291   3.858   2.551
10657SOL    HW342948   6.413   3.794   2.488
10657SOL    MW442949   6.358   3.803   2.556
10658SOL     OW42950   6.120   5.037   2.318
10658SOL    HW242951   6.113   5.069   2.408
10658SOL    HW342952   6.030   5.021   2.290
10658SOL    MW442953   6.108   5.039   2.325
10659SOL     OW42954   6.715   5.430   3.227
10659SOL    HW242955   6.635   5.415   3.177
10659SOL    HW342956   6.722   5.525   3.234
10659SOL    MW442957   6.706   5.441   3.221
10660SOL     OW42958   6.829   5.395   2.717
10660SOL    HW242959   6.876   5.468   2.676
10660SOL    HW342960   6.750   5.434   2.753
10660SOL    MW442961   6.824   5.410   2.716
10661SOL     OW42962   7.237   5.490   2.992
10661SOL    HW242963   7.280   5.460   3.072
10661SOL    HW342964   7.156   5.438   2.989
10661SOL    MW442965   7.232   5.479   3.002
10662SOL     OW42966   6.322   4.454   3.699
10662SOL    HW242967   6.392   4.396   3.671
10662SOL    HW342968   6.265   4.399   3.754
10662SOL    MW442969   6.324   4.441   3.703
10663SOL     OW42970   7.109   4.666   3.332
10663SOL    HW242971   7.114   4.719   3.412
10663SOL    HW342972   7.071   4.583   3.360
10663SOL    MW442973   7.105   4.661   3.347
10664SOL     OW42974   6.749   3.801   3.578
10664SOL    HW242975   6.744   3.708   3.559
10664SOL    HW342976   6.832   3.812   3.624
10664SOL    MW442977   6.757   3.790   3.582
10665SOL     OW42978   6.123   4.321   2.032
10665SOL    HW242979   6.089   4.377   2.102
10665SOL    HW342980   6.194   4.271   2.072
10665SOL    MW442981   6.129   4.322   2.046
10666SOL     OW42982   7.219   5.072   2.854
10666SOL    HW242983   7.254   5.054   2.767
10666SOL    HW342984   7.124   5.073   2.841
10666SOL    MW442985   7.211   5.069   2.841
10667SOL     OW42986   6.648   4.720   3.223
10667SOL    HW242987   6.691   4.755   3.301
10667SOL    HW342988   6.631   4.797   3.169
10667SOL    MW442989   6.651   4.735   3.226
10668SOL     OW42990   7.179   4.207   2.096
10668SOL    HW242991   7.171   4.278   2.033
10668SOL    HW342992   7.197   4.251   2.179
10668SOL    MW442993   7.180   4.221   2.098
10669SOL     OW42994   6.039   3.862   2.525
10669SOL    HW242995   6.089   3.905   2.456
10669SOL    HW342996   5.954   3.906   2.525
10669SOL    MW442997   6.036   3.875   2.516
10670SOL     OW42998   5.798   4.924   3.385
10670SOL    HW242999   5.826   4.877   3.463
10670SOL    HW343000   5.719   4.879   3.356
10670SOL    MW443001   5.791   4.913   3.391
10671SOL     OW43002   6.306   4.251   3.352
10671SOL    HW243003   6.278   4.339   3.376
10671SOL    HW343004   6.275   4.195   3.423
10671SOL    MW443005   6.298   4.254   3.364
10672SOL     OW43006   6.848   4.469   2.071
10672SOL    HW243007   6.895   4.487   1.990
10672SOL    HW343008   6.814   4.553   2.099
10672SOL    MW443009   6.850   4.483   2.064
10673SOL     OW43010   5.961   4.647   2.565
10673SOL    HW243011   6.019   4.703   2.513
10673SOL    HW343012   6.005   4.562   2.567
10673SOL    MW443013   5.974   4.644   2.558
10674SOL     OW43014   7.101   3.999   2.402
10674SOL    HW243015   7.023   3.949   2.427
10674SOL    HW343016   7.072   4.090   2.402
10674SOL    MW443017   7.087   4.003   2.405
10675SOL     OW43018   6.687   3.961   2.561
10675SOL    HW243019   6.707   4.036   2.505
10675SOL    HW343020   6.667   4.000   2.646
10675SOL    MW443021   6.688   3.977   2.565
10676SOL     OW43022   6.583   5.211   1.893
10676SOL    HW243023   6.610   5.289   1.845
10676SOL    HW343024   6.490   5.226   1.912
10676SOL    MW443025   6.574   5.224   1.889
10677SOL     OW43026   7.447   4.734   3.580
10677SOL    HW243027   7.360   4.714   3.616
10677SOL    HW343028   7.501   4.660   3.605
10677SOL    MW443029   7.442   4.723   3.588
10678SOL     OW43030   5.668   5.247   2.737
10678SOL    HW243031   5.700   5.251   2.828
10678SOL    HW343032   5.573   5.255   2.745
10678SOL    MW443033   5.660   5.250   2.750
10679SOL     OW43034   5.623   4.373   2.284
10679SOL    HW243035   5.563   4.345   2.354
10679SOL    HW343036   5.697   4.313   2.290
10679SOL    MW443037   5.625   4.362   2.293
10680SOL     OW43038   7.191   5.585   3.718
10680SOL    HW243039   7.236   5.509   3.683
10680SOL    HW343040   7.229   5.598   3.805
10680SOL    MW443041   7.201   5.578   3.724
10681SOL     OW43042   6.791   5.104   2.444
10681SOL    HW243043   6.814   5.055   2.522
10681SOL    HW343044   6.872   5.146   2.416
10681SOL    MW443045   6.804   5.104   2.451
10682SOL     OW43046   6.049   4.112   3.173
10682SOL    HW243047   6.082   4.193   3.213
10682SOL    HW343048   6.022   4.138   3.085
10682SOL    MW443049   6.048   4.126   3.167
10683SOL     OW43050   6.003   4.079   2.909
10683SOL    HW243051   6.033   3.993   2.880
10683SOL    HW343052   5.908   4.072   2.912
10683SOL    MW443053   5.995   4.068   2.907
10684SOL     OW43054   6.832   4.288   3.600
10684SOL    HW243055   6.884   4.223   3.553
10684SOL    HW343056   6.790   4.339   3.530
10684SOL    MW443057   6.833   4.285   3.583
10685SOL     OW43058   6.931   4.083   3.461
10685SOL    HW243059   6.838   4.067   3.448
10685SOL    HW343060   6.957   4.021   3.529
10685SOL    MW443061   6.921   4.073   3.468
10686SOL     OW43062   6.146   3.857   2.800
10686SOL    HW243063   6.156   3.766   2.826
10686SOL    HW343064   6.102   3.853   2.715
10686SOL    MW443065   6.142   3.845   2.792
10687SOL     OW43066   6.240   5.472   3.346
10687SOL    HW243067   6.157   5.457   3.391
10687SOL    HW343068   6.299   5.405   3.381
10687SOL    MW443069   6.238   5.462   3.356
10688SOL     OW43070   7.297   4.179   2.971
10688SOL    HW243071   7.230   4.212   3.031
10688SOL    HW343072   7.340   4.257   2.937
10688SOL    MW443073   7.295   4.194   2.975
10689SOL     OW43074   7.475   4.899   2.941
10689SOL    HW243075   7.468   4.839   2.866
10689SOL    HW343076   7.401   4.959   2.930
10689SOL    MW443077   7.465   4.899   2.930
10690SOL     OW43078   6.857   4.761   2.859
10690SOL    HW243079   6.871   4.733   2.950
10690SOL    HW343080   6.943   4.792   2.831
10690SOL    MW443081   6.870   4.762   2.868
10691SOL     OW43082   6.940   4.256   3.138
10691SOL    HW243083   6.961   4.257   3.045
10691SOL    HW343084   6.985   4.178   3.171
10691SOL    MW443085   6.947   4.246   3.130
10692SOL     OW43086   6.980   4.685   3.731
10692SOL    HW243087   7.046   4.633   3.685
10692SOL    HW343088   7.000   4.672   3.824
10692SOL    MW443089   6.991   4.676   3.738
10693SOL     OW43090   6.931   3.771   2.080
10693SOL    HW243091   7.005   3.815   2.123
10693SOL    HW343092   6.855   3.825   2.102
10693SOL    MW443093   6.931   3.783   2.088
10694SOL     OW43094   6.991   4.546   2.358
10694SOL    HW243095   6.906   4.516   2.328
10694SOL    HW343096   6.983   4.553   2.453
10694SOL    MW443097   6.979   4.544   2.367
10695SOL     OW43098   6.067   5.009   3.089
10695SOL    HW243099   6.079   5.036   3.180
10695SOL    HW343100   6.048   5.090   3.042
10695SOL    MW443101   6.066   5.024   3.094
10696SOL     OW43102   6.351   3.989   2.912
10696SOL    HW243103   6.324   3.991   3.003
10696SOL    HW343104   6.281   3.941   2.867
10696SOL    MW443105   6.339   3.985   2.919
10697SOL     OW43106   6.205   5.481   3.074
10697SOL    HW243107   6.257   5.558   3.051
10697SOL    HW343108   6.214   5.473   3.169
10697SOL    MW443109   6.214   5.488   3.085
10698SOL     OW43110   7.107   5.066   3.306
10698SOL    HW243111   7.092   4.995   3.369
10698SOL    HW343112   7.153   5.024   3.234
10698SOL    MW443113   7.113   5.050   3.306
10699SOL     OW43114   6.181   4.797   3.423
10699SOL    HW243115   6.218   4.802   3.335
10699SOL    HW343116   6.220   4.870   3.470
10699SOL    MW443117   6.191   4.807   3.418
10700SOL     OW43118   6.361   4.840   3.235
10700SOL    HW243119   6.420   4.786   3.288
10700SOL    HW343120   6.376   4.812   3.145
10700SOL    MW443121   6.371   4.829   3.231
10701SOL     OW43122   6.364   4.212   2.084
10701SOL    HW243123   6.437   4.261   2.047
10701SOL    HW343124   6.380   4.121   2.058
10701SOL    MW443125   6.376   4.207   2.077
10702SOL     OW43126   7.172   5.329   3.407
10702SOL    HW243127   7.214   5.314   3.492
10702SOL    HW343128   7.163   5.242   3.369
10702SOL    MW443129   7.176   5.317   3.414
10703SOL     OW43130   6.832   3.808   2.998
10703SOL    HW243131   6.887   3.817   2.920
10703SOL    HW343132   6.887   3.842   3.069
10703SOL    MW443133   6.846   3.813   2.997
10704SOL     OW43134   5.839   4.721   2.182
10704SOL    HW243135   5.776   4.737   2.111
10704SOL    HW343136   5.786   4.684   2.253
10704SOL    MW443137   5.824   4.718   2.182
10705SOL     OW43138   6.195   5.075   2.041
10705SOL    HW243139   6.210   5.051   2.133
10705SOL    HW343140   6.103   5.053   2.025
10705SOL    MW443141   6.185   5.068   2.051
10706SOL     OW43142   6.734   5.306   2.193
10706SOL    HW243143   6.742   5.224   2.144
10706SOL    HW343144   6.653   5.345   2.160
10706SOL    MW443145   6.724   5.301   2.183
10707SOL     OW43146   5.993   5.464   2.762
10707SOL    HW243147   5.997   5.375   2.797
10707SOL    HW343148   6.019   5.455   2.671
10707SOL    MW443149   5.996   5.452   2.754
10708SOL     OW43150   6.610   4.942   3.005
10708SOL    HW243151   6.542   4.876   3.021
10708SOL    HW343152   6.628   4.936   2.912
10708SOL    MW443153   6.603   4.933   2.996
10709SOL     OW43154   5.699   5.217   3.256
10709SOL    HW243155   5.689   5.175   3.342
10709SOL    HW343156   5.620   5.270   3.246
10709SOL    MW443157   5.688   5.218   3.267
10710SOL     OW43158   6.603   4.081   2.826
10710SOL    HW243159   6.533   4.033   2.871
10710SOL    HW343160   6.635   4.144   2.890
10710SOL    MW443161   6.598   4.083   2.840
10711SOL     OW43162   6.254   4.517   3.446
10711SOL    HW243163   6.247   4.612   3.434
10711SOL    HW343164   6.263   4.506   3.541
10711SOL    MW443165   6.255   4.529   3.456
10712SOL     OW43166   5.975   5.032   3.704
10712SOL    HW243167   6.047   5.034   3.641
10712SOL    HW343168   5.945   4.941   3.703
10712SOL    MW443169   5.980   5.021   3.696
10713SOL     OW43170   7.059   3.795   3.171
10713SOL    HW243171   7.130   3.741   3.135
10713SOL    HW343172   7.058   3.774   3.264
10713SOL    MW443173   7.068   3.786   3.179
10714SOL     OW43174   7.259   5.325   3.655
10714SOL    HW243175   7.232   5.322   3.746
10714SOL    HW343176   7.355   5.329   3.658
10714SOL    MW443177   7.269   5.325   3.667
10715SOL     OW43178   6.070   4.187   2.639
10715SOL    HW243179   6.141   4.135   2.602
10715SOL    HW343180   6.056   4.152   2.726
10715SOL    MW443181   6.078   4.176   2.646
10716SOL     OW43182   5.625   5.522   3.711
10716SOL    HW243183   5.675   5.500   3.633
10716SOL    HW343184   5.633   5.617   3.719
10716SOL    MW443185   5.633   5.531   3.702
10717SOL     OW43186   6.386   5.280   2.715
10717SOL    HW243187   6.314   5.217   2.728
10717SOL    HW343188   6.347   5.365   2.733
10717SOL    MW443189   6.370   5.283   2.718
10718SOL     OW43190   6.706   4.128   2.363
10718SOL    HW243191   6.728   4.065   2.295
10718SOL    HW343192   6.611   4.120   2.374
10718SOL    MW443193   6.696   4.119   2.355
10719SOL     OW43194   5.791   3.818   2.295
10719SOL    HW243195   5.862   3.839   2.234
10719SOL    HW343196   5.745   3.746   2.253
10719SOL    MW443197   5.795   3.812   2.281
10720SOL     OW43198   5.622   4.285   3.438
10720SOL    HW243199   5.686   4.351   3.413
10720SOL    HW343200   5.541   4.312   3.395
10720SOL    MW443201   5.620   4.297   3.430
10721SOL     OW43202   7.360   5.192   2.395
10721SOL    HW243203   7.330   5.125   2.456
10721SOL    HW343204   7.454   5.198   2.409
10721SOL    MW443205   7.368   5.184   2.405
10722SOL     OW43206   6.916   4.869   2.325
10722SOL    HW243207   6.888   4.955   2.358
10722SOL    HW343208   6.944   4.885   2.235
10722SOL    MW443209   6.916   4.883   2.317
10723SOL     OW43210   6.578   3.789   2.378
10723SOL    HW243211   6.615   3.848   2.443
10723SOL    HW343212   6.555   3.845   2.304
10723SOL    MW443213   6.579   3.804   2.377
10724SOL     OW43214   7.431   4.671   2.800
10724SOL    HW243215   7.422   4.703   2.711
10724SOL    HW343216   7.384   4.587   2.800
10724SOL    MW443217   7.424   4.664   2.790
10725SOL     OW43218   5.807   4.511   3.379
10725SOL    HW243219   5.828   4.580   3.317
10725SOL    HW343220   5.887   4.458   3.384
10725SOL    MW443221   5.820   4.512   3.373
10726SOL     OW43222   7.343   4.602   2.501
10726SOL    HW243223   7.437   4.591   2.489
10726SOL    HW343224   7.319   4.674   2.442
10726SOL    MW443225   7.353   4.610   2.492
10727SOL     OW43226   5.958   3.813   3.096
10727SOL    HW243227   6.001   3.897   3.116
10727SOL    HW343228   6.031   3.751   3.089
10727SOL    MW443229   5.973   3.816   3.097
10728SOL     OW43230   5.999   4.480   2.274
10728SOL    HW243231   5.999   4.575   2.259
10728SOL    HW343232   6.076   4.464   2.328
10728SOL    MW443233   6.009   4.491   2.279
10729SOL     OW43234   6.775   4.339   3.338
10729SOL    HW243235   6.811   4.312   3.254
10729SOL    HW343236   6.688   4.373   3.317
10729SOL    MW443237   6.769   4.340   3.325
10730SOL     OW43238   5.758   4.211   2.563
10730SOL    HW243239   5.820   4.218   2.636
10730SOL    HW343240   5.758   4.118   2.540
10730SOL    MW443241   5.766   4.200   2.570
10731SOL     OW43242   7.305   5.551   2.095
10731SOL    HW243243   7.372   5.584   2.035
10731SOL    HW343244   7.262   5.630   2.129
10731SOL    MW443245   7.307   5.566   2.091
10732SOL     OW43246   6.440   4.472   3.047
10732SOL    HW243247   6.398   4.390   3.023
10732SOL    HW343248   6.441   4.471   3.143
10732SOL    MW443249   6.433   4.461   3.056
10733SOL     OW43250   7.111   5.605   3.446
10733SOL    HW243251   7.114   5.511   3.429
10733SOL    HW343252   7.134   5.613   3.538
10733SOL    MW443253   7.114   5.593   3.456
10734SOL     OW43254   6.244   3.942   3.152
10734SOL    HW243255   6.175   4.005   3.173
10734SOL    HW343256   6.271   3.906   3.237
10734SOL    MW443257   6.238   3.945   3.165
10735SOL     OW43258   5.627   4.783   2.021
10735SOL    HW243259   5.596   4.848   2.084
10735SOL    HW343260   5.576   4.705   2.040
10735SOL    MW443261   5.617   4.780   2.031
10736SOL     OW43262   7.039   3.795   2.769
10736SOL    HW243263   7.127   3.804   2.806
10736SOL    HW343264   7.049   3.736   2.695
10736SOL    MW443265   7.053   3.789   2.763
10737SOL     OW43266   7.071   4.534   2.613
10737SOL    HW243267   7.151   4.549   2.562
10737SOL    HW343268   7.064   4.439   2.619
10737SOL    MW443269   7.080   4.523   2.608
10738SOL     OW43270   6.211   5.583   1.963
10738SOL    HW243271   6.116   5.583   1.955
10738SOL    HW343272   6.227   5.529   2.041
10738SOL    MW443273   6.201   5.577   1.972
10739SOL     OW43274   6.521   4.460   3.310
10739SOL    HW243275   6.590   4.527   3.307
10739SOL    HW343276   6.454   4.498   3.366
10739SOL    MW443277   6.522   4.473   3.317
10740SOL     OW43278   5.939   4.760   3.558
10740SOL    HW243279   5.893   4.676   3.560
10740SOL    HW343280   5.996   4.754   3.482
10740SOL    MW443281   5.941   4.748   3.550
10741SOL     OW43282   7.056   4.403   1.879
10741SOL    HW243283   6.984   4.379   1.821
10741SOL    HW343284   7.122   4.440   1.821
10741SOL    MW443285   7.055   4.405   1.864
10742SOL     OW43286   6.190   5.135   2.559
10742SOL    HW243287   6.255   5.068   2.580
10742SOL    HW343288   6.242   5.212   2.536
10742SOL    MW443289   6.205   5.137   2.558
10743SOL     OW43290   6.451   4.300   2.689
10743SOL    HW243291   6.391   4.318   2.761
10743SOL    HW343292   6.485   4.212   2.708
10743SOL    MW443293   6.447   4.290   2.702
10744SOL     OW43294   7.392   3.799   3.358
10744SOL    HW243295   7.313   3.845   3.386
10744SOL    HW343296   7.427   3.853   3.287
10744SOL    MW443297   7.386   3.812   3.352
10745SOL     OW43298   6.676   4.883   2.708
10745SOL    HW243299   6.768   4.864   2.726
10745SOL    HW343300   6.649   4.813   2.648
10745SOL    MW443301   6.684   4.871   2.702
10746SOL     OW43302   6.469   4.703   2.063
10746SOL    HW243303   6.455   4.615   2.028
10746SOL    HW343304   6.420   4.760   2.004
10746SOL    MW443305   6.461   4.698   2.051
10747SOL     OW43306   6.950   5.121   2.804
10747SOL    HW243307   6.923   5.205   2.769
10747SOL    HW343308   6.910   5.116   2.891
10747SOL    MW443309   6.943   5.130   2.810
10748SOL     OW43310   6.869   5.069   3.072
10748SOL    HW243311   6.880   5.036   3.161
10748SOL    HW343312   6.788   5.028   3.041
10748SOL    MW443313   6.859   5.061   3.078
10749SOL     OW43314   5.882   4.427   2.842
10749SOL    HW243315   5.832   4.426   2.923
10749SOL    HW343316   5.902   4.519   2.826
10749SOL    MW443317   5.878   4.439   2.850
10750SOL     OW43318   6.949   5.191   3.604
10750SOL    HW243319   6.949   5.285   3.620
10750SOL    HW343320   6.994   5.181   3.520
10750SOL    MW443321   6.955   5.201   3.595
10751SOL     OW43322   7.188   3.909   2.165
10751SOL    HW243323   7.181   3.913   2.260
10751SOL    HW343324   7.200   4.000   2.138
10751SOL    MW443325   7.189   3.922   2.173
10752SOL     OW43326   6.477   4.472   2.279
10752SOL    HW243327   6.457   4.458   2.186
10752SOL    HW343328   6.570   4.451   2.286
10752SOL    MW443329   6.487   4.467   2.268
10753SOL     OW43330   5.804   4.095   3.583
10753SOL    HW243331   5.761   4.154   3.520
10753SOL    HW343332   5.872   4.150   3.623
10753SOL    MW443333   5.808   4.110   3.580
10754SOL     OW43334   6.916   4.715   3.128
10754SOL    HW243335   6.979   4.712   3.201
10754SOL    HW343336   6.832   4.733   3.170
10754SOL    MW443337   6.912   4.717   3.143
10755SOL     OW43338   6.460   5.430   2.317
10755SOL    HW243339   6.518   5.501   2.344
10755SOL    HW343340   6.483   5.358   2.375
10755SOL    MW443341   6.471   5.430   2.328
10756SOL     OW43342   7.255   3.892   2.907
10756SOL    HW243343   7.300   3.810   2.926
10756SOL    HW343344   7.275   3.948   2.983
10756SOL    MW443345   7.265   3.888   2.919
10757SOL     OW43346   5.703   3.735   3.006
10757SOL    HW243347   5.694   3.736   2.911
10757SOL    HW343348   5.797   3.747   3.021
10757SOL    MW443349   5.715   3.738   2.997
10758SOL     OW43350   7.340   4.928   2.626
10758SOL    HW243351   7.319   4.874   2.549
10758SOL    HW343352   7.436   4.926   2.630
10758SOL    MW443353   7.349   4.921   2.615
10759SOL     OW43354   6.032   5.073   3.369
10759SOL    HW243355   5.953   5.023   3.392
10759SOL    HW343356   6.102   5.032   3.419
10759SOL    MW443357   6.030   5.061   3.379
10760SOL     OW43358   5.916   3.862   2.052
10760SOL    HW243359   5.845   3.917   2.020
10760SOL    HW343360   5.958   3.828   1.973
10760SOL    MW443361   5.912   3.864   2.038
10761SOL     OW43362   7.040   4.359   2.888
10761SOL    HW243363   6.963   4.405   2.854
10761SOL    HW343364   7.097   4.428   2.922
10761SOL    MW443365   7.037   4.374   2.888
10762SOL     OW43366   5.706   5.218   2.090
10762SOL    HW243367   5.723   5.302   2.132
10762SOL    HW343368   5.741   5.227   2.002
10762SOL    MW443369   5.711   5.231   2.084
10763SOL     OW43370   6.978   5.307   2.307
10763SOL    HW243371   7.041   5.297   2.236
10763SOL    HW343372   6.895   5.327   2.262
10763SOL    MW443373   6.975   5.308   2.292
10764SOL     OW43374   7.341   4.575   3.993
10764SOL    HW243375   7.382   4.517   4.058
10764SOL    HW343376   7.248   4.567   4.010
10764SOL    MW443377   7.335   4.567   4.003
10765SOL     OW43378   7.207   4.507   4.988
10765SOL    HW243379   7.162   4.574   5.039
10765SOL    HW343380   7.295   4.543   4.974
10765SOL    MW443381   7.213   4.520   4.992
10766SOL     OW43382   6.135   4.758   4.222
10766SOL    HW243383   6.225   4.733   4.206
10766SOL    HW343384   6.131   4.851   4.199
10766SOL    MW443385   6.147   4.767   4.217
10767SOL     OW43386   7.251   5.461   4.364
10767SOL    HW243387   7.263   5.407   4.442
10767SOL    HW343388   7.288   5.409   4.293
10767SOL    MW443389   7.257   5.446   4.365
10768SOL     OW43390   6.630   5.346   5.365
10768SOL    HW243391   6.671   5.382   5.286
10768SOL    HW343392   6.665   5.257   5.372
10768SOL    MW443393   6.641   5.339   5.356
10769SOL     OW43394   7.187   4.901   4.969
10769SOL    HW243395   7.108   4.866   4.927
10769SOL    HW343396   7.214   4.973   4.913
10769SOL    MW443397   7.180   4.906   4.956
10770SOL     OW43398   6.419   4.214   4.235
10770SOL    HW243399   6.394   4.302   4.263
10770SOL    HW343400   6.416   4.217   4.139
10770SOL    MW443401   6.415   4.226   4.227
10771SOL     OW43402   5.861   4.242   4.163
10771SOL    HW243403   5.893   4.330   4.145
10771SOL    HW343404   5.849   4.240   4.258
10771SOL    MW443405   5.864   4.254   4.175
10772SOL     OW43406   5.939   4.655   5.064
10772SOL    HW243407   6.002   4.602   5.015
10772SOL    HW343408   5.920   4.729   5.007
10772SOL    MW443409   5.945   4.657   5.051
10773SOL     OW43410   6.260   3.997   4.250
10773SOL    HW243411   6.318   4.073   4.252
10773SOL    HW343412   6.195   4.018   4.183
10773SOL    MW443413   6.259   4.009   4.241
10774SOL     OW43414   6.347   4.924   4.425
10774SOL    HW243415   6.427   4.927   4.477
10774SOL    HW343416   6.375   4.891   4.339
10774SOL    MW443417   6.361   4.920   4.420
10775SOL     OW43418   6.372   5.265   5.328
10775SOL    HW243419   6.456   5.291   5.367
10775SOL    HW343420   6.396   5.209   5.254
10775SOL    MW443421   6.386   5.261   5.323
10776SOL     OW43422   6.124   4.428   4.416
10776SOL    HW243423   6.109   4.348   4.467
10776SOL    HW343424   6.206   4.463   4.450
10776SOL    MW443425   6.132   4.420   4.428
10777SOL     OW43426   6.461   5.114   5.101
10777SOL    HW243427   6.425   5.180   5.041
10777SOL    HW343428   6.389   5.052   5.114
10777SOL    MW443429   6.447   5.114   5.095
10778SOL     OW43430   6.266   4.254   4.793
10778SOL    HW243431   6.172   4.250   4.811
10778SOL    HW343432   6.296   4.163   4.802
10778SOL    MW443433   6.257   4.242   4.796
10779SOL     OW43434   6.012   4.668   4.697
10779SOL    HW243435   5.967   4.675   4.613
10779SOL    HW343436   5.992   4.751   4.741
10779SOL    MW443437   6.004   4.680   4.691
10780SOL     OW43438   5.709   5.514   4.572
10780SOL    HW243439   5.798   5.506   4.607
10780SOL    HW343440   5.673   5.426   4.577
10780SOL    MW443441   5.716   5.501   4.577
10781SOL     OW43442   6.974   4.906   3.941
10781SOL    HW243443   6.892   4.942   3.907
10781SOL    HW343444   7.042   4.949   3.890
10781SOL    MW443445   6.972   4.916   3.929
10782SOL     OW43446   5.973   5.041   4.607
10782SOL    HW243447   5.949   5.094   4.683
10782SOL    HW343448   6.029   5.099   4.555
10782SOL    MW443449   5.977   5.056   4.610
10783SOL     OW43450   6.535   4.685   4.417
10783SOL    HW243451   6.449   4.672   4.457
10783SOL    HW343452   6.588   4.612   4.449
10783SOL    MW443453   6.531   4.674   4.426
10784SOL     OW43454   5.943   5.337   5.202
10784SOL    HW243455   5.851   5.313   5.187
10784SOL    HW343456   5.987   5.254   5.219
10784SOL    MW443457   5.937   5.322   5.201
10785SOL     OW43458   6.526   5.047   4.134
10785SOL    HW243459   6.503   5.109   4.202
10785SOL    HW343460   6.483   4.965   4.160
10785SOL    MW443461   6.518   5.043   4.145
10786SOL     OW43462   7.399   4.048   4.590
10786SOL    HW243463   7.336   4.028   4.659
10786SOL    HW343464   7.389   3.977   4.527
10786SOL    MW443465   7.389   4.035   4.591
10787SOL     OW43466   6.023   4.020   4.102
10787SOL    HW243467   5.997   3.982   4.018
10787SOL    HW343468   5.960   4.090   4.118
10787SOL    MW443469   6.012   4.023   4.093
10788SOL     OW43470   5.858   4.981   4.139
10788SOL    HW243471   5.806   5.049   4.095
10788SOL    HW343472   5.855   4.907   4.079
10788SOL    MW443473   5.850   4.980   4.126
10789SOL     OW43474   6.520   5.444   3.917
10789SOL    HW243475   6.475   5.460   4.000
10789SOL    HW343476   6.451   5.409   3.859
10789SOL    MW443477   6.506   5.441   3.919
10790SOL     OW43478   7.455   4.217   3.892
10790SOL    HW243479   7.364   4.219   3.920
10790SOL    HW343480   7.500   4.279   3.950
10790SOL    MW443481   7.448   4.225   3.902
10791SOL     OW43482   7.200   4.820   4.242
10791SOL    HW243483   7.110   4.820   4.277
10791SOL    HW343484   7.193   4.866   4.159
10791SOL    MW443485   7.187   4.826   4.236
10792SOL     OW43486   7.000   4.455   5.314
10792SOL    HW243487   7.069   4.393   5.291
10792SOL    HW343488   6.925   4.429   5.261
10792SOL    MW443489   7.000   4.442   5.305
10793SOL     OW43490   5.741   5.335   4.866
10793SOL    HW243491   5.724   5.281   4.943
10793SOL    HW343492   5.729   5.425   4.896
10793SOL    MW443493   5.738   5.339   4.880
10794SOL     OW43494   6.736   4.842   5.306
10794SOL    HW243495   6.721   4.935   5.291
10794SOL    HW343496   6.831   4.832   5.306
10794SOL    MW443497   6.745   4.852   5.303
10795SOL     OW43498   6.532   4.266   5.507
10795SOL    HW243499   6.622   4.267   5.474
10795SOL    HW343500   6.491   4.191   5.465
10795SOL    MW443501   6.538   4.256   5.498
10796SOL     OW43502   7.107   4.798   4.634
10796SOL    HW243503   7.110   4.732   4.565
10796SOL    HW343504   7.192   4.841   4.630
10796SOL    MW443505   7.119   4.794   4.625
10797SOL     OW43506   6.727   4.401   4.203
10797SOL    HW243507   6.753   4.425   4.114
10797SOL    HW343508   6.709   4.308   4.199
10797SOL    MW443509   6.729   4.393   4.190
10798SOL     OW43510   7.392   5.021   4.054
10798SOL    HW243511   7.348   5.062   4.129
10798SOL    HW343512   7.449   5.089   4.019
10798SOL    MW443513   7.394   5.035   4.059
10799SOL     OW43514   6.312   4.070   5.457
10799SOL    HW243515   6.322   3.996   5.397
10799SOL    HW343516   6.348   4.039   5.540
10799SOL    MW443517   6.318   4.056   5.459
10800SOL     OW43518   6.048   5.437   4.372
10800SOL    HW243519   6.080   5.525   4.350
10800SOL    HW343520   6.001   5.409   4.294
10800SOL    MW443521   6.047   5.445   4.359
10801SOL     OW43522   7.432   3.799   4.421
10801SOL    HW243523   7.486   3.750   4.483
10801SOL    HW343524   7.375   3.733   4.382
10801SOL    MW443525   7.432   3.783   4.423
10802SOL     OW43526   5.764   5.497   3.949
10802SOL    HW243527   5.793   5.587   3.941
10802SOL    HW343528   5.714   5.480   3.870
10802SOL    MW443529   5.762   5.505   3.938
10803SOL     OW43530   6.551   3.752   4.834
10803SOL    HW243531   6.510   3.830   4.796
10803SOL    HW343532   6.645   3.770   4.829
10803SOL    MW443533   6.557   3.764   4.829
10804SOL     OW43534   7.168   5.305   3.920
10804SOL    HW243535   7.216   5.374   3.966
10804SOL    HW343536   7.089   5.349   3.889
10804SOL    MW443537   7.163   5.319   3.923
10805SOL     OW43538   6.566   4.430   3.864
10805SOL    HW243539   6.568   4.377   3.785
10805SOL    HW343540   6.654   4.467   3.870
10805SOL    MW443541   6.578   4.429   3.853
10806SOL     OW43542   7.180   4.356   4.200
10806SOL    HW243543   7.219   4.356   4.287
10806SOL    HW343544   7.121   4.432   4.200
10806SOL    MW443545   7.177   4.367   4.211
10807SOL     OW43546   6.497   4.723   5.329
10807SOL    HW243547   6.474   4.703   5.419
10807SOL    HW343548   6.582   4.767   5.334
10807SOL    MW443549   6.504   4.726   5.341
10808SOL     OW43550   6.577   3.860   5.089
10808SOL    HW243551   6.583   3.822   5.002
10808SOL    HW343552   6.566   3.954   5.074
10808SOL    MW443553   6.578   3.868   5.077
10809SOL     OW43554   6.666   4.349   4.923
10809SOL    HW243555   6.741   4.378   4.870
10809SOL    HW343556   6.598   4.414   4.907
10809SOL    MW443557   6.667   4.361   4.913
10810SOL     OW43558   7.216   4.317   5.200
10810SOL    HW243559   7.197   4.226   5.179
10810SOL    HW343560   7.194   4.366   5.121
10810SOL    MW443561   7.211   4.310   5.187
10811SOL     OW43562   7.358   5.411   5.104
10811SOL    HW243563   7.286   5.373   5.155
10811SOL    HW343564   7.375   5.496   5.145
10811SOL    MW443565   7.352   5.416   5.116
10812SOL     OW43566   6.663   4.055   5.306
10812SOL    HW243567   6.629   4.094   5.225
10812SOL    HW343568   6.641   3.963   5.299
10812SOL    MW443569   6.656   4.048   5.296
10813SOL     OW43570   7.072   4.869   5.382
10813SOL    HW243571   7.154   4.910   5.412
10813SOL    HW343572   7.035   4.831   5.462
10813SOL    MW443573   7.078   4.870   5.397
10814SOL     OW43574   7.367   4.242   4.366
10814SOL    HW243575   7.456   4.211   4.383
10814SOL    HW343576   7.310   4.182   4.414
10814SOL    MW443577   7.370   4.230   4.375
10815SOL     OW43578   5.793   3.956   4.395
10815SOL    HW243579   5.784   3.896   4.321
10815SOL    HW343580   5.726   3.927   4.458
10815SOL    MW443581   5.783   3.943   4.393
10816SOL     OW43582   6.736   5.049   3.956
10816SOL    HW243583   6.686   5.051   4.038
10816SOL    HW343584   6.670   5.067   3.888
10816SOL    MW443585   6.722   5.051   3.958
10817SOL     OW43586   5.740   4.129   4.758
10817SOL    HW243587   5.712   4.220   4.767
10817SOL    HW343588   5.677   4.090   4.697
10817SOL    MW443589   5.727   4.135   4.752
10818SOL     OW43590   6.199   5.467   4.064
10818SOL    HW243591   6.120   5.425   4.097
10818SOL    HW343592   6.265   5.450   4.131
10818SOL    MW443593   6.198   5.459   4.077
10819SOL     OW43594   7.327   4.987   5.461
10819SOL    HW243595   7.377   4.913   5.493
10819SOL    HW343596   7.273   5.014   5.536
10819SOL    MW443597   7.327   4.981   5.474
10820SOL     OW43598   6.335   4.882   3.771
10820SOL    HW243599   6.257   4.828   3.758
10820SOL    HW343600   6.306   4.955   3.824
10820SOL    MW443601   6.321   4.884   3.776
10821SOL     OW43602   7.461   4.622   4.963
10821SOL    HW243603   7.477   4.660   4.876
10821SOL    HW343604   7.495   4.688   5.024
10821SOL    MW443605   7.468   4.635   4.959
10822SOL     OW43606   7.253   5.331   4.632
10822SOL    HW243607   7.282   5.398   4.693
10822SOL    HW343608   7.234   5.255   4.687
10822SOL    MW443609   7.255   5.331   4.647
10823SOL     OW43610   5.724   4.404   4.928
10823SOL    HW243611   5.786   4.434   4.994
10823SOL    HW343612   5.658   4.473   4.922
10823SOL    MW443613   5.723   4.417   4.935
10824SOL     OW43614   7.140   5.072   3.781
10824SOL    HW243615   7.087   5.121   3.717
10824SOL    HW343616   7.171   5.138   3.842
10824SOL    MW443617   7.138   5.086   3.779
10825SOL     OW43618   6.365   3.961   3.836
10825SOL    HW243619   6.313   3.881   3.824
10825SOL    HW343620   6.452   3.938   3.804
10825SOL    MW443621   6.368   3.947   3.830
10826SOL     OW43622   5.819   5.513   5.380
10826SOL    HW243623   5.793   5.581   5.318
10826SOL    HW343624   5.867   5.450   5.328
10826SOL    MW443625   5.821   5.513   5.366
10827SOL     OW43626   5.871   4.832   4.887
10827SOL    HW243627   5.924   4.907   4.912
10827SOL    HW343628   5.790   4.870   4.853
10827SOL    MW443629   5.867   4.847   4.887
10828SOL     OW43630   6.411   4.736   4.875
10828SOL    HW243631   6.439   4.645   4.887
10828SOL    HW343632   6.340   4.730   4.811
10828SOL    MW443633   6.404   4.724   4.870
10829SOL     OW43634   5.726   4.601   4.293
10829SOL    HW243635   5.817   4.616   4.320
10829SOL    HW343636   5.729   4.522   4.239
10829SOL    MW443637   5.738   4.593   4.291
10830SOL     OW43638   5.962   4.309   5.547
10830SOL    HW243639   5.909   4.389   5.554
10830SOL    HW343640   6.032   4.321   5.612
10830SOL    MW443641   5.964   4.322   5.555
10831SOL     OW43642   6.348   3.859   5.254
10831SOL    HW243643   6.325   3.767   5.256
10831SOL    HW343644   6.434   3.861   5.211
10831SOL    MW443645   6.355   3.849   5.250
10832SOL     OW43646   6.032   4.383   5.293
10832SOL    HW243647   6.112   4.433   5.279
10832SOL    HW343648   6.023   4.377   5.388
10832SOL    MW443649   6.041   4.389   5.303
10833SOL     OW43650   6.353   5.533   4.667
10833SOL    HW243651   6.442   5.548   4.697
10833SOL    HW343652   6.348   5.580   4.583
10833SOL    MW443653   6.363   5.541   4.660
10834SOL     OW43654   7.009   3.908   5.564
10834SOL    HW243655   7.065   3.835   5.590
10834SOL    HW343656   6.979   3.946   5.646
10834SOL    MW443657   7.013   3.903   5.577
10835SOL     OW43658   5.734   5.213   4.332
10835SOL    HW243659   5.706   5.252   4.414
10835SOL    HW343660   5.754   5.122   4.354
10835SOL    MW443661   5.732   5.205   4.345
10836SOL     OW43662   6.567   5.256   4.367
10836SOL    HW243663   6.650   5.210   4.351
10836SOL    HW343664   6.557   5.255   4.463
10836SOL    MW443665   6.577   5.249   4.377
10837SOL     OW43666   7.399   4.401   4.681
10837SOL    HW243667   7.488   4.431   4.663
10837SOL    HW343668   7.379   4.341   4.610
10837SOL    MW443669   7.408   4.398   4.670
10838SOL     OW43670   7.250   4.580   5.561
10838SOL    HW243671   7.305   4.504   5.542
10838SOL    HW343672   7.252   4.588   5.656
10838SOL    MW443673   7.258   4.571   5.569
10839SOL     OW43674   6.300   5.313   3.772
10839SOL    HW243675   6.240   5.382   3.742
10839SOL    HW343676   6.245   5.255   3.825
10839SOL    MW443677   6.284   5.315   3.774
10840SOL     OW43678   6.738   3.958   3.995
10840SOL    HW243679   6.671   3.934   3.932
10840SOL    HW343680   6.803   4.007   3.944
10840SOL    MW443681   6.738   3.960   3.980
10841SOL     OW43682   6.545   4.142   5.080
10841SOL    HW243683   6.464   4.183   5.108
10841SOL    HW343684   6.592   4.210   5.032
10841SOL    MW443685   6.540   4.157   5.078
10842SOL     OW43686   6.805   4.480   4.703
10842SOL    HW243687   6.818   4.574   4.713
10842SOL    HW343688   6.766   4.470   4.617
10842SOL    MW443689   6.801   4.491   4.693
10843SOL     OW43690   6.257   4.675   4.507
10843SOL    HW243691   6.168   4.666   4.540
10843SOL    HW343692   6.261   4.765   4.475
10843SOL    MW443693   6.246   4.686   4.507
10844SOL     OW43694   7.056   4.258   4.502
10844SOL    HW243695   7.001   4.179   4.501
10844SOL    HW343696   7.038   4.299   4.586
10844SOL    MW443697   7.046   4.253   4.511
10845SOL     OW43698   6.027   3.945   5.319
10845SOL    HW243699   5.948   3.963   5.371
10845SOL    HW343700   6.022   4.007   5.246
10845SOL    MW443701   6.017   3.955   5.316
10846SOL     OW43702   6.675   4.462   4.459
10846SOL    HW243703   6.612   4.394   4.483
10846SOL    HW343704   6.695   4.443   4.367
10846SOL    MW443705   6.669   4.449   4.451
10847SOL     OW43706   5.931   5.357   4.161
10847SOL    HW243707   5.892   5.404   4.087
10847SOL    HW343708   5.865   5.292   4.186
10847SOL    MW443709   5.918   5.355   4.155
10848SOL     OW43710   6.423   4.766   4.185
10848SOL    HW243711   6.425   4.740   4.092
10848SOL    HW343712   6.481   4.703   4.228
10848SOL    MW443713   6.431   4.755   4.179
10849SOL     OW43714   6.976   5.326   4.957
10849SOL    HW243715   6.901   5.372   4.995
10849SOL    HW343716   6.958   5.233   4.974
10849SOL    MW443717   6.965   5.320   4.965
10850SOL     OW43718   6.980   5.534   4.387
10850SOL    HW243719   6.923   5.487   4.326
10850SOL    HW343720   7.066   5.495   4.374
10850SOL    MW443721   6.983   5.525   4.377
10851SOL     OW43722   6.933   4.010   4.518
10851SOL    HW243723   6.961   3.942   4.579
10851SOL    HW343724   6.847   3.981   4.488
10851SOL    MW443725   6.926   3.997   4.522
10852SOL     OW43726   5.738   4.944   4.452
10852SOL    HW243727   5.802   4.976   4.515
10852SOL    HW343728   5.787   4.880   4.400
10852SOL    MW443729   5.753   4.940   4.453
10853SOL     OW43730   6.238   5.020   5.434
10853SOL    HW243731   6.286   5.103   5.421
10853SOL    HW343732   6.295   4.968   5.490
10853SOL    MW443733   6.252   5.024   5.440
10854SOL     OW43734   5.814   5.262   5.574
10854SOL    HW243735   5.870   5.186   5.589
10854SOL    HW343736   5.763   5.240   5.496
10854SOL    MW443737   5.814   5.249   5.565
10855SOL     OW43738   6.913   4.114   3.853
10855SOL    HW243739   6.886   4.180   3.789
10855SOL    HW343740   6.983   4.157   3.903
10855SOL    MW443741   6.918   4.127   3.850
10856SOL     OW43742   6.581   3.819   3.790
10856SOL    HW243743   6.637   3.811   3.712
10856SOL    HW343744   6.558   3.729   3.812
10856SOL    MW443745   6.586   3.806   3.783
10857SOL     OW43746   7.086   4.670   3.995
10857SOL    HW243747   7.053   4.759   3.985
10857SOL    HW343748   7.051   4.641   4.080
10857SOL    MW443749   7.076   4.679   4.006
10858SOL     OW43750   6.699   5.099   5.183
10858SOL    HW243751   6.610   5.105   5.151
10858SOL    HW343752   6.743   5.178   5.151
10858SOL    MW443753   6.694   5.109   5.175
10859SOL     OW43754   5.992   3.767   5.525
10859SOL    HW243755   5.920   3.732   5.473
10859SOL    HW343756   6.050   3.808   5.460
10859SOL    MW443757   5.990   3.768   5.510
10860SOL     OW43758   6.016   5.257   4.824
10860SOL    HW243759   6.061   5.319   4.881
10860SOL    HW343760   5.923   5.276   4.837
10860SOL    MW443761   6.009   5.267   4.831
10861SOL     OW43762   7.456   4.786   5.178
10861SOL    HW243763   7.371   4.799   5.137
10861SOL    HW343764   7.436   4.750   5.265
10861SOL    MW443765   7.443   4.782   5.183
10862SOL     OW43766   6.438   5.325   4.932
10862SOL    HW243767   6.462   5.314   4.841
10862SOL    HW343768   6.361   5.382   4.930
10862SOL    MW443769   6.430   5.330   4.921
10863SOL     OW43770   6.080   4.708   3.787
10863SOL    HW243771   6.003   4.721   3.843
10863SOL    HW343772   6.044   4.672   3.706
10863SOL    MW443773   6.066   4.704   3.784
10864SOL     OW43774   6.733   4.681   4.030
10864SOL    HW243775   6.643   4.702   4.005
10864SOL    HW343776   6.760   4.754   4.086
10864SOL    MW443777   6.725   4.693   4.033
10865SOL     OW43778   6.233   5.030   4.722
10865SOL    HW243779   6.226   5.009   4.816
10865SOL    HW343780   6.151   4.998   4.685
10865SOL    MW443781   6.221   5.024   4.729
10866SOL     OW43782   7.097   4.040   5.124
10866SOL    HW243783   7.044   4.042   5.204
10866SOL    HW343784   7.082   3.953   5.087
10866SOL    MW443785   7.089   4.030   5.129
10867SOL     OW43786   7.433   3.964   4.997
10867SOL    HW243787   7.414   4.031   4.932
10867SOL    HW343788   7.490   3.902   4.952
10867SOL    MW443789   7.437   3.965   4.983
10868SOL     OW43790   5.679   5.122   5.385
10868SOL    HW243791   5.723   5.055   5.331
10868SOL    HW343792   5.594   5.084   5.405
10868SOL    MW443793   5.674   5.108   5.381
10869SOL     OW43794   6.362   3.797   4.437
10869SOL    HW243795   6.291   3.858   4.419
10869SOL    HW343796   6.413   3.794   4.356
10869SOL    MW443797   6.358   3.803   4.424
10870SOL     OW43798   6.120   5.037   4.186
10870SOL    HW243799   6.113   5.069   4.276
10870SOL    HW343800   6.030   5.021   4.158
10870SOL    MW443801   6.108   5.039   4.193
10871SOL     OW43802   6.715   5.430   5.095
10871SOL    HW243803   6.635   5.415   5.045
10871SOL    HW343804   6.722   5.525   5.102
10871SOL    MW443805   6.706   5.441   5.089
10872SOL     OW43806   6.829   5.395   4.585
10872SOL    HW243807   6.876   5.468   4.544
10872SOL    HW343808   6.750   5.434   4.621
10872SOL    MW443809   6.824   5.410   4.584
10873SOL     OW43810   7.237   5.490   4.860
10873SOL    HW243811   7.280   5.460   4.940
10873SOL    HW343812   7.156   5.438   4.857
10873SOL    MW443813   7.232   5.479   4.870
10874SOL     OW43814   6.322   4.454   5.567
10874SOL    HW243815   6.392   4.396   5.539
10874SOL    HW343816   6.265   4.399   5.622
10874SOL    MW443817   6.324   4.441   5.571
10875SOL     OW43818   7.109   4.666   5.200
10875SOL    HW243819   7.114   4.719   5.280
10875SOL    HW343820   7.071   4.583   5.228
10875SOL    MW443821   7.105   4.661   5.215
10876SOL     OW43822   6.749   3.801   5.446
10876SOL    HW243823   6.744   3.708   5.427
10876SOL    HW343824   6.832   3.812   5.492
10876SOL    MW443825   6.757   3.790   5.450
10877SOL     OW43826   6.123   4.321   3.900
10877SOL    HW243827   6.089   4.377   3.970
10877SOL    HW343828   6.194   4.271   3.940
10877SOL    MW443829   6.129   4.322   3.914
10878SOL     OW43830   7.219   5.072   4.722
10878SOL    HW243831   7.254   5.054   4.635
10878SOL    HW343832   7.124   5.073   4.709
10878SOL    MW443833   7.211   5.069   4.709
10879SOL     OW43834   6.648   4.720   5.091
10879SOL    HW243835   6.691   4.755   5.169
10879SOL    HW343836   6.631   4.797   5.037
10879SOL    MW443837   6.651   4.735   5.094
10880SOL     OW43838   7.179   4.207   3.964
10880SOL    HW243839   7.171   4.278   3.901
10880SOL    HW343840   7.197   4.251   4.047
10880SOL    MW443841   7.180   4.221   3.966
10881SOL     OW43842   6.039   3.862   4.393
10881SOL    HW243843   6.089   3.905   4.324
10881SOL    HW343844   5.954   3.906   4.393
10881SOL    MW443845   6.036   3.875   4.384
10882SOL     OW43846   5.798   4.924   5.253
10882SOL    HW243847   5.826   4.877   5.331
10882SOL    HW343848   5.719   4.879   5.224
10882SOL    MW443849   5.791   4.913   5.259
10883SOL     OW43850   6.306   4.251   5.220
10883SOL    HW243851   6.278   4.339   5.244
10883SOL    HW343852   6.275   4.195   5.291
10883SOL    MW443853   6.298   4.254   5.232
10884SOL     OW43854   6.848   4.469   3.939
10884SOL    HW243855   6.895   4.487   3.858
10884SOL    HW343856   6.814   4.553   3.967
10884SOL    MW443857   6.850   4.483   3.932
10885SOL     OW43858   5.961   4.647   4.433
10885SOL    HW243859   6.019   4.703   4.381
10885SOL    HW343860   6.005   4.562   4.435
10885SOL    MW443861   5.974   4.644   4.426
10886SOL     OW43862   7.101   3.999   4.270
10886SOL    HW243863   7.023   3.949   4.295
10886SOL    HW343864   7.072   4.090   4.270
10886SOL    MW443865   7.087   4.003   4.273
10887SOL     OW43866   6.687   3.961   4.429
10887SOL    HW243867   6.707   4.036   4.373
10887SOL    HW343868   6.667   4.000   4.514
10887SOL    MW443869   6.688   3.977   4.433
10888SOL     OW43870   6.583   5.211   3.761
10888SOL    HW243871   6.610   5.289   3.713
10888SOL    HW343872   6.490   5.226   3.780
10888SOL    MW443873   6.574   5.224   3.757
10889SOL     OW43874   7.447   4.734   5.448
10889SOL    HW243875   7.360   4.714   5.484
10889SOL    HW343876   7.501   4.660   5.473
10889SOL    MW443877   7.442   4.723   5.456
10890SOL     OW43878   5.668   5.247   4.605
10890SOL    HW243879   5.700   5.251   4.696
10890SOL    HW343880   5.573   5.255   4.613
10890SOL    MW443881   5.660   5.250   4.618
10891SOL     OW43882   5.623   4.373   4.152
10891SOL    HW243883   5.563   4.345   4.222
10891SOL    HW343884   5.697   4.313   4.158
10891SOL    MW443885   5.625   4.362   4.161
10892SOL     OW43886   7.191   5.585   5.586
10892SOL    HW243887   7.236   5.509   5.551
10892SOL    HW343888   7.229   5.598   5.673
10892SOL    MW443889   7.201   5.578   5.592
10893SOL     OW43890   6.791   5.104   4.312
10893SOL    HW243891   6.814   5.055   4.390
10893SOL    HW343892   6.872   5.146   4.284
10893SOL    MW443893   6.804   5.104   4.319
10894SOL     OW43894   6.049   4.112   5.041
10894SOL    HW243895   6.082   4.193   5.081
10894SOL    HW343896   6.022   4.138   4.953
10894SOL    MW443897   6.048   4.126   5.035
10895SOL     OW43898   6.003   4.079   4.777
10895SOL    HW243899   6.033   3.993   4.748
10895SOL    HW343900   5.908   4.072   4.780
10895SOL    MW443901   5.995   4.068   4.775
10896SOL     OW43902   6.832   4.288   5.468
10896SOL    HW243903   6.884   4.223   5.421
10896SOL    HW343904   6.790   4.339   5.398
10896SOL    MW443905   6.833   4.285   5.451
10897SOL     OW43906   6.931   4.083   5.329
10897SOL    HW243907   6.838   4.067   5.316
10897SOL    HW343908   6.957   4.021   5.397
10897SOL    MW443909   6.921   4.073   5.336
10898SOL     OW43910   6.146   3.857   4.668
10898SOL    HW243911   6.156   3.766   4.694
10898SOL    HW343912   6.102   3.853   4.583
10898SOL    MW443913   6.142   3.845   4.660
10899SOL     OW43914   6.240   5.472   5.214
10899SOL    HW243915   6.157   5.457   5.259
10899SOL    HW343916   6.299   5.405   5.249
10899SOL    MW443917   6.238   5.462   5.224
10900SOL     OW43918   7.297   4.179   4.839
10900SOL    HW243919   7.230   4.212   4.899
10900SOL    HW343920   7.340   4.257   4.805
10900SOL    MW443921   7.295   4.194   4.843
10901SOL     OW43922   7.475   4.899   4.809
10901SOL    HW243923   7.468   4.839   4.734
10901SOL    HW343924   7.401   4.959   4.798
10901SOL    MW443925   7.465   4.899   4.798
10902SOL     OW43926   6.857   4.761   4.727
10902SOL    HW243927   6.871   4.733   4.818
10902SOL    HW343928   6.943   4.792   4.699
10902SOL    MW443929   6.870   4.762   4.736
10903SOL     OW43930   6.940   4.256   5.006
10903SOL    HW243931   6.961   4.257   4.913
10903SOL    HW343932   6.985   4.178   5.039
10903SOL    MW443933   6.947   4.246   4.998
10904SOL     OW43934   7.433   4.387   5.548
10904SOL    HW243935   7.470   4.332   5.617
10904SOL    HW343936   7.458   4.344   5.466
10904SOL    MW443937   7.440   4.375   5.547
10905SOL     OW43938   6.980   4.685   5.600
10905SOL    HW243939   7.046   4.633   5.554
10905SOL    HW343940   7.000   4.672   5.693
10905SOL    MW443941   6.991   4.676   5.607
10906SOL     OW43942   6.931   3.771   3.948
10906SOL    HW243943   7.005   3.815   3.991
10906SOL    HW343944   6.855   3.825   3.970
10906SOL    MW443945   6.931   3.783   3.956
10907SOL     OW43946   6.991   4.546   4.226
10907SOL    HW243947   6.906   4.516   4.196
10907SOL    HW343948   6.983   4.553   4.321
10907SOL    MW443949   6.979   4.544   4.235
10908SOL     OW43950   6.067   5.009   4.957
10908SOL    HW243951   6.079   5.036   5.048
10908SOL    HW343952   6.048   5.090   4.910
10908SOL    MW443953   6.066   5.024   4.962
10909SOL     OW43954   6.351   3.989   4.780
10909SOL    HW243955   6.324   3.991   4.871
10909SOL    HW343956   6.281   3.941   4.735
10909SOL    MW443957   6.339   3.985   4.787
10910SOL     OW43958   6.205   5.481   4.942
10910SOL    HW243959   6.257   5.558   4.919
10910SOL    HW343960   6.214   5.473   5.037
10910SOL    MW443961   6.214   5.488   4.953
10911SOL     OW43962   7.107   5.066   5.174
10911SOL    HW243963   7.092   4.995   5.237
10911SOL    HW343964   7.153   5.024   5.102
10911SOL    MW443965   7.113   5.050   5.174
10912SOL     OW43966   6.181   4.797   5.291
10912SOL    HW243967   6.218   4.802   5.203
10912SOL    HW343968   6.220   4.870   5.338
10912SOL    MW443969   6.191   4.807   5.286
10913SOL     OW43970   6.361   4.840   5.103
10913SOL    HW243971   6.420   4.786   5.156
10913SOL    HW343972   6.376   4.812   5.013
10913SOL    MW443973   6.371   4.829   5.099
10914SOL     OW43974   6.364   4.212   3.952
10914SOL    HW243975   6.437   4.261   3.915
10914SOL    HW343976   6.380   4.121   3.926
10914SOL    MW443977   6.376   4.207   3.945
10915SOL     OW43978   7.172   5.329   5.275
10915SOL    HW243979   7.214   5.314   5.360
10915SOL    HW343980   7.163   5.242   5.237
10915SOL    MW443981   7.176   5.317   5.282
10916SOL     OW43982   6.832   3.808   4.866
10916SOL    HW243983   6.887   3.817   4.788
10916SOL    HW343984   6.887   3.842   4.937
10916SOL    MW443985   6.846   3.813   4.865
10917SOL     OW43986   5.839   4.721   4.050
10917SOL    HW243987   5.776   4.737   3.979
10917SOL    HW343988   5.786   4.684   4.121
10917SOL    MW443989   5.824   4.718   4.050
10918SOL     OW43990   6.195   5.075   3.909
10918SOL    HW243991   6.210   5.051   4.001
10918SOL    HW343992   6.103   5.053   3.893
10918SOL    MW443993   6.185   5.068   3.919
10919SOL     OW43994   6.734   5.306   4.061
10919SOL    HW243995   6.742   5.224   4.012
10919SOL    HW343996   6.653   5.345   4.028
10919SOL    MW443997   6.724   5.301   4.051
10920SOL     OW43998   5.993   5.464   4.630
10920SOL    HW243999   5.997   5.375   4.665
10920SOL    HW344000   6.019   5.455   4.539
10920SOL    MW444001   5.996   5.452   4.622
10921SOL     OW44002   6.610   4.942   4.873
10921SOL    HW244003   6.542   4.876   4.889
10921SOL    HW344004   6.628   4.936   4.780
10921SOL    MW444005   6.603   4.933   4.864
10922SOL     OW44006   5.699   5.217   5.124
10922SOL    HW244007   5.689   5.175   5.210
10922SOL    HW344008   5.620   5.270   5.114
10922SOL    MW444009   5.688   5.218   5.135
10923SOL     OW44010   6.603   4.081   4.694
10923SOL    HW244011   6.533   4.033   4.739
10923SOL    HW344012   6.635   4.144   4.758
10923SOL    MW444013   6.598   4.083   4.708
10924SOL     OW44014   6.254   4.517   5.314
10924SOL    HW244015   6.247   4.612   5.302
10924SOL    HW344016   6.263   4.506   5.409
10924SOL    MW444017   6.255   4.529   5.324
10925SOL     OW44018   5.975   5.032   5.572
10925SOL    HW244019   6.047   5.034   5.509
10925SOL    HW344020   5.945   4.941   5.571
10925SOL    MW444021   5.980   5.021   5.564
10926SOL     OW44022   7.059   3.795   5.039
10926SOL    HW244023   7.130   3.741   5.003
10926SOL    HW344024   7.058   3.774   5.132
10926SOL    MW444025   7.068   3.786   5.047
10927SOL     OW44026   7.259   5.325   5.523
10927SOL    HW244027   7.232   5.322   5.614
10927SOL    HW344028   7.355   5.329   5.526
10927SOL    MW444029   7.269   5.325   5.535
10928SOL     OW44030   6.070   4.187   4.507
10928SOL    HW244031   6.141   4.135   4.470
10928SOL    HW344032   6.056   4.152   4.594
10928SOL    MW444033   6.078   4.176   4.514
10929SOL     OW44034   5.625   5.522   5.579
10929SOL    HW244035   5.675   5.500   5.501
10929SOL    HW344036   5.633   5.617   5.587
10929SOL    MW444037   5.633   5.531   5.570
10930SOL     OW44038   6.386   5.280   4.583
10930SOL    HW244039   6.314   5.217   4.596
10930SOL    HW344040   6.347   5.365   4.601
10930SOL    MW444041   6.370   5.283   4.586
10931SOL     OW44042   6.706   4.128   4.231
10931SOL    HW244043   6.728   4.065   4.163
10931SOL    HW344044   6.611   4.120   4.242
10931SOL    MW444045   6.696   4.119   4.223
10932SOL     OW44046   5.791   3.818   4.163
10932SOL    HW244047   5.862   3.839   4.102
10932SOL    HW344048   5.745   3.746   4.121
10932SOL    MW444049   5.795   3.812   4.149
10933SOL     OW44050   5.622   4.285   5.306
10933SOL    HW244051   5.686   4.351   5.281
10933SOL    HW344052   5.541   4.312   5.263
10933SOL    MW444053   5.620   4.297   5.298
10934SOL     OW44054   7.360   5.192   4.263
10934SOL    HW244055   7.330   5.125   4.324
10934SOL    HW344056   7.454   5.198   4.277
10934SOL    MW444057   7.368   5.184   4.273
10935SOL     OW44058   6.916   4.869   4.193
10935SOL    HW244059   6.888   4.955   4.226
10935SOL    HW344060   6.944   4.885   4.103
10935SOL    MW444061   6.916   4.883   4.185
10936SOL     OW44062   6.578   3.789   4.246
10936SOL    HW244063   6.615   3.848   4.311
10936SOL    HW344064   6.555   3.845   4.172
10936SOL    MW444065   6.579   3.804   4.245
10937SOL     OW44066   7.431   4.671   4.668
10937SOL    HW244067   7.422   4.703   4.579
10937SOL    HW344068   7.384   4.587   4.668
10937SOL    MW444069   7.424   4.664   4.658
10938SOL     OW44070   5.807   4.511   5.247
10938SOL    HW244071   5.828   4.580   5.185
10938SOL    HW344072   5.887   4.458   5.252
10938SOL    MW444073   5.820   4.512   5.241
10939SOL     OW44074   7.343   4.602   4.369
10939SOL    HW244075   7.437   4.591   4.357
10939SOL    HW344076   7.319   4.674   4.310
10939SOL    MW444077   7.353   4.610   4.360
10940SOL     OW44078   5.792   4.526   5.514
10940SOL    HW244079   5.718   4.470   5.540
10940SOL    HW344080   5.787   4.529   5.419
10940SOL    MW444081   5.781   4.519   5.504
10941SOL     OW44082   5.958   3.813   4.964
10941SOL    HW244083   6.001   3.897   4.984
10941SOL    HW344084   6.031   3.751   4.957
10941SOL    MW444085   5.973   3.816   4.965
10942SOL     OW44086   5.999   4.480   4.142
10942SOL    HW244087   5.999   4.575   4.127
10942SOL    HW344088   6.076   4.464   4.196
10942SOL    MW444089   6.009   4.491   4.147
10943SOL     OW44090   6.775   4.339   5.206
10943SOL    HW244091   6.811   4.312   5.122
10943SOL    HW344092   6.688   4.373   5.185
10943SOL    MW444093   6.769   4.340   5.193
10944SOL     OW44094   5.758   4.211   4.431
10944SOL    HW244095   5.820   4.218   4.504
10944SOL    HW344096   5.758   4.118   4.408
10944SOL    MW444097   5.766   4.200   4.438
10945SOL     OW44098   7.305   5.551   3.963
10945SOL    HW244099   7.372   5.584   3.903
10945SOL    HW344100   7.262   5.630   3.997
10945SOL    MW444101   7.307   5.566   3.959
10946SOL     OW44102   6.440   4.472   4.915
10946SOL    HW244103   6.398   4.390   4.891
10946SOL    HW344104   6.441   4.471   5.011
10946SOL    MW444105   6.433   4.461   4.924
10947SOL     OW44106   7.111   5.605   5.314
10947SOL    HW244107   7.114   5.511   5.297
10947SOL    HW344108   7.134   5.613   5.406
10947SOL    MW444109   7.114   5.593   5.324
10948SOL     OW44110   6.244   3.942   5.020
10948SOL    HW244111   6.175   4.005   5.041
10948SOL    HW344112   6.271   3.906   5.105
10948SOL    MW444113   6.238   3.945   5.033
10949SOL     OW44114   5.627   4.783   3.889
10949SOL    HW244115   5.596   4.848   3.952
10949SOL    HW344116   5.576   4.705   3.908
10949SOL    MW444117   5.617   4.780   3.899
10950SOL     OW44118   7.039   3.795   4.637
10950SOL    HW244119   7.127   3.804   4.674
10950SOL    HW344120   7.049   3.736   4.563
10950SOL    MW444121   7.053   3.789   4.631
10951SOL     OW44122   7.071   4.534   4.481
10951SOL    HW244123   7.151   4.549   4.430
10951SOL    HW344124   7.064   4.439   4.487
10951SOL    MW444125   7.080   4.523   4.476
10952SOL     OW44126   6.211   5.583   3.831
10952SOL    HW244127   6.116   5.583   3.823
10952SOL    HW344128   6.227   5.529   3.909
10952SOL    MW444129   6.201   5.577   3.840
10953SOL     OW44130   6.521   4.460   5.178
10953SOL    HW244131   6.590   4.527   5.175
10953SOL    HW344132   6.454   4.498   5.234
10953SOL    MW444133   6.522   4.473   5.185
10954SOL     OW44134   5.939   4.760   5.426
10954SOL    HW244135   5.893   4.676   5.428
10954SOL    HW344136   5.996   4.754   5.350
10954SOL    MW444137   5.941   4.748   5.418
10955SOL     OW44138   7.056   4.403   3.747
10955SOL    HW244139   6.984   4.379   3.689
10955SOL    HW344140   7.122   4.440   3.689
10955SOL    MW444141   7.055   4.405   3.732
10956SOL     OW44142   6.190   5.135   4.427
10956SOL    HW244143   6.255   5.068   4.448
10956SOL    HW344144   6.242   5.212   4.404
10956SOL    MW444145   6.205   5.137   4.426
10957SOL     OW44146   6.451   4.300   4.557
10957SOL    HW244147   6.391   4.318   4.629
10957SOL    HW344148   6.485   4.212   4.576
10957SOL    MW444149   6.447   4.290   4.570
10958SOL     OW44150   7.392   3.799   5.226
10958SOL    HW244151   7.313   3.845   5.254
10958SOL    HW344152   7.427   3.853   5.155
10958SOL    MW444153   7.386   3.812   5.220
10959SOL     OW44154   6.676   4.883   4.576
10959SOL    HW244155   6.768   4.864   4.594
10959SOL    HW344156   6.649   4.813   4.516
10959SOL    MW444157   6.684   4.871   4.570
10960SOL     OW44158   6.469   4.703   3.931
10960SOL    HW244159   6.455   4.615   3.896
10960SOL    HW344160   6.420   4.760   3.872
10960SOL    MW444161   6.461   4.698   3.919
10961SOL     OW44162   6.950   5.121   4.672
10961SOL    HW244163   6.923   5.205   4.637
10961SOL    HW344164   6.910   5.116   4.759
10961SOL    MW444165   6.943   5.130   4.678
10962SOL     OW44166   6.869   5.069   4.940
10962SOL    HW244167   6.880   5.036   5.029
10962SOL    HW344168   6.788   5.028   4.909
10962SOL    MW444169   6.859   5.061   4.946
10963SOL     OW44170   5.882   4.427   4.710
10963SOL    HW244171   5.832   4.426   4.791
10963SOL    HW344172   5.902   4.519   4.694
10963SOL    MW444173   5.878   4.439   4.718
10964SOL     OW44174   6.949   5.191   5.472
10964SOL    HW244175   6.949   5.285   5.488
10964SOL    HW344176   6.994   5.181   5.388
10964SOL    MW444177   6.955   5.201   5.463
10965SOL     OW44178   7.188   3.909   4.033
10965SOL    HW244179   7.181   3.913   4.128
10965SOL    HW344180   7.200   4.000   4.006
10965SOL    MW444181   7.189   3.922   4.041
10966SOL     OW44182   6.477   4.472   4.147
10966SOL    HW244183   6.457   4.458   4.054
10966SOL    HW344184   6.570   4.451   4.154
10966SOL    MW444185   6.487   4.467   4.136
10967SOL     OW44186   5.804   4.095   5.451
10967SOL    HW244187   5.761   4.154   5.388
10967SOL    HW344188   5.872   4.150   5.491
10967SOL    MW444189   5.808   4.110   5.448
10968SOL     OW44190   6.916   4.715   4.996
10968SOL    HW244191   6.979   4.712   5.069
10968SOL    HW344192   6.832   4.733   5.038
10968SOL    MW444193   6.912   4.717   5.011
10969SOL     OW44194   6.460   5.430   4.185
10969SOL    HW244195   6.518   5.501   4.212
10969SOL    HW344196   6.483   5.358   4.243
10969SOL    MW444197   6.471   5.430   4.196
10970SOL     OW44198   7.255   3.892   4.775
10970SOL    HW244199   7.300   3.810   4.794
10970SOL    HW344200   7.275   3.948   4.851
10970SOL    MW444201   7.265   3.888   4.787
10971SOL     OW44202   5.703   3.735   4.874
10971SOL    HW244203   5.694   3.736   4.779
10971SOL    HW344204   5.797   3.747   4.889
10971SOL    MW444205   5.715   3.738   4.865
10972SOL     OW44206   7.340   4.928   4.494
10972SOL    HW244207   7.319   4.874   4.417
10972SOL    HW344208   7.436   4.926   4.498
10972SOL    MW444209   7.349   4.921   4.483
10973SOL     OW44210   6.032   5.073   5.237
10973SOL    HW244211   5.953   5.023   5.260
10973SOL    HW344212   6.102   5.032   5.287
10973SOL    MW444213   6.030   5.061   5.247
10974SOL     OW44214   5.916   3.862   3.920
10974SOL    HW244215   5.845   3.917   3.888
10974SOL    HW344216   5.958   3.828   3.841
10974SOL    MW444217   5.912   3.864   3.906
10975SOL     OW44218   7.040   4.359   4.756
10975SOL    HW244219   6.963   4.405   4.722
10975SOL    HW344220   7.097   4.428   4.790
10975SOL    MW444221   7.037   4.374   4.756
10976SOL     OW44222   5.672   3.961   3.769
10976SOL    HW244223   5.639   4.040   3.813
10976SOL    HW344224   5.727   3.994   3.698
10976SOL    MW444225   5.675   3.975   3.766
10977SOL     OW44226   5.706   5.218   3.958
10977SOL    HW244227   5.723   5.302   4.000
10977SOL    HW344228   5.741   5.227   3.870
10977SOL    MW444229   5.711   5.231   3.952
10978SOL     OW44230   6.978   5.307   4.175
10978SOL    HW244231   7.041   5.297   4.104
10978SOL    HW344232   6.895   5.327   4.130
10978SOL    MW444233   6.975   5.308   4.160
10979SOL     OW44234   7.341   4.575   5.862
10979SOL    HW244235   7.382   4.517   5.927
10979SOL    HW344236   7.248   4.567   5.879
10979SOL    MW444237   7.335   4.567   5.872
10980SOL     OW44238   6.135   4.758   6.091
10980SOL    HW244239   6.225   4.733   6.075
10980SOL    HW344240   6.131   4.851   6.068
10980SOL    MW444241   6.147   4.767   6.086
10981SOL     OW44242   7.251   5.461   6.233
10981SOL    HW244243   7.263   5.407   6.311
10981SOL    HW344244   7.288   5.409   6.162
10981SOL    MW444245   7.257   5.446   6.234
10982SOL     OW44246   6.419   4.214   6.104
10982SOL    HW244247   6.394   4.302   6.132
10982SOL    HW344248   6.416   4.217   6.008
10982SOL    MW444249   6.415   4.226   6.096
10983SOL     OW44250   5.861   4.242   6.032
10983SOL    HW244251   5.893   4.330   6.014
10983SOL    HW344252   5.849   4.240   6.127
10983SOL    MW444253   5.864   4.254   6.044
10984SOL     OW44254   6.260   3.997   6.119
10984SOL    HW244255   6.318   4.073   6.121
10984SOL    HW344256   6.195   4.018   6.052
10984SOL    MW444257   6.259   4.009   6.110
10985SOL     OW44258   6.347   4.924   6.294
10985SOL    HW244259   6.427   4.927   6.346
10985SOL    HW344260   6.375   4.891   6.208
10985SOL    MW444261   6.361   4.920   6.289
10986SOL     OW44262   6.124   4.428   6.285
10986SOL    HW244263   6.109   4.348   6.336
10986SOL    HW344264   6.206   4.463   6.319
10986SOL    MW444265   6.132   4.420   6.297
10987SOL     OW44266   5.709   5.514   6.441
10987SOL    HW244267   5.798   5.506   6.476
10987SOL    HW344268   5.673   5.426   6.446
10987SOL    MW444269   5.716   5.501   6.446
10988SOL     OW44270   6.974   4.906   5.810
10988SOL    HW244271   6.892   4.942   5.776
10988SOL    HW344272   7.042   4.949   5.759
10988SOL    MW444273   6.972   4.916   5.798
10989SOL     OW44274   6.535   4.685   6.286
10989SOL    HW244275   6.449   4.672   6.326
10989SOL    HW344276   6.588   4.612   6.318
10989SOL    MW444277   6.531   4.674   6.295
10990SOL     OW44278   6.526   5.047   6.003
10990SOL    HW244279   6.503   5.109   6.071
10990SOL    HW344280   6.483   4.965   6.029
10990SOL    MW444281   6.518   5.043   6.014
10991SOL     OW44282   6.023   4.020   5.971
10991SOL    HW244283   5.997   3.982   5.887
10991SOL    HW344284   5.960   4.090   5.987
10991SOL    MW444285   6.012   4.023   5.962
10992SOL     OW44286   5.858   4.981   6.008
10992SOL    HW244287   5.806   5.049   5.964
10992SOL    HW344288   5.855   4.907   5.948
10992SOL    MW444289   5.850   4.980   5.995
10993SOL     OW44290   6.520   5.444   5.786
10993SOL    HW244291   6.475   5.460   5.869
10993SOL    HW344292   6.451   5.409   5.728
10993SOL    MW444293   6.506   5.441   5.788
10994SOL     OW44294   7.455   4.217   5.761
10994SOL    HW244295   7.364   4.219   5.789
10994SOL    HW344296   7.500   4.279   5.819
10994SOL    MW444297   7.448   4.225   5.771
10995SOL     OW44298   7.200   4.820   6.111
10995SOL    HW244299   7.110   4.820   6.146
10995SOL    HW344300   7.193   4.866   6.028
10995SOL    MW444301   7.187   4.826   6.105
10996SOL     OW44302   5.741   5.335   6.735
10996SOL    HW244303   5.724   5.281   6.812
10996SOL    HW344304   5.729   5.425   6.765
10996SOL    MW444305   5.738   5.339   6.749
10997SOL     OW44306   7.107   4.798   6.503
10997SOL    HW244307   7.110   4.732   6.434
10997SOL    HW344308   7.192   4.841   6.499
10997SOL    MW444309   7.119   4.794   6.494
10998SOL     OW44310   6.727   4.401   6.072
10998SOL    HW244311   6.753   4.425   5.983
10998SOL    HW344312   6.709   4.308   6.068
10998SOL    MW444313   6.729   4.393   6.059
10999SOL     OW44314   7.392   5.021   5.923
10999SOL    HW244315   7.348   5.062   5.998
10999SOL    HW344316   7.449   5.089   5.888
10999SOL    MW444317   7.394   5.035   5.928
11000SOL     OW44318   6.048   5.437   6.241
11000SOL    HW244319   6.080   5.525   6.219
11000SOL    HW344320   6.001   5.409   6.163
11000SOL    MW444321   6.047   5.445   6.228
11001SOL     OW44322   7.432   3.799   6.290
11001SOL    HW244323   7.486   3.750   6.352
11001SOL    HW344324   7.375   3.733   6.251
11001SOL    MW444325   7.432   3.783   6.292
11002SOL     OW44326   5.764   5.497   5.818
11002SOL    HW244327   5.793   5.587   5.810
11002SOL    HW344328   5.714   5.480   5.739
11002SOL    MW444329   5.762   5.505   5.807
11003SOL     OW44330   7.168   5.305   5.789
11003SOL    HW244331   7.216   5.374   5.835
11003SOL    HW344332   7.089   5.349   5.758
11003SOL    MW444333   7.163   5.319   5.792
11004SOL     OW44334   6.566   4.430   5.733
11004SOL    HW244335   6.568   4.377   5.654
11004SOL    HW344336   6.654   4.467   5.739
11004SOL    MW444337   6.578   4.429   5.722
11005SOL     OW44338   7.180   4.356   6.069
11005SOL    HW244339   7.219   4.356   6.156
11005SOL    HW344340   7.121   4.432   6.069
11005SOL    MW444341   7.177   4.367   6.080
11006SOL     OW44342   7.367   4.242   6.235
11006SOL    HW244343   7.456   4.211   6.252
11006SOL    HW344344   7.310   4.182   6.283
11006SOL    MW444345   7.370   4.230   6.244
11007SOL     OW44346   5.793   3.956   6.264
11007SOL    HW244347   5.784   3.896   6.190
11007SOL    HW344348   5.726   3.927   6.327
11007SOL    MW444349   5.783   3.943   6.262
11008SOL     OW44350   6.736   5.049   5.825
11008SOL    HW244351   6.686   5.051   5.907
11008SOL    HW344352   6.670   5.067   5.757
11008SOL    MW444353   6.722   5.051   5.827
11009SOL     OW44354   5.740   4.129   6.627
11009SOL    HW244355   5.712   4.220   6.636
11009SOL    HW344356   5.677   4.090   6.566
11009SOL    MW444357   5.727   4.135   6.621
11010SOL     OW44358   6.199   5.467   5.933
11010SOL    HW244359   6.120   5.425   5.966
11010SOL    HW344360   6.265   5.450   6.000
11010SOL    MW444361   6.198   5.459   5.946
11011SOL     OW44362   6.335   4.882   5.640
11011SOL    HW244363   6.257   4.828   5.627
11011SOL    HW344364   6.306   4.955   5.693
11011SOL    MW444365   6.321   4.884   5.645
11012SOL     OW44366   6.916   5.398   5.708
11012SOL    HW244367   6.842   5.361   5.758
11012SOL    HW344368   6.924   5.488   5.741
11012SOL    MW444369   6.907   5.405   5.720
11013SOL     OW44370   7.140   5.072   5.650
11013SOL    HW244371   7.087   5.121   5.586
11013SOL    HW344372   7.171   5.138   5.711
11013SOL    MW444373   7.138   5.086   5.648
11014SOL     OW44374   6.365   3.961   5.705
11014SOL    HW244375   6.313   3.881   5.693
11014SOL    HW344376   6.452   3.938   5.673
11014SOL    MW444377   6.368   3.947   5.699
11015SOL     OW44378   5.871   4.832   6.756
11015SOL    HW244379   5.924   4.907   6.781
11015SOL    HW344380   5.790   4.870   6.722
11015SOL    MW444381   5.867   4.847   6.756
11016SOL     OW44382   5.726   4.601   6.162
11016SOL    HW244383   5.817   4.616   6.189
11016SOL    HW344384   5.729   4.522   6.108
11016SOL    MW444385   5.738   4.593   6.160
11017SOL     OW44386   5.734   5.213   6.201
11017SOL    HW244387   5.706   5.252   6.283
11017SOL    HW344388   5.754   5.122   6.223
11017SOL    MW444389   5.732   5.205   6.214
11018SOL     OW44390   6.567   5.256   6.236
11018SOL    HW244391   6.650   5.210   6.220
11018SOL    HW344392   6.557   5.255   6.332
11018SOL    MW444393   6.577   5.249   6.246
11019SOL     OW44394   7.399   4.401   6.550
11019SOL    HW244395   7.488   4.431   6.532
11019SOL    HW344396   7.379   4.341   6.479
11019SOL    MW444397   7.408   4.398   6.539
11020SOL     OW44398   6.300   5.313   5.641
11020SOL    HW244399   6.240   5.382   5.611
11020SOL    HW344400   6.245   5.255   5.694
11020SOL    MW444401   6.284   5.315   5.643
11021SOL     OW44402   6.738   3.958   5.864
11021SOL    HW244403   6.671   3.934   5.801
11021SOL    HW344404   6.803   4.007   5.813
11021SOL    MW444405   6.738   3.960   5.849
11022SOL     OW44406   6.257   4.675   6.376
11022SOL    HW244407   6.168   4.666   6.409
11022SOL    HW344408   6.261   4.765   6.344
11022SOL    MW444409   6.246   4.686   6.376
11023SOL     OW44410   7.056   4.258   6.371
11023SOL    HW244411   7.001   4.179   6.370
11023SOL    HW344412   7.038   4.299   6.455
11023SOL    MW444413   7.046   4.253   6.380
11024SOL     OW44414   6.675   4.462   6.328
11024SOL    HW244415   6.612   4.394   6.352
11024SOL    HW344416   6.695   4.443   6.236
11024SOL    MW444417   6.669   4.449   6.320
11025SOL     OW44418   5.931   5.357   6.030
11025SOL    HW244419   5.892   5.404   5.956
11025SOL    HW344420   5.865   5.292   6.055
11025SOL    MW444421   5.918   5.355   6.024
11026SOL     OW44422   6.423   4.766   6.054
11026SOL    HW244423   6.425   4.740   5.961
11026SOL    HW344424   6.481   4.703   6.097
11026SOL    MW444425   6.431   4.755   6.048
11027SOL     OW44426   6.980   5.534   6.256
11027SOL    HW244427   6.923   5.487   6.195
11027SOL    HW344428   7.066   5.495   6.243
11027SOL    MW444429   6.983   5.525   6.246
11028SOL     OW44430   6.933   4.010   6.387
11028SOL    HW244431   6.961   3.942   6.448
11028SOL    HW344432   6.847   3.981   6.357
11028SOL    MW444433   6.926   3.997   6.391
11029SOL     OW44434   5.738   4.944   6.321
11029SOL    HW244435   5.802   4.976   6.384
11029SOL    HW344436   5.787   4.880   6.269
11029SOL    MW444437   5.753   4.940   6.322
11030SOL     OW44438   6.913   4.114   5.722
11030SOL    HW244439   6.886   4.180   5.658
11030SOL    HW344440   6.983   4.157   5.772
11030SOL    MW444441   6.918   4.127   5.719
11031SOL     OW44442   6.581   3.819   5.659
11031SOL    HW244443   6.637   3.811   5.581
11031SOL    HW344444   6.558   3.729   5.681
11031SOL    MW444445   6.586   3.806   5.652
11032SOL     OW44446   7.086   4.670   5.864
11032SOL    HW244447   7.053   4.759   5.854
11032SOL    HW344448   7.051   4.641   5.949
11032SOL    MW444449   7.076   4.679   5.875
11033SOL     OW44450   6.080   4.708   5.656
11033SOL    HW244451   6.003   4.721   5.712
11033SOL    HW344452   6.044   4.672   5.575
11033SOL    MW444453   6.066   4.704   5.653
11034SOL     OW44454   6.733   4.681   5.899
11034SOL    HW244455   6.643   4.702   5.874
11034SOL    HW344456   6.760   4.754   5.955
11034SOL    MW444457   6.725   4.693   5.902
11035SOL     OW44458   6.362   3.797   6.306
11035SOL    HW244459   6.291   3.858   6.288
11035SOL    HW344460   6.413   3.794   6.225
11035SOL    MW444461   6.358   3.803   6.293
11036SOL     OW44462   6.120   5.037   6.055
11036SOL    HW244463   6.113   5.069   6.145
11036SOL    HW344464   6.030   5.021   6.027
11036SOL    MW444465   6.108   5.039   6.062
11037SOL     OW44466   6.829   5.395   6.454
11037SOL    HW244467   6.876   5.468   6.413
11037SOL    HW344468   6.750   5.434   6.490
11037SOL    MW444469   6.824   5.410   6.453
11038SOL     OW44470   6.123   4.321   5.769
11038SOL    HW244471   6.089   4.377   5.839
11038SOL    HW344472   6.194   4.271   5.809
11038SOL    MW444473   6.129   4.322   5.783
11039SOL     OW44474   7.219   5.072   6.591
11039SOL    HW244475   7.254   5.054   6.504
11039SOL    HW344476   7.124   5.073   6.578
11039SOL    MW444477   7.211   5.069   6.578
11040SOL     OW44478   7.179   4.207   5.833
11040SOL    HW244479   7.171   4.278   5.770
11040SOL    HW344480   7.197   4.251   5.916
11040SOL    MW444481   7.180   4.221   5.835
11041SOL     OW44482   6.039   3.862   6.262
11041SOL    HW244483   6.089   3.905   6.193
11041SOL    HW344484   5.954   3.906   6.262
11041SOL    MW444485   6.036   3.875   6.253
11042SOL     OW44486   6.848   4.469   5.808
11042SOL    HW244487   6.895   4.487   5.727
11042SOL    HW344488   6.814   4.553   5.836
11042SOL    MW444489   6.850   4.483   5.801
11043SOL     OW44490   5.961   4.647   6.302
11043SOL    HW244491   6.019   4.703   6.250
11043SOL    HW344492   6.005   4.562   6.304
11043SOL    MW444493   5.974   4.644   6.295
11044SOL     OW44494   7.101   3.999   6.139
11044SOL    HW244495   7.023   3.949   6.164
11044SOL    HW344496   7.072   4.090   6.139
11044SOL    MW444497   7.087   4.003   6.142
11045SOL     OW44498   6.687   3.961   6.298
11045SOL    HW244499   6.707   4.036   6.242
11045SOL    HW344500   6.667   4.000   6.383
11045SOL    MW444501   6.688   3.977   6.302
11046SOL     OW44502   6.583   5.211   5.630
11046SOL    HW244503   6.610   5.289   5.582
11046SOL    HW344504   6.490   5.226   5.649
11046SOL    MW444505   6.574   5.224   5.626
11047SOL     OW44506   5.668   5.247   6.474
11047SOL    HW244507   5.700   5.251   6.565
11047SOL    HW344508   5.573   5.255   6.482
11047SOL    MW444509   5.660   5.250   6.487
11048SOL     OW44510   5.623   4.373   6.021
11048SOL    HW244511   5.563   4.345   6.091
11048SOL    HW344512   5.697   4.313   6.027
11048SOL    MW444513   5.625   4.362   6.030
11049SOL     OW44514   6.791   5.104   6.181
11049SOL    HW244515   6.814   5.055   6.259
11049SOL    HW344516   6.872   5.146   6.153
11049SOL    MW444517   6.804   5.104   6.188
11050SOL     OW44518   7.475   4.899   6.678
11050SOL    HW244519   7.468   4.839   6.603
11050SOL    HW344520   7.401   4.959   6.667
11050SOL    MW444521   7.465   4.899   6.667
11051SOL     OW44522   6.931   3.771   5.817
11051SOL    HW244523   7.005   3.815   5.860
11051SOL    HW344524   6.855   3.825   5.839
11051SOL    MW444525   6.931   3.783   5.825
11052SOL     OW44526   6.991   4.546   6.095
11052SOL    HW244527   6.906   4.516   6.065
11052SOL    HW344528   6.983   4.553   6.190
11052SOL    MW444529   6.979   4.544   6.104
11053SOL     OW44530   6.364   4.212   5.821
11053SOL    HW244531   6.437   4.261   5.784
11053SOL    HW344532   6.380   4.121   5.795
11053SOL    MW444533   6.376   4.207   5.814
11054SOL     OW44534   5.839   4.721   5.919
11054SOL    HW244535   5.776   4.737   5.848
11054SOL    HW344536   5.786   4.684   5.990
11054SOL    MW444537   5.824   4.718   5.919
11055SOL     OW44538   6.195   5.075   5.778
11055SOL    HW244539   6.210   5.051   5.870
11055SOL    HW344540   6.103   5.053   5.762
11055SOL    MW444541   6.185   5.068   5.788
11056SOL     OW44542   6.734   5.306   5.930
11056SOL    HW244543   6.742   5.224   5.881
11056SOL    HW344544   6.653   5.345   5.897
11056SOL    MW444545   6.724   5.301   5.920
11057SOL     OW44546   6.070   4.187   6.376
11057SOL    HW244547   6.141   4.135   6.339
11057SOL    HW344548   6.056   4.152   6.463
11057SOL    MW444549   6.078   4.176   6.383
11058SOL     OW44550   6.706   4.128   6.100
11058SOL    HW244551   6.728   4.065   6.032
11058SOL    HW344552   6.611   4.120   6.111
11058SOL    MW444553   6.696   4.119   6.092
11059SOL     OW44554   5.791   3.818   6.032
11059SOL    HW244555   5.862   3.839   5.971
11059SOL    HW344556   5.745   3.746   5.990
11059SOL    MW444557   5.795   3.812   6.018
11060SOL     OW44558   7.360   5.192   6.132
11060SOL    HW244559   7.330   5.125   6.193
11060SOL    HW344560   7.454   5.198   6.146
11060SOL    MW444561   7.368   5.184   6.142
11061SOL     OW44562   6.916   4.869   6.062
11061SOL    HW244563   6.888   4.955   6.095
11061SOL    HW344564   6.944   4.885   5.972
11061SOL    MW444565   6.916   4.883   6.054
11062SOL     OW44566   6.578   3.789   6.115
11062SOL    HW244567   6.615   3.848   6.180
11062SOL    HW344568   6.555   3.845   6.041
11062SOL    MW444569   6.579   3.804   6.114
11063SOL     OW44570   7.431   4.671   6.537
11063SOL    HW244571   7.422   4.703   6.448
11063SOL    HW344572   7.384   4.587   6.537
11063SOL    MW444573   7.424   4.664   6.527
11064SOL     OW44574   7.343   4.602   6.238
11064SOL    HW244575   7.437   4.591   6.226
11064SOL    HW344576   7.319   4.674   6.179
11064SOL    MW444577   7.353   4.610   6.229
11065SOL     OW44578   5.999   4.480   6.011
11065SOL    HW244579   5.999   4.575   5.996
11065SOL    HW344580   6.076   4.464   6.065
11065SOL    MW444581   6.009   4.491   6.016
11066SOL     OW44582   5.758   4.211   6.300
11066SOL    HW244583   5.820   4.218   6.373
11066SOL    HW344584   5.758   4.118   6.277
11066SOL    MW444585   5.766   4.200   6.307
11067SOL     OW44586   7.305   5.551   5.832
11067SOL    HW244587   7.372   5.584   5.772
11067SOL    HW344588   7.262   5.630   5.866
11067SOL    MW444589   7.307   5.566   5.828
11068SOL     OW44590   5.627   4.783   5.758
11068SOL    HW244591   5.596   4.848   5.821
11068SOL    HW344592   5.576   4.705   5.777
11068SOL    MW444593   5.617   4.780   5.768
11069SOL     OW44594   7.071   4.534   6.350
11069SOL    HW244595   7.151   4.549   6.299
11069SOL    HW344596   7.064   4.439   6.356
11069SOL    MW444597   7.080   4.523   6.345
11070SOL     OW44598   6.211   5.583   5.700
11070SOL    HW244599   6.116   5.583   5.692
11070SOL    HW344600   6.227   5.529   5.778
11070SOL    MW444601   6.201   5.577   5.709
11071SOL     OW44602   7.056   4.403   5.615
11071SOL    HW244603   6.984   4.379   5.557
11071SOL    HW344604   7.122   4.440   5.557
11071SOL    MW444605   7.055   4.405   5.600
11072SOL     OW44606   6.190   5.135   6.296
11072SOL    HW244607   6.255   5.068   6.317
11072SOL    HW344608   6.242   5.212   6.273
11072SOL    MW444609   6.205   5.137   6.295
11073SOL     OW44610   6.451   4.300   6.426
11073SOL    HW244611   6.391   4.318   6.498
11073SOL    HW344612   6.485   4.212   6.445
11073SOL    MW444613   6.447   4.290   6.439
11074SOL     OW44614   6.469   4.703   5.800
11074SOL    HW244615   6.455   4.615   5.765
11074SOL    HW344616   6.420   4.760   5.741
11074SOL    MW444617   6.461   4.698   5.788
11075SOL     OW44618   7.188   3.909   5.902
11075SOL    HW244619   7.181   3.913   5.997
11075SOL    HW344620   7.200   4.000   5.875
11075SOL    MW444621   7.189   3.922   5.910
11076SOL     OW44622   6.477   4.472   6.016
11076SOL    HW244623   6.457   4.458   5.923
11076SOL    HW344624   6.570   4.451   6.023
11076SOL    MW444625   6.487   4.467   6.005
11077SOL     OW44626   6.460   5.430   6.054
11077SOL    HW244627   6.518   5.501   6.081
11077SOL    HW344628   6.483   5.358   6.112
11077SOL    MW444629   6.471   5.430   6.065
11078SOL     OW44630   7.340   4.928   6.363
11078SOL    HW244631   7.319   4.874   6.286
11078SOL    HW344632   7.436   4.926   6.367
11078SOL    MW444633   7.349   4.921   6.352
11079SOL     OW44634   5.916   3.862   5.789
11079SOL    HW244635   5.845   3.917   5.757
11079SOL    HW344636   5.958   3.828   5.710
11079SOL    MW444637   5.912   3.864   5.775
11080SOL     OW44638   5.672   3.961   5.638
11080SOL    HW244639   5.639   4.040   5.682
11080SOL    HW344640   5.727   3.994   5.567
11080SOL    MW444641   5.675   3.975   5.635
11081SOL     OW44642   5.706   5.218   5.827
11081SOL    HW244643   5.723   5.302   5.869
11081SOL    HW344644   5.741   5.227   5.739
11081SOL    MW444645   5.711   5.231   5.821
11082SOL     OW44646   6.978   5.307   6.044
11082SOL    HW244647   7.041   5.297   5.973
11082SOL    HW344648   6.895   5.327   5.999
11082SOL    MW444649   6.975   5.308   6.029
11083SOL     OW44650   7.207   6.376   1.252
11083SOL    HW244651   7.162   6.443   1.303
11083SOL    HW344652   7.295   6.412   1.238
11083SOL    MW444653   7.213   6.389   1.256
11084SOL     OW44654   6.135   6.627   0.486
11084SOL    HW244655   6.225   6.602   0.470
11084SOL    HW344656   6.131   6.720   0.463
11084SOL    MW444657   6.147   6.636   0.481
11085SOL     OW44658   7.251   7.330   0.628
11085SOL    HW244659   7.263   7.276   0.706
11085SOL    HW344660   7.288   7.278   0.557
11085SOL    MW444661   7.257   7.315   0.629
11086SOL     OW44662   6.630   7.215   1.629
11086SOL    HW244663   6.671   7.251   1.550
11086SOL    HW344664   6.665   7.126   1.636
11086SOL    MW444665   6.641   7.208   1.620
11087SOL     OW44666   7.187   6.770   1.233
11087SOL    HW244667   7.108   6.735   1.191
11087SOL    HW344668   7.214   6.842   1.177
11087SOL    MW444669   7.180   6.775   1.220
11088SOL     OW44670   6.419   6.083   0.499
11088SOL    HW244671   6.394   6.171   0.527
11088SOL    HW344672   6.416   6.086   0.403
11088SOL    MW444673   6.415   6.095   0.491
11089SOL     OW44674   5.861   6.111   0.427
11089SOL    HW244675   5.893   6.199   0.409
11089SOL    HW344676   5.849   6.109   0.522
11089SOL    MW444677   5.864   6.123   0.439
11090SOL     OW44678   5.939   6.524   1.328
11090SOL    HW244679   6.002   6.471   1.279
11090SOL    HW344680   5.920   6.598   1.271
11090SOL    MW444681   5.945   6.526   1.315
11091SOL     OW44682   6.260   5.866   0.514
11091SOL    HW244683   6.318   5.942   0.516
11091SOL    HW344684   6.195   5.887   0.447
11091SOL    MW444685   6.259   5.878   0.505
11092SOL     OW44686   6.347   6.793   0.689
11092SOL    HW244687   6.427   6.796   0.741
11092SOL    HW344688   6.375   6.760   0.603
11092SOL    MW444689   6.361   6.789   0.684
11093SOL     OW44690   6.372   7.134   1.592
11093SOL    HW244691   6.456   7.160   1.631
11093SOL    HW344692   6.396   7.078   1.518
11093SOL    MW444693   6.386   7.130   1.587
11094SOL     OW44694   6.124   6.297   0.680
11094SOL    HW244695   6.109   6.217   0.731
11094SOL    HW344696   6.206   6.332   0.714
11094SOL    MW444697   6.132   6.289   0.692
11095SOL     OW44698   6.461   6.983   1.365
11095SOL    HW244699   6.425   7.049   1.305
11095SOL    HW344700   6.389   6.921   1.378
11095SOL    MW444701   6.447   6.983   1.359
11096SOL     OW44702   6.266   6.123   1.057
11096SOL    HW244703   6.172   6.119   1.075
11096SOL    HW344704   6.296   6.032   1.066
11096SOL    MW444705   6.257   6.111   1.060
11097SOL     OW44706   6.012   6.537   0.961
11097SOL    HW244707   5.967   6.544   0.877
11097SOL    HW344708   5.992   6.620   1.005
11097SOL    MW444709   6.004   6.549   0.955
11098SOL     OW44710   5.709   7.383   0.836
11098SOL    HW244711   5.798   7.375   0.871
11098SOL    HW344712   5.673   7.295   0.841
11098SOL    MW444713   5.716   7.370   0.841
11099SOL     OW44714   5.973   6.910   0.871
11099SOL    HW244715   5.949   6.963   0.947
11099SOL    HW344716   6.029   6.968   0.819
11099SOL    MW444717   5.977   6.925   0.874
11100SOL     OW44718   6.535   6.554   0.681
11100SOL    HW244719   6.449   6.541   0.721
11100SOL    HW344720   6.588   6.481   0.713
11100SOL    MW444721   6.531   6.543   0.690
11101SOL     OW44722   5.943   7.206   1.466
11101SOL    HW244723   5.851   7.182   1.451
11101SOL    HW344724   5.987   7.123   1.483
11101SOL    MW444725   5.937   7.191   1.465
11102SOL     OW44726   6.526   6.916   0.398
11102SOL    HW244727   6.503   6.978   0.466
11102SOL    HW344728   6.483   6.834   0.424
11102SOL    MW444729   6.518   6.912   0.409
11103SOL     OW44730   7.399   5.917   0.854
11103SOL    HW244731   7.336   5.897   0.923
11103SOL    HW344732   7.389   5.846   0.791
11103SOL    MW444733   7.389   5.904   0.855
11104SOL     OW44734   5.858   6.850   0.403
11104SOL    HW244735   5.806   6.918   0.359
11104SOL    HW344736   5.855   6.776   0.343
11104SOL    MW444737   5.850   6.849   0.390
11105SOL     OW44738   6.520   7.313   0.181
11105SOL    HW244739   6.475   7.329   0.264
11105SOL    HW344740   6.451   7.278   0.123
11105SOL    MW444741   6.506   7.310   0.183
11106SOL     OW44742   7.200   6.689   0.506
11106SOL    HW244743   7.110   6.689   0.541
11106SOL    HW344744   7.193   6.735   0.423
11106SOL    MW444745   7.187   6.695   0.500
11107SOL     OW44746   7.000   6.324   1.578
11107SOL    HW244747   7.069   6.262   1.555
11107SOL    HW344748   6.925   6.298   1.525
11107SOL    MW444749   7.000   6.311   1.569
11108SOL     OW44750   5.741   7.204   1.130
11108SOL    HW244751   5.724   7.150   1.207
11108SOL    HW344752   5.729   7.294   1.160
11108SOL    MW444753   5.738   7.208   1.144
11109SOL     OW44754   6.736   6.711   1.570
11109SOL    HW244755   6.721   6.804   1.555
11109SOL    HW344756   6.831   6.701   1.570
11109SOL    MW444757   6.745   6.721   1.567
11110SOL     OW44758   6.532   6.135   1.771
11110SOL    HW244759   6.622   6.136   1.738
11110SOL    HW344760   6.491   6.060   1.729
11110SOL    MW444761   6.538   6.125   1.762
11111SOL     OW44762   7.107   6.667   0.898
11111SOL    HW244763   7.110   6.601   0.829
11111SOL    HW344764   7.192   6.710   0.894
11111SOL    MW444765   7.119   6.663   0.889
11112SOL     OW44766   6.727   6.270   0.467
11112SOL    HW244767   6.753   6.294   0.378
11112SOL    HW344768   6.709   6.177   0.463
11112SOL    MW444769   6.729   6.262   0.454
11113SOL     OW44770   7.392   6.890   0.318
11113SOL    HW244771   7.348   6.931   0.393
11113SOL    HW344772   7.449   6.958   0.283
11113SOL    MW444773   7.394   6.904   0.323
11114SOL     OW44774   6.312   5.939   1.721
11114SOL    HW244775   6.322   5.865   1.661
11114SOL    HW344776   6.348   5.908   1.804
11114SOL    MW444777   6.318   5.925   1.723
11115SOL     OW44778   6.048   7.306   0.636
11115SOL    HW244779   6.080   7.394   0.614
11115SOL    HW344780   6.001   7.278   0.558
11115SOL    MW444781   6.047   7.314   0.623
11116SOL     OW44782   7.432   5.668   0.685
11116SOL    HW244783   7.486   5.619   0.747
11116SOL    HW344784   7.375   5.602   0.646
11116SOL    MW444785   7.432   5.652   0.687
11117SOL     OW44786   6.551   5.621   1.098
11117SOL    HW244787   6.510   5.699   1.060
11117SOL    HW344788   6.645   5.639   1.093
11117SOL    MW444789   6.557   5.633   1.093
11118SOL     OW44790   7.180   6.225   0.464
11118SOL    HW244791   7.219   6.225   0.551
11118SOL    HW344792   7.121   6.301   0.464
11118SOL    MW444793   7.177   6.236   0.475
11119SOL     OW44794   6.497   6.592   1.593
11119SOL    HW244795   6.474   6.572   1.683
11119SOL    HW344796   6.582   6.636   1.598
11119SOL    MW444797   6.504   6.595   1.605
11120SOL     OW44798   6.577   5.729   1.353
11120SOL    HW244799   6.583   5.691   1.266
11120SOL    HW344800   6.566   5.823   1.338
11120SOL    MW444801   6.578   5.737   1.341
11121SOL     OW44802   6.666   6.218   1.187
11121SOL    HW244803   6.741   6.247   1.134
11121SOL    HW344804   6.598   6.283   1.171
11121SOL    MW444805   6.667   6.230   1.177
11122SOL     OW44806   7.216   6.186   1.464
11122SOL    HW244807   7.197   6.095   1.443
11122SOL    HW344808   7.194   6.235   1.385
11122SOL    MW444809   7.211   6.179   1.451
11123SOL     OW44810   7.358   7.280   1.368
11123SOL    HW244811   7.286   7.242   1.419
11123SOL    HW344812   7.375   7.365   1.409
11123SOL    MW444813   7.352   7.285   1.380
11124SOL     OW44814   6.663   5.924   1.570
11124SOL    HW244815   6.629   5.963   1.489
11124SOL    HW344816   6.641   5.832   1.563
11124SOL    MW444817   6.656   5.917   1.560
11125SOL     OW44818   7.072   6.738   1.646
11125SOL    HW244819   7.154   6.779   1.676
11125SOL    HW344820   7.035   6.700   1.726
11125SOL    MW444821   7.078   6.739   1.661
11126SOL     OW44822   7.367   6.111   0.630
11126SOL    HW244823   7.456   6.080   0.647
11126SOL    HW344824   7.310   6.051   0.678
11126SOL    MW444825   7.370   6.099   0.639
11127SOL     OW44826   5.793   5.825   0.659
11127SOL    HW244827   5.784   5.765   0.585
11127SOL    HW344828   5.726   5.796   0.722
11127SOL    MW444829   5.783   5.812   0.657
11128SOL     OW44830   5.740   5.998   1.022
11128SOL    HW244831   5.712   6.089   1.031
11128SOL    HW344832   5.677   5.959   0.961
11128SOL    MW444833   5.727   6.004   1.016
11129SOL     OW44834   7.327   6.856   1.725
11129SOL    HW244835   7.377   6.782   1.757
11129SOL    HW344836   7.273   6.883   1.800
11129SOL    MW444837   7.327   6.850   1.738
11130SOL     OW44838   7.461   6.491   1.227
11130SOL    HW244839   7.477   6.529   1.140
11130SOL    HW344840   7.495   6.557   1.288
11130SOL    MW444841   7.468   6.504   1.223
11131SOL     OW44842   7.253   7.200   0.896
11131SOL    HW244843   7.282   7.267   0.957
11131SOL    HW344844   7.234   7.124   0.951
11131SOL    MW444845   7.255   7.200   0.911
11132SOL     OW44846   5.724   6.273   1.192
11132SOL    HW244847   5.786   6.303   1.258
11132SOL    HW344848   5.658   6.342   1.186
11132SOL    MW444849   5.723   6.286   1.199
11133SOL     OW44850   5.819   7.382   1.644
11133SOL    HW244851   5.793   7.450   1.582
11133SOL    HW344852   5.867   7.319   1.592
11133SOL    MW444853   5.821   7.382   1.630
11134SOL     OW44854   5.871   6.701   1.151
11134SOL    HW244855   5.924   6.776   1.176
11134SOL    HW344856   5.790   6.739   1.117
11134SOL    MW444857   5.867   6.716   1.151
11135SOL     OW44858   6.411   6.605   1.139
11135SOL    HW244859   6.439   6.514   1.151
11135SOL    HW344860   6.340   6.599   1.075
11135SOL    MW444861   6.404   6.593   1.134
11136SOL     OW44862   5.726   6.470   0.557
11136SOL    HW244863   5.817   6.485   0.584
11136SOL    HW344864   5.729   6.391   0.503
11136SOL    MW444865   5.738   6.462   0.555
11137SOL     OW44866   5.962   6.178   1.811
11137SOL    HW244867   5.909   6.258   1.818
11137SOL    HW344868   6.032   6.190   1.876
11137SOL    MW444869   5.964   6.191   1.819
11138SOL     OW44870   6.348   5.728   1.518
11138SOL    HW244871   6.325   5.636   1.520
11138SOL    HW344872   6.434   5.730   1.475
11138SOL    MW444873   6.355   5.718   1.514
11139SOL     OW44874   6.032   6.252   1.557
11139SOL    HW244875   6.112   6.302   1.543
11139SOL    HW344876   6.023   6.246   1.652
11139SOL    MW444877   6.041   6.258   1.567
11140SOL     OW44878   6.353   7.402   0.931
11140SOL    HW244879   6.442   7.417   0.961
11140SOL    HW344880   6.348   7.449   0.847
11140SOL    MW444881   6.363   7.410   0.924
11141SOL     OW44882   7.009   5.777   1.828
11141SOL    HW244883   7.065   5.704   1.854
11141SOL    HW344884   6.979   5.815   1.910
11141SOL    MW444885   7.013   5.772   1.841
11142SOL     OW44886   5.734   7.082   0.596
11142SOL    HW244887   5.706   7.121   0.678
11142SOL    HW344888   5.754   6.991   0.618
11142SOL    MW444889   5.732   7.074   0.609
11143SOL     OW44890   6.567   7.125   0.631
11143SOL    HW244891   6.650   7.079   0.615
11143SOL    HW344892   6.557   7.124   0.727
11143SOL    MW444893   6.577   7.118   0.641
11144SOL     OW44894   7.399   6.270   0.945
11144SOL    HW244895   7.488   6.300   0.927
11144SOL    HW344896   7.379   6.210   0.874
11144SOL    MW444897   7.408   6.267   0.934
11145SOL     OW44898   7.250   6.449   1.825
11145SOL    HW244899   7.305   6.373   1.806
11145SOL    HW344900   7.252   6.457   1.920
11145SOL    MW444901   7.258   6.440   1.833
11146SOL     OW44902   6.300   7.182   0.036
11146SOL    HW244903   6.240   7.251   0.006
11146SOL    HW344904   6.245   7.124   0.089
11146SOL    MW444905   6.284   7.184   0.038
11147SOL     OW44906   6.545   6.011   1.344
11147SOL    HW244907   6.464   6.052   1.372
11147SOL    HW344908   6.592   6.079   1.296
11147SOL    MW444909   6.540   6.026   1.342
11148SOL     OW44910   6.805   6.349   0.967
11148SOL    HW244911   6.818   6.443   0.977
11148SOL    HW344912   6.766   6.339   0.881
11148SOL    MW444913   6.801   6.360   0.957
11149SOL     OW44914   6.257   6.544   0.771
11149SOL    HW244915   6.168   6.535   0.804
11149SOL    HW344916   6.261   6.634   0.739
11149SOL    MW444917   6.246   6.555   0.771
11150SOL     OW44918   7.056   6.127   0.766
11150SOL    HW244919   7.001   6.048   0.765
11150SOL    HW344920   7.038   6.168   0.850
11150SOL    MW444921   7.046   6.122   0.775
11151SOL     OW44922   6.027   5.814   1.583
11151SOL    HW244923   5.948   5.832   1.635
11151SOL    HW344924   6.022   5.876   1.510
11151SOL    MW444925   6.017   5.824   1.580
11152SOL     OW44926   6.675   6.331   0.723
11152SOL    HW244927   6.612   6.263   0.747
11152SOL    HW344928   6.695   6.312   0.631
11152SOL    MW444929   6.669   6.318   0.715
11153SOL     OW44930   5.931   7.226   0.425
11153SOL    HW244931   5.892   7.273   0.351
11153SOL    HW344932   5.865   7.161   0.450
11153SOL    MW444933   5.918   7.224   0.419
11154SOL     OW44934   6.423   6.635   0.449
11154SOL    HW244935   6.425   6.609   0.356
11154SOL    HW344936   6.481   6.572   0.492
11154SOL    MW444937   6.431   6.624   0.443
11155SOL     OW44938   6.976   7.195   1.221
11155SOL    HW244939   6.901   7.241   1.259
11155SOL    HW344940   6.958   7.102   1.238
11155SOL    MW444941   6.965   7.189   1.229
11156SOL     OW44942   6.980   7.403   0.651
11156SOL    HW244943   6.923   7.356   0.590
11156SOL    HW344944   7.066   7.364   0.638
11156SOL    MW444945   6.983   7.394   0.641
11157SOL     OW44946   6.933   5.879   0.782
11157SOL    HW244947   6.961   5.811   0.843
11157SOL    HW344948   6.847   5.850   0.752
11157SOL    MW444949   6.926   5.866   0.786
11158SOL     OW44950   5.738   6.813   0.716
11158SOL    HW244951   5.802   6.845   0.779
11158SOL    HW344952   5.787   6.749   0.664
11158SOL    MW444953   5.753   6.809   0.717
11159SOL     OW44954   6.238   6.889   1.698
11159SOL    HW244955   6.286   6.972   1.685
11159SOL    HW344956   6.295   6.837   1.754
11159SOL    MW444957   6.252   6.893   1.704
11160SOL     OW44958   5.814   7.131   1.838
11160SOL    HW244959   5.870   7.055   1.853
11160SOL    HW344960   5.763   7.109   1.760
11160SOL    MW444961   5.814   7.118   1.829
11161SOL     OW44962   6.699   6.968   1.447
11161SOL    HW244963   6.610   6.974   1.415
11161SOL    HW344964   6.743   7.047   1.415
11161SOL    MW444965   6.694   6.978   1.439
11162SOL     OW44966   5.992   5.636   1.789
11162SOL    HW244967   5.920   5.601   1.737
11162SOL    HW344968   6.050   5.677   1.724
11162SOL    MW444969   5.990   5.637   1.774
11163SOL     OW44970   6.016   7.126   1.088
11163SOL    HW244971   6.061   7.188   1.145
11163SOL    HW344972   5.923   7.145   1.101
11163SOL    MW444973   6.009   7.136   1.095
11164SOL     OW44974   7.456   6.655   1.442
11164SOL    HW244975   7.371   6.668   1.401
11164SOL    HW344976   7.436   6.619   1.529
11164SOL    MW444977   7.443   6.651   1.447
11165SOL     OW44978   6.438   7.194   1.196
11165SOL    HW244979   6.462   7.183   1.105
11165SOL    HW344980   6.361   7.251   1.194
11165SOL    MW444981   6.430   7.199   1.185
11166SOL     OW44982   6.233   6.899   0.986
11166SOL    HW244983   6.226   6.878   1.080
11166SOL    HW344984   6.151   6.867   0.949
11166SOL    MW444985   6.221   6.893   0.993
11167SOL     OW44986   7.097   5.909   1.388
11167SOL    HW244987   7.044   5.911   1.468
11167SOL    HW344988   7.082   5.822   1.351
11167SOL    MW444989   7.089   5.899   1.393
11168SOL     OW44990   7.433   5.833   1.261
11168SOL    HW244991   7.414   5.900   1.196
11168SOL    HW344992   7.490   5.771   1.216
11168SOL    MW444993   7.437   5.834   1.247
11169SOL     OW44994   5.679   6.991   1.649
11169SOL    HW244995   5.723   6.924   1.595
11169SOL    HW344996   5.594   6.953   1.669
11169SOL    MW444997   5.674   6.977   1.645
11170SOL     OW44998   6.362   5.666   0.701
11170SOL    HW244999   6.291   5.727   0.683
11170SOL    HW345000   6.413   5.663   0.620
11170SOL    MW445001   6.358   5.672   0.688
11171SOL     OW45002   6.120   6.906   0.450
11171SOL    HW245003   6.113   6.938   0.540
11171SOL    HW345004   6.030   6.890   0.422
11171SOL    MW445005   6.108   6.908   0.457
11172SOL     OW45006   6.715   7.299   1.359
11172SOL    HW245007   6.635   7.284   1.309
11172SOL    HW345008   6.722   7.394   1.366
11172SOL    MW445009   6.706   7.310   1.353
11173SOL     OW45010   6.829   7.264   0.849
11173SOL    HW245011   6.876   7.337   0.808
11173SOL    HW345012   6.750   7.303   0.885
11173SOL    MW445013   6.824   7.279   0.848
11174SOL     OW45014   7.237   7.359   1.124
11174SOL    HW245015   7.280   7.329   1.204
11174SOL    HW345016   7.156   7.307   1.121
11174SOL    MW445017   7.232   7.348   1.134
11175SOL     OW45018   6.322   6.323   1.831
11175SOL    HW245019   6.392   6.265   1.803
11175SOL    HW345020   6.265   6.268   1.886
11175SOL    MW445021   6.324   6.310   1.835
11176SOL     OW45022   7.109   6.535   1.464
11176SOL    HW245023   7.114   6.588   1.544
11176SOL    HW345024   7.071   6.452   1.492
11176SOL    MW445025   7.105   6.530   1.479
11177SOL     OW45026   6.749   5.670   1.710
11177SOL    HW245027   6.744   5.577   1.691
11177SOL    HW345028   6.832   5.681   1.756
11177SOL    MW445029   6.757   5.659   1.714
11178SOL     OW45030   7.219   6.941   0.986
11178SOL    HW245031   7.254   6.923   0.899
11178SOL    HW345032   7.124   6.942   0.973
11178SOL    MW445033   7.211   6.938   0.973
11179SOL     OW45034   6.648   6.589   1.355
11179SOL    HW245035   6.691   6.624   1.433
11179SOL    HW345036   6.631   6.666   1.301
11179SOL    MW445037   6.651   6.604   1.358
11180SOL     OW45038   6.039   5.731   0.657
11180SOL    HW245039   6.089   5.774   0.588
11180SOL    HW345040   5.954   5.775   0.657
11180SOL    MW445041   6.036   5.744   0.648
11181SOL     OW45042   5.798   6.793   1.517
11181SOL    HW245043   5.826   6.746   1.595
11181SOL    HW345044   5.719   6.748   1.488
11181SOL    MW445045   5.791   6.782   1.523
11182SOL     OW45046   6.306   6.120   1.484
11182SOL    HW245047   6.278   6.208   1.508
11182SOL    HW345048   6.275   6.064   1.555
11182SOL    MW445049   6.298   6.123   1.496
11183SOL     OW45050   5.961   6.516   0.697
11183SOL    HW245051   6.019   6.572   0.645
11183SOL    HW345052   6.005   6.431   0.699
11183SOL    MW445053   5.974   6.513   0.690
11184SOL     OW45054   7.101   5.868   0.534
11184SOL    HW245055   7.023   5.818   0.559
11184SOL    HW345056   7.072   5.959   0.534
11184SOL    MW445057   7.087   5.872   0.537
11185SOL     OW45058   6.687   5.830   0.693
11185SOL    HW245059   6.707   5.905   0.637
11185SOL    HW345060   6.667   5.869   0.778
11185SOL    MW445061   6.688   5.846   0.697
11186SOL     OW45062   7.447   6.603   1.712
11186SOL    HW245063   7.360   6.583   1.748
11186SOL    HW345064   7.501   6.529   1.737
11186SOL    MW445065   7.442   6.592   1.720
11187SOL     OW45066   5.668   7.116   0.869
11187SOL    HW245067   5.700   7.120   0.960
11187SOL    HW345068   5.573   7.124   0.877
11187SOL    MW445069   5.660   7.119   0.882
11188SOL     OW45070   5.623   6.242   0.416
11188SOL    HW245071   5.563   6.214   0.486
11188SOL    HW345072   5.697   6.182   0.422
11188SOL    MW445073   5.625   6.231   0.425
11189SOL     OW45074   6.791   6.973   0.576
11189SOL    HW245075   6.814   6.924   0.654
11189SOL    HW345076   6.872   7.015   0.548
11189SOL    MW445077   6.804   6.973   0.583
11190SOL     OW45078   6.049   5.981   1.305
11190SOL    HW245079   6.082   6.062   1.345
11190SOL    HW345080   6.022   6.007   1.217
11190SOL    MW445081   6.048   5.995   1.299
11191SOL     OW45082   6.003   5.948   1.041
11191SOL    HW245083   6.033   5.862   1.012
11191SOL    HW345084   5.908   5.941   1.044
11191SOL    MW445085   5.995   5.937   1.039
11192SOL     OW45086   6.832   6.157   1.732
11192SOL    HW245087   6.884   6.092   1.685
11192SOL    HW345088   6.790   6.208   1.662
11192SOL    MW445089   6.833   6.154   1.715
11193SOL     OW45090   6.931   5.952   1.593
11193SOL    HW245091   6.838   5.936   1.580
11193SOL    HW345092   6.957   5.890   1.661
11193SOL    MW445093   6.921   5.942   1.600
11194SOL     OW45094   6.146   5.726   0.932
11194SOL    HW245095   6.156   5.635   0.958
11194SOL    HW345096   6.102   5.722   0.847
11194SOL    MW445097   6.142   5.714   0.924
11195SOL     OW45098   6.240   7.341   1.478
11195SOL    HW245099   6.157   7.326   1.523
11195SOL    HW345100   6.299   7.274   1.513
11195SOL    MW445101   6.238   7.331   1.488
11196SOL     OW45102   7.297   6.048   1.103
11196SOL    HW245103   7.230   6.081   1.163
11196SOL    HW345104   7.340   6.126   1.069
11196SOL    MW445105   7.295   6.063   1.107
11197SOL     OW45106   7.475   6.768   1.073
11197SOL    HW245107   7.468   6.708   0.998
11197SOL    HW345108   7.401   6.828   1.062
11197SOL    MW445109   7.465   6.768   1.062
11198SOL     OW45110   6.857   6.630   0.991
11198SOL    HW245111   6.871   6.602   1.082
11198SOL    HW345112   6.943   6.661   0.963
11198SOL    MW445113   6.870   6.631   1.000
11199SOL     OW45114   6.940   6.125   1.270
11199SOL    HW245115   6.961   6.126   1.177
11199SOL    HW345116   6.985   6.047   1.303
11199SOL    MW445117   6.947   6.115   1.262
11200SOL     OW45118   7.433   6.256   1.812
11200SOL    HW245119   7.470   6.201   1.881
11200SOL    HW345120   7.458   6.213   1.730
11200SOL    MW445121   7.440   6.244   1.811
11201SOL     OW45122   6.980   6.554   1.863
11201SOL    HW245123   7.046   6.502   1.817
11201SOL    HW345124   7.000   6.541   1.956
11201SOL    MW445125   6.991   6.545   1.870
11202SOL     OW45126   6.991   6.415   0.490
11202SOL    HW245127   6.906   6.385   0.460
11202SOL    HW345128   6.983   6.422   0.585
11202SOL    MW445129   6.979   6.413   0.499
11203SOL     OW45130   6.067   6.878   1.221
11203SOL    HW245131   6.079   6.905   1.312
11203SOL    HW345132   6.048   6.959   1.174
11203SOL    MW445133   6.066   6.893   1.226
11204SOL     OW45134   6.351   5.858   1.044
11204SOL    HW245135   6.324   5.860   1.135
11204SOL    HW345136   6.281   5.810   0.999
11204SOL    MW445137   6.339   5.854   1.051
11205SOL     OW45138   6.205   7.350   1.206
11205SOL    HW245139   6.257   7.427   1.183
11205SOL    HW345140   6.214   7.342   1.301
11205SOL    MW445141   6.214   7.357   1.217
11206SOL     OW45142   7.107   6.935   1.438
11206SOL    HW245143   7.092   6.864   1.501
11206SOL    HW345144   7.153   6.893   1.366
11206SOL    MW445145   7.113   6.919   1.438
11207SOL     OW45146   6.181   6.666   1.555
11207SOL    HW245147   6.218   6.671   1.467
11207SOL    HW345148   6.220   6.739   1.602
11207SOL    MW445149   6.191   6.676   1.550
11208SOL     OW45150   6.361   6.709   1.367
11208SOL    HW245151   6.420   6.655   1.420
11208SOL    HW345152   6.376   6.681   1.277
11208SOL    MW445153   6.371   6.698   1.363
11209SOL     OW45154   7.172   7.198   1.539
11209SOL    HW245155   7.214   7.183   1.624
11209SOL    HW345156   7.163   7.111   1.501
11209SOL    MW445157   7.176   7.186   1.546
11210SOL     OW45158   6.832   5.677   1.130
11210SOL    HW245159   6.887   5.686   1.052
11210SOL    HW345160   6.887   5.711   1.201
11210SOL    MW445161   6.846   5.682   1.129
11211SOL     OW45162   5.839   6.590   0.314
11211SOL    HW245163   5.776   6.606   0.243
11211SOL    HW345164   5.786   6.553   0.385
11211SOL    MW445165   5.824   6.587   0.314
11212SOL     OW45166   6.734   7.175   0.325
11212SOL    HW245167   6.742   7.093   0.276
11212SOL    HW345168   6.653   7.214   0.292
11212SOL    MW445169   6.724   7.170   0.315
11213SOL     OW45170   5.993   7.333   0.894
11213SOL    HW245171   5.997   7.244   0.929
11213SOL    HW345172   6.019   7.324   0.803
11213SOL    MW445173   5.996   7.321   0.886
11214SOL     OW45174   6.610   6.811   1.137
11214SOL    HW245175   6.542   6.745   1.153
11214SOL    HW345176   6.628   6.805   1.044
11214SOL    MW445177   6.603   6.802   1.128
11215SOL     OW45178   5.699   7.086   1.388
11215SOL    HW245179   5.689   7.044   1.474
11215SOL    HW345180   5.620   7.139   1.378
11215SOL    MW445181   5.688   7.087   1.399
11216SOL     OW45182   6.603   5.950   0.958
11216SOL    HW245183   6.533   5.902   1.003
11216SOL    HW345184   6.635   6.013   1.022
11216SOL    MW445185   6.598   5.952   0.972
11217SOL     OW45186   6.254   6.386   1.578
11217SOL    HW245187   6.247   6.481   1.566
11217SOL    HW345188   6.263   6.375   1.673
11217SOL    MW445189   6.255   6.398   1.588
11218SOL     OW45190   5.975   6.901   1.836
11218SOL    HW245191   6.047   6.903   1.773
11218SOL    HW345192   5.945   6.810   1.835
11218SOL    MW445193   5.980   6.890   1.828
11219SOL     OW45194   7.059   5.664   1.303
11219SOL    HW245195   7.130   5.610   1.267
11219SOL    HW345196   7.058   5.643   1.396
11219SOL    MW445197   7.068   5.655   1.311
11220SOL     OW45198   7.259   7.194   1.787
11220SOL    HW245199   7.232   7.191   1.878
11220SOL    HW345200   7.355   7.198   1.790
11220SOL    MW445201   7.269   7.194   1.799
11221SOL     OW45202   6.070   6.056   0.771
11221SOL    HW245203   6.141   6.004   0.734
11221SOL    HW345204   6.056   6.021   0.858
11221SOL    MW445205   6.078   6.045   0.778
11222SOL     OW45206   6.386   7.149   0.847
11222SOL    HW245207   6.314   7.086   0.860
11222SOL    HW345208   6.347   7.234   0.865
11222SOL    MW445209   6.370   7.152   0.850
11223SOL     OW45210   6.706   5.997   0.495
11223SOL    HW245211   6.728   5.934   0.427
11223SOL    HW345212   6.611   5.989   0.506
11223SOL    MW445213   6.696   5.988   0.487
11224SOL     OW45214   5.622   6.154   1.570
11224SOL    HW245215   5.686   6.220   1.545
11224SOL    HW345216   5.541   6.181   1.527
11224SOL    MW445217   5.620   6.166   1.562
11225SOL     OW45218   7.360   7.061   0.527
11225SOL    HW245219   7.330   6.994   0.588
11225SOL    HW345220   7.454   7.067   0.541
11225SOL    MW445221   7.368   7.053   0.537
11226SOL     OW45222   6.916   6.738   0.457
11226SOL    HW245223   6.888   6.824   0.490
11226SOL    HW345224   6.944   6.754   0.367
11226SOL    MW445225   6.916   6.752   0.449
11227SOL     OW45226   6.578   5.658   0.510
11227SOL    HW245227   6.615   5.717   0.575
11227SOL    HW345228   6.555   5.714   0.436
11227SOL    MW445229   6.579   5.673   0.509
11228SOL     OW45230   7.431   6.540   0.932
11228SOL    HW245231   7.422   6.572   0.843
11228SOL    HW345232   7.384   6.456   0.932
11228SOL    MW445233   7.424   6.533   0.922
11229SOL     OW45234   5.807   6.380   1.511
11229SOL    HW245235   5.828   6.449   1.449
11229SOL    HW345236   5.887   6.327   1.516
11229SOL    MW445237   5.820   6.381   1.505
11230SOL     OW45238   7.343   6.471   0.633
11230SOL    HW245239   7.437   6.460   0.621
11230SOL    HW345240   7.319   6.543   0.574
11230SOL    MW445241   7.353   6.479   0.624
11231SOL     OW45242   5.792   6.395   1.778
11231SOL    HW245243   5.718   6.339   1.804
11231SOL    HW345244   5.787   6.398   1.683
11231SOL    MW445245   5.781   6.388   1.768
11232SOL     OW45246   5.958   5.682   1.228
11232SOL    HW245247   6.001   5.766   1.248
11232SOL    HW345248   6.031   5.620   1.221
11232SOL    MW445249   5.973   5.685   1.229
11233SOL     OW45250   6.775   6.208   1.470
11233SOL    HW245251   6.811   6.181   1.386
11233SOL    HW345252   6.688   6.242   1.449
11233SOL    MW445253   6.769   6.209   1.457
11234SOL     OW45254   5.758   6.080   0.695
11234SOL    HW245255   5.820   6.087   0.768
11234SOL    HW345256   5.758   5.987   0.672
11234SOL    MW445257   5.766   6.069   0.702
11235SOL     OW45258   6.440   6.341   1.179
11235SOL    HW245259   6.398   6.259   1.155
11235SOL    HW345260   6.441   6.340   1.275
11235SOL    MW445261   6.433   6.330   1.188
11236SOL     OW45262   6.244   5.811   1.284
11236SOL    HW245263   6.175   5.874   1.305
11236SOL    HW345264   6.271   5.775   1.369
11236SOL    MW445265   6.238   5.814   1.297
11237SOL     OW45266   7.039   5.664   0.901
11237SOL    HW245267   7.127   5.673   0.938
11237SOL    HW345268   7.049   5.605   0.827
11237SOL    MW445269   7.053   5.658   0.895
11238SOL     OW45270   7.071   6.403   0.745
11238SOL    HW245271   7.151   6.418   0.694
11238SOL    HW345272   7.064   6.308   0.751
11238SOL    MW445273   7.080   6.392   0.740
11239SOL     OW45274   6.521   6.329   1.442
11239SOL    HW245275   6.590   6.396   1.439
11239SOL    HW345276   6.454   6.367   1.498
11239SOL    MW445277   6.522   6.342   1.449
11240SOL     OW45278   5.939   6.629   1.690
11240SOL    HW245279   5.893   6.545   1.692
11240SOL    HW345280   5.996   6.623   1.614
11240SOL    MW445281   5.941   6.617   1.682
11241SOL     OW45282   6.190   7.004   0.691
11241SOL    HW245283   6.255   6.937   0.712
11241SOL    HW345284   6.242   7.081   0.668
11241SOL    MW445285   6.205   7.006   0.690
11242SOL     OW45286   6.451   6.169   0.821
11242SOL    HW245287   6.391   6.187   0.893
11242SOL    HW345288   6.485   6.081   0.840
11242SOL    MW445289   6.447   6.159   0.834
11243SOL     OW45290   7.392   5.668   1.490
11243SOL    HW245291   7.313   5.714   1.518
11243SOL    HW345292   7.427   5.722   1.419
11243SOL    MW445293   7.386   5.681   1.484
11244SOL     OW45294   6.676   6.752   0.840
11244SOL    HW245295   6.768   6.733   0.858
11244SOL    HW345296   6.649   6.682   0.780
11244SOL    MW445297   6.684   6.740   0.834
11245SOL     OW45298   6.950   6.990   0.936
11245SOL    HW245299   6.923   7.074   0.901
11245SOL    HW345300   6.910   6.985   1.023
11245SOL    MW445301   6.943   6.999   0.942
11246SOL     OW45302   6.869   6.938   1.204
11246SOL    HW245303   6.880   6.905   1.293
11246SOL    HW345304   6.788   6.897   1.173
11246SOL    MW445305   6.859   6.930   1.210
11247SOL     OW45306   5.882   6.296   0.974
11247SOL    HW245307   5.832   6.295   1.055
11247SOL    HW345308   5.902   6.388   0.958
11247SOL    MW445309   5.878   6.308   0.982
11248SOL     OW45310   6.949   7.060   1.736
11248SOL    HW245311   6.949   7.154   1.752
11248SOL    HW345312   6.994   7.050   1.652
11248SOL    MW445313   6.955   7.070   1.727
11249SOL     OW45314   7.188   5.778   0.297
11249SOL    HW245315   7.181   5.782   0.392
11249SOL    HW345316   7.200   5.869   0.270
11249SOL    MW445317   7.189   5.791   0.305
11250SOL     OW45318   5.804   5.964   1.715
11250SOL    HW245319   5.761   6.023   1.652
11250SOL    HW345320   5.872   6.019   1.755
11250SOL    MW445321   5.808   5.979   1.712
11251SOL     OW45322   6.916   6.584   1.260
11251SOL    HW245323   6.979   6.581   1.333
11251SOL    HW345324   6.832   6.602   1.302
11251SOL    MW445325   6.912   6.586   1.275
11252SOL     OW45326   6.460   7.299   0.449
11252SOL    HW245327   6.518   7.370   0.476
11252SOL    HW345328   6.483   7.227   0.507
11252SOL    MW445329   6.471   7.299   0.460
11253SOL     OW45330   7.255   5.761   1.039
11253SOL    HW245331   7.300   5.679   1.058
11253SOL    HW345332   7.275   5.817   1.115
11253SOL    MW445333   7.265   5.757   1.051
11254SOL     OW45334   5.703   5.604   1.138
11254SOL    HW245335   5.694   5.605   1.043
11254SOL    HW345336   5.797   5.616   1.153
11254SOL    MW445337   5.715   5.607   1.129
11255SOL     OW45338   7.340   6.797   0.758
11255SOL    HW245339   7.319   6.743   0.681
11255SOL    HW345340   7.436   6.795   0.762
11255SOL    MW445341   7.349   6.790   0.747
11256SOL     OW45342   6.032   6.942   1.501
11256SOL    HW245343   5.953   6.892   1.524
11256SOL    HW345344   6.102   6.901   1.551
11256SOL    MW445345   6.030   6.930   1.511
11257SOL     OW45346   7.040   6.228   1.020
11257SOL    HW245347   6.963   6.274   0.986
11257SOL    HW345348   7.097   6.297   1.054
11257SOL    MW445349   7.037   6.243   1.020
11258SOL     OW45350   6.978   7.176   0.439
11258SOL    HW245351   7.041   7.166   0.368
11258SOL    HW345352   6.895   7.196   0.394
11258SOL    MW445353   6.975   7.177   0.424
11259SOL     OW45354   7.341   6.444   2.125
11259SOL    HW245355   7.382   6.386   2.190
11259SOL    HW345356   7.248   6.436   2.142
11259SOL    MW445357   7.335   6.436   2.135
11260SOL     OW45358   7.207   6.376   3.120
11260SOL    HW245359   7.162   6.443   3.171
11260SOL    HW345360   7.295   6.412   3.106
11260SOL    MW445361   7.213   6.389   3.124
11261SOL     OW45362   6.135   6.627   2.354
11261SOL    HW245363   6.225   6.602   2.338
11261SOL    HW345364   6.131   6.720   2.331
11261SOL    MW445365   6.147   6.636   2.349
11262SOL     OW45366   7.251   7.330   2.496
11262SOL    HW245367   7.263   7.276   2.574
11262SOL    HW345368   7.288   7.278   2.425
11262SOL    MW445369   7.257   7.315   2.497
11263SOL     OW45370   6.630   7.215   3.497
11263SOL    HW245371   6.671   7.251   3.418
11263SOL    HW345372   6.665   7.126   3.504
11263SOL    MW445373   6.641   7.208   3.488
11264SOL     OW45374   7.187   6.770   3.101
11264SOL    HW245375   7.108   6.735   3.059
11264SOL    HW345376   7.214   6.842   3.045
11264SOL    MW445377   7.180   6.775   3.088
11265SOL     OW45378   6.419   6.083   2.367
11265SOL    HW245379   6.394   6.171   2.395
11265SOL    HW345380   6.416   6.086   2.271
11265SOL    MW445381   6.415   6.095   2.359
11266SOL     OW45382   5.861   6.111   2.295
11266SOL    HW245383   5.893   6.199   2.277
11266SOL    HW345384   5.849   6.109   2.390
11266SOL    MW445385   5.864   6.123   2.307
11267SOL     OW45386   5.939   6.524   3.196
11267SOL    HW245387   6.002   6.471   3.147
11267SOL    HW345388   5.920   6.598   3.139
11267SOL    MW445389   5.945   6.526   3.183
11268SOL     OW45390   6.260   5.866   2.382
11268SOL    HW245391   6.318   5.942   2.384
11268SOL    HW345392   6.195   5.887   2.315
11268SOL    MW445393   6.259   5.878   2.373
11269SOL     OW45394   6.347   6.793   2.557
11269SOL    HW245395   6.427   6.796   2.609
11269SOL    HW345396   6.375   6.760   2.471
11269SOL    MW445397   6.361   6.789   2.552
11270SOL     OW45398   6.372   7.134   3.460
11270SOL    HW245399   6.456   7.160   3.499
11270SOL    HW345400   6.396   7.078   3.386
11270SOL    MW445401   6.386   7.130   3.455
11271SOL     OW45402   6.124   6.297   2.548
11271SOL    HW245403   6.109   6.217   2.599
11271SOL    HW345404   6.206   6.332   2.582
11271SOL    MW445405   6.132   6.289   2.560
11272SOL     OW45406   6.461   6.983   3.233
11272SOL    HW245407   6.425   7.049   3.173
11272SOL    HW345408   6.389   6.921   3.246
11272SOL    MW445409   6.447   6.983   3.227
11273SOL     OW45410   6.266   6.123   2.925
11273SOL    HW245411   6.172   6.119   2.943
11273SOL    HW345412   6.296   6.032   2.934
11273SOL    MW445413   6.257   6.111   2.928
11274SOL     OW45414   6.012   6.537   2.829
11274SOL    HW245415   5.967   6.544   2.745
11274SOL    HW345416   5.992   6.620   2.873
11274SOL    MW445417   6.004   6.549   2.823
11275SOL     OW45418   5.709   7.383   2.704
11275SOL    HW245419   5.798   7.375   2.739
11275SOL    HW345420   5.673   7.295   2.709
11275SOL    MW445421   5.716   7.370   2.709
11276SOL     OW45422   6.974   6.775   2.073
11276SOL    HW245423   6.892   6.811   2.039
11276SOL    HW345424   7.042   6.818   2.022
11276SOL    MW445425   6.972   6.785   2.061
11277SOL     OW45426   5.973   6.910   2.739
11277SOL    HW245427   5.949   6.963   2.815
11277SOL    HW345428   6.029   6.968   2.687
11277SOL    MW445429   5.977   6.925   2.742
11278SOL     OW45430   5.943   7.206   3.334
11278SOL    HW245431   5.851   7.182   3.319
11278SOL    HW345432   5.987   7.123   3.351
11278SOL    MW445433   5.937   7.191   3.333
11279SOL     OW45434   6.526   6.916   2.266
11279SOL    HW245435   6.503   6.978   2.334
11279SOL    HW345436   6.483   6.834   2.292
11279SOL    MW445437   6.518   6.912   2.277
11280SOL     OW45438   7.399   5.917   2.722
11280SOL    HW245439   7.336   5.897   2.791
11280SOL    HW345440   7.389   5.846   2.659
11280SOL    MW445441   7.389   5.904   2.723
11281SOL     OW45442   6.023   5.889   2.234
11281SOL    HW245443   5.997   5.851   2.150
11281SOL    HW345444   5.960   5.959   2.250
11281SOL    MW445445   6.012   5.892   2.225
11282SOL     OW45446   5.858   6.850   2.271
11282SOL    HW245447   5.806   6.918   2.227
11282SOL    HW345448   5.855   6.776   2.211
11282SOL    MW445449   5.850   6.849   2.258
11283SOL     OW45450   6.520   7.313   2.049
11283SOL    HW245451   6.475   7.329   2.132
11283SOL    HW345452   6.451   7.278   1.991
11283SOL    MW445453   6.506   7.310   2.051
11284SOL     OW45454   7.455   6.086   2.024
11284SOL    HW245455   7.364   6.088   2.052
11284SOL    HW345456   7.500   6.148   2.082
11284SOL    MW445457   7.448   6.094   2.034
11285SOL     OW45458   7.200   6.689   2.374
11285SOL    HW245459   7.110   6.689   2.409
11285SOL    HW345460   7.193   6.735   2.291
11285SOL    MW445461   7.187   6.695   2.368
11286SOL     OW45462   7.000   6.324   3.446
11286SOL    HW245463   7.069   6.262   3.423
11286SOL    HW345464   6.925   6.298   3.393
11286SOL    MW445465   7.000   6.311   3.437
11287SOL     OW45466   5.741   7.204   2.998
11287SOL    HW245467   5.724   7.150   3.075
11287SOL    HW345468   5.729   7.294   3.028
11287SOL    MW445469   5.738   7.208   3.012
11288SOL     OW45470   6.736   6.711   3.438
11288SOL    HW245471   6.721   6.804   3.423
11288SOL    HW345472   6.831   6.701   3.438
11288SOL    MW445473   6.745   6.721   3.435
11289SOL     OW45474   6.532   6.135   3.639
11289SOL    HW245475   6.622   6.136   3.606
11289SOL    HW345476   6.491   6.060   3.597
11289SOL    MW445477   6.538   6.125   3.630
11290SOL     OW45478   7.107   6.667   2.766
11290SOL    HW245479   7.110   6.601   2.697
11290SOL    HW345480   7.192   6.710   2.762
11290SOL    MW445481   7.119   6.663   2.757
11291SOL     OW45482   6.727   6.270   2.335
11291SOL    HW245483   6.753   6.294   2.246
11291SOL    HW345484   6.709   6.177   2.331
11291SOL    MW445485   6.729   6.262   2.322
11292SOL     OW45486   7.392   6.890   2.186
11292SOL    HW245487   7.348   6.931   2.261
11292SOL    HW345488   7.449   6.958   2.151
11292SOL    MW445489   7.394   6.904   2.191
11293SOL     OW45490   6.312   5.939   3.589
11293SOL    HW245491   6.322   5.865   3.529
11293SOL    HW345492   6.348   5.908   3.672
11293SOL    MW445493   6.318   5.925   3.591
11294SOL     OW45494   6.048   7.306   2.504
11294SOL    HW245495   6.080   7.394   2.482
11294SOL    HW345496   6.001   7.278   2.426
11294SOL    MW445497   6.047   7.314   2.491
11295SOL     OW45498   7.432   5.668   2.553
11295SOL    HW245499   7.486   5.619   2.615
11295SOL    HW345500   7.375   5.602   2.514
11295SOL    MW445501   7.432   5.652   2.555
11296SOL     OW45502   6.551   5.621   2.966
11296SOL    HW245503   6.510   5.699   2.928
11296SOL    HW345504   6.645   5.639   2.961
11296SOL    MW445505   6.557   5.633   2.961
11297SOL     OW45506   7.168   7.174   2.052
11297SOL    HW245507   7.216   7.243   2.098
11297SOL    HW345508   7.089   7.218   2.021
11297SOL    MW445509   7.163   7.188   2.055
11298SOL     OW45510   6.566   6.299   1.996
11298SOL    HW245511   6.568   6.246   1.917
11298SOL    HW345512   6.654   6.336   2.002
11298SOL    MW445513   6.578   6.298   1.985
11299SOL     OW45514   7.180   6.225   2.332
11299SOL    HW245515   7.219   6.225   2.419
11299SOL    HW345516   7.121   6.301   2.332
11299SOL    MW445517   7.177   6.236   2.343
11300SOL     OW45518   6.497   6.592   3.461
11300SOL    HW245519   6.474   6.572   3.551
11300SOL    HW345520   6.582   6.636   3.466
11300SOL    MW445521   6.504   6.595   3.473
11301SOL     OW45522   6.577   5.729   3.221
11301SOL    HW245523   6.583   5.691   3.134
11301SOL    HW345524   6.566   5.823   3.206
11301SOL    MW445525   6.578   5.737   3.209
11302SOL     OW45526   6.666   6.218   3.055
11302SOL    HW245527   6.741   6.247   3.002
11302SOL    HW345528   6.598   6.283   3.039
11302SOL    MW445529   6.667   6.230   3.045
11303SOL     OW45530   7.216   6.186   3.332
11303SOL    HW245531   7.197   6.095   3.311
11303SOL    HW345532   7.194   6.235   3.253
11303SOL    MW445533   7.211   6.179   3.319
11304SOL     OW45534   7.358   7.280   3.236
11304SOL    HW245535   7.286   7.242   3.287
11304SOL    HW345536   7.375   7.365   3.277
11304SOL    MW445537   7.352   7.285   3.248
11305SOL     OW45538   6.663   5.924   3.438
11305SOL    HW245539   6.629   5.963   3.357
11305SOL    HW345540   6.641   5.832   3.431
11305SOL    MW445541   6.656   5.917   3.428
11306SOL     OW45542   7.072   6.738   3.514
11306SOL    HW245543   7.154   6.779   3.544
11306SOL    HW345544   7.035   6.700   3.594
11306SOL    MW445545   7.078   6.739   3.529
11307SOL     OW45546   7.367   6.111   2.498
11307SOL    HW245547   7.456   6.080   2.515
11307SOL    HW345548   7.310   6.051   2.546
11307SOL    MW445549   7.370   6.099   2.507
11308SOL     OW45550   5.793   5.825   2.527
11308SOL    HW245551   5.784   5.765   2.453
11308SOL    HW345552   5.726   5.796   2.590
11308SOL    MW445553   5.783   5.812   2.525
11309SOL     OW45554   6.736   6.918   2.088
11309SOL    HW245555   6.686   6.920   2.170
11309SOL    HW345556   6.670   6.936   2.020
11309SOL    MW445557   6.722   6.920   2.090
11310SOL     OW45558   5.740   5.998   2.890
11310SOL    HW245559   5.712   6.089   2.899
11310SOL    HW345560   5.677   5.959   2.829
11310SOL    MW445561   5.727   6.004   2.884
11311SOL     OW45562   6.199   7.336   2.196
11311SOL    HW245563   6.120   7.294   2.229
11311SOL    HW345564   6.265   7.319   2.263
11311SOL    MW445565   6.198   7.328   2.209
11312SOL     OW45566   7.327   6.856   3.593
11312SOL    HW245567   7.377   6.782   3.625
11312SOL    HW345568   7.273   6.883   3.668
11312SOL    MW445569   7.327   6.850   3.606
11313SOL     OW45570   6.335   6.751   1.903
11313SOL    HW245571   6.257   6.697   1.890
11313SOL    HW345572   6.306   6.824   1.956
11313SOL    MW445573   6.321   6.753   1.908
11314SOL     OW45574   7.461   6.491   3.095
11314SOL    HW245575   7.477   6.529   3.008
11314SOL    HW345576   7.495   6.557   3.156
11314SOL    MW445577   7.468   6.504   3.091
11315SOL     OW45578   7.253   7.200   2.764
11315SOL    HW245579   7.282   7.267   2.825
11315SOL    HW345580   7.234   7.124   2.819
11315SOL    MW445581   7.255   7.200   2.779
11316SOL     OW45582   6.916   7.267   1.971
11316SOL    HW245583   6.842   7.230   2.021
11316SOL    HW345584   6.924   7.357   2.004
11316SOL    MW445585   6.907   7.274   1.983
11317SOL     OW45586   5.724   6.273   3.060
11317SOL    HW245587   5.786   6.303   3.126
11317SOL    HW345588   5.658   6.342   3.054
11317SOL    MW445589   5.723   6.286   3.067
11318SOL     OW45590   7.140   6.941   1.913
11318SOL    HW245591   7.087   6.990   1.849
11318SOL    HW345592   7.171   7.007   1.974
11318SOL    MW445593   7.138   6.955   1.911
11319SOL     OW45594   6.365   5.830   1.968
11319SOL    HW245595   6.313   5.750   1.956
11319SOL    HW345596   6.452   5.807   1.936
11319SOL    MW445597   6.368   5.816   1.962
11320SOL     OW45598   5.819   7.382   3.512
11320SOL    HW245599   5.793   7.450   3.450
11320SOL    HW345600   5.867   7.319   3.460
11320SOL    MW445601   5.821   7.382   3.498
11321SOL     OW45602   5.871   6.701   3.019
11321SOL    HW245603   5.924   6.776   3.044
11321SOL    HW345604   5.790   6.739   2.985
11321SOL    MW445605   5.867   6.716   3.019
11322SOL     OW45606   6.411   6.605   3.007
11322SOL    HW245607   6.439   6.514   3.019
11322SOL    HW345608   6.340   6.599   2.943
11322SOL    MW445609   6.404   6.593   3.002
11323SOL     OW45610   5.726   6.470   2.425
11323SOL    HW245611   5.817   6.485   2.452
11323SOL    HW345612   5.729   6.391   2.371
11323SOL    MW445613   5.738   6.462   2.423
11324SOL     OW45614   5.962   6.178   3.679
11324SOL    HW245615   5.909   6.258   3.686
11324SOL    HW345616   6.032   6.190   3.744
11324SOL    MW445617   5.964   6.191   3.687
11325SOL     OW45618   6.348   5.728   3.386
11325SOL    HW245619   6.325   5.636   3.388
11325SOL    HW345620   6.434   5.730   3.343
11325SOL    MW445621   6.355   5.718   3.382
11326SOL     OW45622   6.032   6.252   3.425
11326SOL    HW245623   6.112   6.302   3.411
11326SOL    HW345624   6.023   6.246   3.520
11326SOL    MW445625   6.041   6.258   3.435
11327SOL     OW45626   6.353   7.402   2.799
11327SOL    HW245627   6.442   7.417   2.829
11327SOL    HW345628   6.348   7.449   2.715
11327SOL    MW445629   6.363   7.410   2.792
11328SOL     OW45630   7.009   5.777   3.696
11328SOL    HW245631   7.065   5.704   3.722
11328SOL    HW345632   6.979   5.815   3.778
11328SOL    MW445633   7.013   5.772   3.709
11329SOL     OW45634   5.734   7.082   2.464
11329SOL    HW245635   5.706   7.121   2.546
11329SOL    HW345636   5.754   6.991   2.486
11329SOL    MW445637   5.732   7.074   2.477
11330SOL     OW45638   6.567   7.125   2.499
11330SOL    HW245639   6.650   7.079   2.483
11330SOL    HW345640   6.557   7.124   2.595
11330SOL    MW445641   6.577   7.118   2.509
11331SOL     OW45642   7.399   6.270   2.813
11331SOL    HW245643   7.488   6.300   2.795
11331SOL    HW345644   7.379   6.210   2.742
11331SOL    MW445645   7.408   6.267   2.802
11332SOL     OW45646   7.250   6.449   3.693
11332SOL    HW245647   7.305   6.373   3.674
11332SOL    HW345648   7.252   6.457   3.788
11332SOL    MW445649   7.258   6.440   3.701
11333SOL     OW45650   6.300   7.182   1.904
11333SOL    HW245651   6.240   7.251   1.874
11333SOL    HW345652   6.245   7.124   1.957
11333SOL    MW445653   6.284   7.184   1.906
11334SOL     OW45654   6.738   5.827   2.127
11334SOL    HW245655   6.671   5.803   2.064
11334SOL    HW345656   6.803   5.876   2.076
11334SOL    MW445657   6.738   5.829   2.112
11335SOL     OW45658   6.545   6.011   3.212
11335SOL    HW245659   6.464   6.052   3.240
11335SOL    HW345660   6.592   6.079   3.164
11335SOL    MW445661   6.540   6.026   3.210
11336SOL     OW45662   6.805   6.349   2.835
11336SOL    HW245663   6.818   6.443   2.845
11336SOL    HW345664   6.766   6.339   2.749
11336SOL    MW445665   6.801   6.360   2.825
11337SOL     OW45666   6.257   6.544   2.639
11337SOL    HW245667   6.168   6.535   2.672
11337SOL    HW345668   6.261   6.634   2.607
11337SOL    MW445669   6.246   6.555   2.639
11338SOL     OW45670   7.056   6.127   2.634
11338SOL    HW245671   7.001   6.048   2.633
11338SOL    HW345672   7.038   6.168   2.718
11338SOL    MW445673   7.046   6.122   2.643
11339SOL     OW45674   6.027   5.814   3.451
11339SOL    HW245675   5.948   5.832   3.503
11339SOL    HW345676   6.022   5.876   3.378
11339SOL    MW445677   6.017   5.824   3.448
11340SOL     OW45678   6.675   6.331   2.591
11340SOL    HW245679   6.612   6.263   2.615
11340SOL    HW345680   6.695   6.312   2.499
11340SOL    MW445681   6.669   6.318   2.583
11341SOL     OW45682   5.931   7.226   2.293
11341SOL    HW245683   5.892   7.273   2.219
11341SOL    HW345684   5.865   7.161   2.318
11341SOL    MW445685   5.918   7.224   2.287
11342SOL     OW45686   6.423   6.635   2.317
11342SOL    HW245687   6.425   6.609   2.224
11342SOL    HW345688   6.481   6.572   2.360
11342SOL    MW445689   6.431   6.624   2.311
11343SOL     OW45690   6.976   7.195   3.089
11343SOL    HW245691   6.901   7.241   3.127
11343SOL    HW345692   6.958   7.102   3.106
11343SOL    MW445693   6.965   7.189   3.097
11344SOL     OW45694   6.980   7.403   2.519
11344SOL    HW245695   6.923   7.356   2.458
11344SOL    HW345696   7.066   7.364   2.506
11344SOL    MW445697   6.983   7.394   2.509
11345SOL     OW45698   6.933   5.879   2.650
11345SOL    HW245699   6.961   5.811   2.711
11345SOL    HW345700   6.847   5.850   2.620
11345SOL    MW445701   6.926   5.866   2.654
11346SOL     OW45702   5.738   6.813   2.584
11346SOL    HW245703   5.802   6.845   2.647
11346SOL    HW345704   5.787   6.749   2.532
11346SOL    MW445705   5.753   6.809   2.585
11347SOL     OW45706   6.238   6.889   3.566
11347SOL    HW245707   6.286   6.972   3.553
11347SOL    HW345708   6.295   6.837   3.622
11347SOL    MW445709   6.252   6.893   3.572
11348SOL     OW45710   5.814   7.131   3.706
11348SOL    HW245711   5.870   7.055   3.721
11348SOL    HW345712   5.763   7.109   3.628
11348SOL    MW445713   5.814   7.118   3.697
11349SOL     OW45714   6.913   5.983   1.985
11349SOL    HW245715   6.886   6.049   1.921
11349SOL    HW345716   6.983   6.026   2.035
11349SOL    MW445717   6.918   5.996   1.982
11350SOL     OW45718   6.581   5.688   1.922
11350SOL    HW245719   6.637   5.680   1.844
11350SOL    HW345720   6.558   5.598   1.944
11350SOL    MW445721   6.586   5.675   1.915
11351SOL     OW45722   7.086   6.539   2.127
11351SOL    HW245723   7.053   6.628   2.117
11351SOL    HW345724   7.051   6.510   2.212
11351SOL    MW445725   7.076   6.548   2.138
11352SOL     OW45726   6.699   6.968   3.315
11352SOL    HW245727   6.610   6.974   3.283
11352SOL    HW345728   6.743   7.047   3.283
11352SOL    MW445729   6.694   6.978   3.307
11353SOL     OW45730   5.992   5.636   3.657
11353SOL    HW245731   5.920   5.601   3.605
11353SOL    HW345732   6.050   5.677   3.592
11353SOL    MW445733   5.990   5.637   3.642
11354SOL     OW45734   6.016   7.126   2.956
11354SOL    HW245735   6.061   7.188   3.013
11354SOL    HW345736   5.923   7.145   2.969
11354SOL    MW445737   6.009   7.136   2.963
11355SOL     OW45738   7.456   6.655   3.310
11355SOL    HW245739   7.371   6.668   3.269
11355SOL    HW345740   7.436   6.619   3.397
11355SOL    MW445741   7.443   6.651   3.315
11356SOL     OW45742   6.438   7.194   3.064
11356SOL    HW245743   6.462   7.183   2.973
11356SOL    HW345744   6.361   7.251   3.062
11356SOL    MW445745   6.430   7.199   3.053
11357SOL     OW45746   6.080   6.577   1.919
11357SOL    HW245747   6.003   6.590   1.975
11357SOL    HW345748   6.044   6.541   1.838
11357SOL    MW445749   6.066   6.573   1.916
11358SOL     OW45750   6.733   6.550   2.162
11358SOL    HW245751   6.643   6.571   2.137
11358SOL    HW345752   6.760   6.623   2.218
11358SOL    MW445753   6.725   6.562   2.165
11359SOL     OW45754   6.233   6.899   2.854
11359SOL    HW245755   6.226   6.878   2.948
11359SOL    HW345756   6.151   6.867   2.817
11359SOL    MW445757   6.221   6.893   2.861
11360SOL     OW45758   7.097   5.909   3.256
11360SOL    HW245759   7.044   5.911   3.336
11360SOL    HW345760   7.082   5.822   3.219
11360SOL    MW445761   7.089   5.899   3.261
11361SOL     OW45762   7.433   5.833   3.129
11361SOL    HW245763   7.414   5.900   3.064
11361SOL    HW345764   7.490   5.771   3.084
11361SOL    MW445765   7.437   5.834   3.115
11362SOL     OW45766   5.679   6.991   3.517
11362SOL    HW245767   5.723   6.924   3.463
11362SOL    HW345768   5.594   6.953   3.537
11362SOL    MW445769   5.674   6.977   3.513
11363SOL     OW45770   6.362   5.666   2.569
11363SOL    HW245771   6.291   5.727   2.551
11363SOL    HW345772   6.413   5.663   2.488
11363SOL    MW445773   6.358   5.672   2.556
11364SOL     OW45774   6.120   6.906   2.318
11364SOL    HW245775   6.113   6.938   2.408
11364SOL    HW345776   6.030   6.890   2.290
11364SOL    MW445777   6.108   6.908   2.325
11365SOL     OW45778   6.715   7.299   3.227
11365SOL    HW245779   6.635   7.284   3.177
11365SOL    HW345780   6.722   7.394   3.234
11365SOL    MW445781   6.706   7.310   3.221
11366SOL     OW45782   6.829   7.264   2.717
11366SOL    HW245783   6.876   7.337   2.676
11366SOL    HW345784   6.750   7.303   2.753
11366SOL    MW445785   6.824   7.279   2.716
11367SOL     OW45786   7.237   7.359   2.992
11367SOL    HW245787   7.280   7.329   3.072
11367SOL    HW345788   7.156   7.307   2.989
11367SOL    MW445789   7.232   7.348   3.002
11368SOL     OW45790   6.322   6.323   3.699
11368SOL    HW245791   6.392   6.265   3.671
11368SOL    HW345792   6.265   6.268   3.754
11368SOL    MW445793   6.324   6.310   3.703
11369SOL     OW45794   7.109   6.535   3.332
11369SOL    HW245795   7.114   6.588   3.412
11369SOL    HW345796   7.071   6.452   3.360
11369SOL    MW445797   7.105   6.530   3.347
11370SOL     OW45798   6.749   5.670   3.578
11370SOL    HW245799   6.744   5.577   3.559
11370SOL    HW345800   6.832   5.681   3.624
11370SOL    MW445801   6.757   5.659   3.582
11371SOL     OW45802   6.123   6.190   2.032
11371SOL    HW245803   6.089   6.246   2.102
11371SOL    HW345804   6.194   6.140   2.072
11371SOL    MW445805   6.129   6.191   2.046
11372SOL     OW45806   7.219   6.941   2.854
11372SOL    HW245807   7.254   6.923   2.767
11372SOL    HW345808   7.124   6.942   2.841
11372SOL    MW445809   7.211   6.938   2.841
11373SOL     OW45810   6.648   6.589   3.223
11373SOL    HW245811   6.691   6.624   3.301
11373SOL    HW345812   6.631   6.666   3.169
11373SOL    MW445813   6.651   6.604   3.226
11374SOL     OW45814   7.179   6.076   2.096
11374SOL    HW245815   7.171   6.147   2.033
11374SOL    HW345816   7.197   6.120   2.179
11374SOL    MW445817   7.180   6.090   2.098
11375SOL     OW45818   6.039   5.731   2.525
11375SOL    HW245819   6.089   5.774   2.456
11375SOL    HW345820   5.954   5.775   2.525
11375SOL    MW445821   6.036   5.744   2.516
11376SOL     OW45822   5.798   6.793   3.385
11376SOL    HW245823   5.826   6.746   3.463
11376SOL    HW345824   5.719   6.748   3.356
11376SOL    MW445825   5.791   6.782   3.391
11377SOL     OW45826   6.306   6.120   3.352
11377SOL    HW245827   6.278   6.208   3.376
11377SOL    HW345828   6.275   6.064   3.423
11377SOL    MW445829   6.298   6.123   3.364
11378SOL     OW45830   6.848   6.338   2.071
11378SOL    HW245831   6.895   6.356   1.990
11378SOL    HW345832   6.814   6.422   2.099
11378SOL    MW445833   6.850   6.352   2.064
11379SOL     OW45834   5.961   6.516   2.565
11379SOL    HW245835   6.019   6.572   2.513
11379SOL    HW345836   6.005   6.431   2.567
11379SOL    MW445837   5.974   6.513   2.558
11380SOL     OW45838   7.101   5.868   2.402
11380SOL    HW245839   7.023   5.818   2.427
11380SOL    HW345840   7.072   5.959   2.402
11380SOL    MW445841   7.087   5.872   2.405
11381SOL     OW45842   6.687   5.830   2.561
11381SOL    HW245843   6.707   5.905   2.505
11381SOL    HW345844   6.667   5.869   2.646
11381SOL    MW445845   6.688   5.846   2.565
11382SOL     OW45846   6.583   7.080   1.893
11382SOL    HW245847   6.610   7.158   1.845
11382SOL    HW345848   6.490   7.095   1.912
11382SOL    MW445849   6.574   7.093   1.889
11383SOL     OW45850   7.447   6.603   3.580
11383SOL    HW245851   7.360   6.583   3.616
11383SOL    HW345852   7.501   6.529   3.605
11383SOL    MW445853   7.442   6.592   3.588
11384SOL     OW45854   5.668   7.116   2.737
11384SOL    HW245855   5.700   7.120   2.828
11384SOL    HW345856   5.573   7.124   2.745
11384SOL    MW445857   5.660   7.119   2.750
11385SOL     OW45858   5.623   6.242   2.284
11385SOL    HW245859   5.563   6.214   2.354
11385SOL    HW345860   5.697   6.182   2.290
11385SOL    MW445861   5.625   6.231   2.293
11386SOL     OW45862   6.791   6.973   2.444
11386SOL    HW245863   6.814   6.924   2.522
11386SOL    HW345864   6.872   7.015   2.416
11386SOL    MW445865   6.804   6.973   2.451
11387SOL     OW45866   6.049   5.981   3.173
11387SOL    HW245867   6.082   6.062   3.213
11387SOL    HW345868   6.022   6.007   3.085
11387SOL    MW445869   6.048   5.995   3.167
11388SOL     OW45870   6.003   5.948   2.909
11388SOL    HW245871   6.033   5.862   2.880
11388SOL    HW345872   5.908   5.941   2.912
11388SOL    MW445873   5.995   5.937   2.907
11389SOL     OW45874   6.832   6.157   3.600
11389SOL    HW245875   6.884   6.092   3.553
11389SOL    HW345876   6.790   6.208   3.530
11389SOL    MW445877   6.833   6.154   3.583
11390SOL     OW45878   6.931   5.952   3.461
11390SOL    HW245879   6.838   5.936   3.448
11390SOL    HW345880   6.957   5.890   3.529
11390SOL    MW445881   6.921   5.942   3.468
11391SOL     OW45882   6.146   5.726   2.800
11391SOL    HW245883   6.156   5.635   2.826
11391SOL    HW345884   6.102   5.722   2.715
11391SOL    MW445885   6.142   5.714   2.792
11392SOL     OW45886   6.240   7.341   3.346
11392SOL    HW245887   6.157   7.326   3.391
11392SOL    HW345888   6.299   7.274   3.381
11392SOL    MW445889   6.238   7.331   3.356
11393SOL     OW45890   7.297   6.048   2.971
11393SOL    HW245891   7.230   6.081   3.031
11393SOL    HW345892   7.340   6.126   2.937
11393SOL    MW445893   7.295   6.063   2.975
11394SOL     OW45894   7.475   6.768   2.941
11394SOL    HW245895   7.468   6.708   2.866
11394SOL    HW345896   7.401   6.828   2.930
11394SOL    MW445897   7.465   6.768   2.930
11395SOL     OW45898   6.857   6.630   2.859
11395SOL    HW245899   6.871   6.602   2.950
11395SOL    HW345900   6.943   6.661   2.831
11395SOL    MW445901   6.870   6.631   2.868
11396SOL     OW45902   6.940   6.125   3.138
11396SOL    HW245903   6.961   6.126   3.045
11396SOL    HW345904   6.985   6.047   3.171
11396SOL    MW445905   6.947   6.115   3.130
11397SOL     OW45906   7.433   6.256   3.680
11397SOL    HW245907   7.470   6.201   3.749
11397SOL    HW345908   7.458   6.213   3.598
11397SOL    MW445909   7.440   6.244   3.679
11398SOL     OW45910   6.980   6.554   3.731
11398SOL    HW245911   7.046   6.502   3.685
11398SOL    HW345912   7.000   6.541   3.824
11398SOL    MW445913   6.991   6.545   3.738
11399SOL     OW45914   6.931   5.640   2.080
11399SOL    HW245915   7.005   5.684   2.123
11399SOL    HW345916   6.855   5.694   2.102
11399SOL    MW445917   6.931   5.652   2.088
11400SOL     OW45918   6.991   6.415   2.358
11400SOL    HW245919   6.906   6.385   2.328
11400SOL    HW345920   6.983   6.422   2.453
11400SOL    MW445921   6.979   6.413   2.367
11401SOL     OW45922   6.067   6.878   3.089
11401SOL    HW245923   6.079   6.905   3.180
11401SOL    HW345924   6.048   6.959   3.042
11401SOL    MW445925   6.066   6.893   3.094
11402SOL     OW45926   6.351   5.858   2.912
11402SOL    HW245927   6.324   5.860   3.003
11402SOL    HW345928   6.281   5.810   2.867
11402SOL    MW445929   6.339   5.854   2.919
11403SOL     OW45930   6.205   7.350   3.074
11403SOL    HW245931   6.257   7.427   3.051
11403SOL    HW345932   6.214   7.342   3.169
11403SOL    MW445933   6.214   7.357   3.085
11404SOL     OW45934   7.107   6.935   3.306
11404SOL    HW245935   7.092   6.864   3.369
11404SOL    HW345936   7.153   6.893   3.234
11404SOL    MW445937   7.113   6.919   3.306
11405SOL     OW45938   6.181   6.666   3.423
11405SOL    HW245939   6.218   6.671   3.335
11405SOL    HW345940   6.220   6.739   3.470
11405SOL    MW445941   6.191   6.676   3.418
11406SOL     OW45942   6.361   6.709   3.235
11406SOL    HW245943   6.420   6.655   3.288
11406SOL    HW345944   6.376   6.681   3.145
11406SOL    MW445945   6.371   6.698   3.231
11407SOL     OW45946   6.364   6.081   2.084
11407SOL    HW245947   6.437   6.130   2.047
11407SOL    HW345948   6.380   5.990   2.058
11407SOL    MW445949   6.376   6.076   2.077
11408SOL     OW45950   7.172   7.198   3.407
11408SOL    HW245951   7.214   7.183   3.492
11408SOL    HW345952   7.163   7.111   3.369
11408SOL    MW445953   7.176   7.186   3.414
11409SOL     OW45954   5.839   6.590   2.182
11409SOL    HW245955   5.776   6.606   2.111
11409SOL    HW345956   5.786   6.553   2.253
11409SOL    MW445957   5.824   6.587   2.182
11410SOL     OW45958   6.195   6.944   2.041
11410SOL    HW245959   6.210   6.920   2.133
11410SOL    HW345960   6.103   6.922   2.025
11410SOL    MW445961   6.185   6.937   2.051
11411SOL     OW45962   6.734   7.175   2.193
11411SOL    HW245963   6.742   7.093   2.144
11411SOL    HW345964   6.653   7.214   2.160
11411SOL    MW445965   6.724   7.170   2.183
11412SOL     OW45966   5.993   7.333   2.762
11412SOL    HW245967   5.997   7.244   2.797
11412SOL    HW345968   6.019   7.324   2.671
11412SOL    MW445969   5.996   7.321   2.754
11413SOL     OW45970   6.610   6.811   3.005
11413SOL    HW245971   6.542   6.745   3.021
11413SOL    HW345972   6.628   6.805   2.912
11413SOL    MW445973   6.603   6.802   2.996
11414SOL     OW45974   5.699   7.086   3.256
11414SOL    HW245975   5.689   7.044   3.342
11414SOL    HW345976   5.620   7.139   3.246
11414SOL    MW445977   5.688   7.087   3.267
11415SOL     OW45978   6.603   5.950   2.826
11415SOL    HW245979   6.533   5.902   2.871
11415SOL    HW345980   6.635   6.013   2.890
11415SOL    MW445981   6.598   5.952   2.840
11416SOL     OW45982   6.254   6.386   3.446
11416SOL    HW245983   6.247   6.481   3.434
11416SOL    HW345984   6.263   6.375   3.541
11416SOL    MW445985   6.255   6.398   3.456
11417SOL     OW45986   5.975   6.901   3.704
11417SOL    HW245987   6.047   6.903   3.641
11417SOL    HW345988   5.945   6.810   3.703
11417SOL    MW445989   5.980   6.890   3.696
11418SOL     OW45990   7.059   5.664   3.171
11418SOL    HW245991   7.130   5.610   3.135
11418SOL    HW345992   7.058   5.643   3.264
11418SOL    MW445993   7.068   5.655   3.179
11419SOL     OW45994   7.259   7.194   3.655
11419SOL    HW245995   7.232   7.191   3.746
11419SOL    HW345996   7.355   7.198   3.658
11419SOL    MW445997   7.269   7.194   3.667
11420SOL     OW45998   6.070   6.056   2.639
11420SOL    HW245999   6.141   6.004   2.602
11420SOL    HW346000   6.056   6.021   2.726
11420SOL    MW446001   6.078   6.045   2.646
11421SOL     OW46002   6.386   7.149   2.715
11421SOL    HW246003   6.314   7.086   2.728
11421SOL    HW346004   6.347   7.234   2.733
11421SOL    MW446005   6.370   7.152   2.718
11422SOL     OW46006   6.706   5.997   2.363
11422SOL    HW246007   6.728   5.934   2.295
11422SOL    HW346008   6.611   5.989   2.374
11422SOL    MW446009   6.696   5.988   2.355
11423SOL     OW46010   5.791   5.687   2.295
11423SOL    HW246011   5.862   5.708   2.234
11423SOL    HW346012   5.745   5.615   2.253
11423SOL    MW446013   5.795   5.681   2.281
11424SOL     OW46014   5.622   6.154   3.438
11424SOL    HW246015   5.686   6.220   3.413
11424SOL    HW346016   5.541   6.181   3.395
11424SOL    MW446017   5.620   6.166   3.430
11425SOL     OW46018   7.360   7.061   2.395
11425SOL    HW246019   7.330   6.994   2.456
11425SOL    HW346020   7.454   7.067   2.409
11425SOL    MW446021   7.368   7.053   2.405
11426SOL     OW46022   6.916   6.738   2.325
11426SOL    HW246023   6.888   6.824   2.358
11426SOL    HW346024   6.944   6.754   2.235
11426SOL    MW446025   6.916   6.752   2.317
11427SOL     OW46026   6.578   5.658   2.378
11427SOL    HW246027   6.615   5.717   2.443
11427SOL    HW346028   6.555   5.714   2.304
11427SOL    MW446029   6.579   5.673   2.377
11428SOL     OW46030   7.431   6.540   2.800
11428SOL    HW246031   7.422   6.572   2.711
11428SOL    HW346032   7.384   6.456   2.800
11428SOL    MW446033   7.424   6.533   2.790
11429SOL     OW46034   5.807   6.380   3.379
11429SOL    HW246035   5.828   6.449   3.317
11429SOL    HW346036   5.887   6.327   3.384
11429SOL    MW446037   5.820   6.381   3.373
11430SOL     OW46038   7.343   6.471   2.501
11430SOL    HW246039   7.437   6.460   2.489
11430SOL    HW346040   7.319   6.543   2.442
11430SOL    MW446041   7.353   6.479   2.492
11431SOL     OW46042   5.792   6.395   3.646
11431SOL    HW246043   5.718   6.339   3.672
11431SOL    HW346044   5.787   6.398   3.551
11431SOL    MW446045   5.781   6.388   3.636
11432SOL     OW46046   5.958   5.682   3.096
11432SOL    HW246047   6.001   5.766   3.116
11432SOL    HW346048   6.031   5.620   3.089
11432SOL    MW446049   5.973   5.685   3.097
11433SOL     OW46050   5.999   6.349   2.274
11433SOL    HW246051   5.999   6.444   2.259
11433SOL    HW346052   6.076   6.333   2.328
11433SOL    MW446053   6.009   6.360   2.279
11434SOL     OW46054   6.775   6.208   3.338
11434SOL    HW246055   6.811   6.181   3.254
11434SOL    HW346056   6.688   6.242   3.317
11434SOL    MW446057   6.769   6.209   3.325
11435SOL     OW46058   5.758   6.080   2.563
11435SOL    HW246059   5.820   6.087   2.636
11435SOL    HW346060   5.758   5.987   2.540
11435SOL    MW446061   5.766   6.069   2.570
11436SOL     OW46062   6.440   6.341   3.047
11436SOL    HW246063   6.398   6.259   3.023
11436SOL    HW346064   6.441   6.340   3.143
11436SOL    MW446065   6.433   6.330   3.056
11437SOL     OW46066   6.244   5.811   3.152
11437SOL    HW246067   6.175   5.874   3.173
11437SOL    HW346068   6.271   5.775   3.237
11437SOL    MW446069   6.238   5.814   3.165
11438SOL     OW46070   5.627   6.652   2.021
11438SOL    HW246071   5.596   6.717   2.084
11438SOL    HW346072   5.576   6.574   2.040
11438SOL    MW446073   5.617   6.649   2.031
11439SOL     OW46074   7.039   5.664   2.769
11439SOL    HW246075   7.127   5.673   2.806
11439SOL    HW346076   7.049   5.605   2.695
11439SOL    MW446077   7.053   5.658   2.763
11440SOL     OW46078   7.071   6.403   2.613
11440SOL    HW246079   7.151   6.418   2.562
11440SOL    HW346080   7.064   6.308   2.619
11440SOL    MW446081   7.080   6.392   2.608
11441SOL     OW46082   6.211   7.452   1.963
11441SOL    HW246083   6.116   7.452   1.955
11441SOL    HW346084   6.227   7.398   2.041
11441SOL    MW446085   6.201   7.446   1.972
11442SOL     OW46086   6.521   6.329   3.310
11442SOL    HW246087   6.590   6.396   3.307
11442SOL    HW346088   6.454   6.367   3.366
11442SOL    MW446089   6.522   6.342   3.317
11443SOL     OW46090   5.939   6.629   3.558
11443SOL    HW246091   5.893   6.545   3.560
11443SOL    HW346092   5.996   6.623   3.482
11443SOL    MW446093   5.941   6.617   3.550
11444SOL     OW46094   7.056   6.272   1.879
11444SOL    HW246095   6.984   6.248   1.821
11444SOL    HW346096   7.122   6.309   1.821
11444SOL    MW446097   7.055   6.274   1.864
11445SOL     OW46098   6.190   7.004   2.559
11445SOL    HW246099   6.255   6.937   2.580
11445SOL    HW346100   6.242   7.081   2.536
11445SOL    MW446101   6.205   7.006   2.558
11446SOL     OW46102   6.451   6.169   2.689
11446SOL    HW246103   6.391   6.187   2.761
11446SOL    HW346104   6.485   6.081   2.708
11446SOL    MW446105   6.447   6.159   2.702
11447SOL     OW46106   7.392   5.668   3.358
11447SOL    HW246107   7.313   5.714   3.386
11447SOL    HW346108   7.427   5.722   3.287
11447SOL    MW446109   7.386   5.681   3.352
11448SOL     OW46110   6.676   6.752   2.708
11448SOL    HW246111   6.768   6.733   2.726
11448SOL    HW346112   6.649   6.682   2.648
11448SOL    MW446113   6.684   6.740   2.702
11449SOL     OW46114   6.469   6.572   2.063
11449SOL    HW246115   6.455   6.484   2.028
11449SOL    HW346116   6.420   6.629   2.004
11449SOL    MW446117   6.461   6.567   2.051
11450SOL     OW46118   6.950   6.990   2.804
11450SOL    HW246119   6.923   7.074   2.769
11450SOL    HW346120   6.910   6.985   2.891
11450SOL    MW446121   6.943   6.999   2.810
11451SOL     OW46122   6.869   6.938   3.072
11451SOL    HW246123   6.880   6.905   3.161
11451SOL    HW346124   6.788   6.897   3.041
11451SOL    MW446125   6.859   6.930   3.078
11452SOL     OW46126   5.882   6.296   2.842
11452SOL    HW246127   5.832   6.295   2.923
11452SOL    HW346128   5.902   6.388   2.826
11452SOL    MW446129   5.878   6.308   2.850
11453SOL     OW46130   6.949   7.060   3.604
11453SOL    HW246131   6.949   7.154   3.620
11453SOL    HW346132   6.994   7.050   3.520
11453SOL    MW446133   6.955   7.070   3.595
11454SOL     OW46134   7.188   5.778   2.165
11454SOL    HW246135   7.181   5.782   2.260
11454SOL    HW346136   7.200   5.869   2.138
11454SOL    MW446137   7.189   5.791   2.173
11455SOL     OW46138   6.477   6.341   2.279
11455SOL    HW246139   6.457   6.327   2.186
11455SOL    HW346140   6.570   6.320   2.286
11455SOL    MW446141   6.487   6.336   2.268
11456SOL     OW46142   5.804   5.964   3.583
11456SOL    HW246143   5.761   6.023   3.520
11456SOL    HW346144   5.872   6.019   3.623
11456SOL    MW446145   5.808   5.979   3.580
11457SOL     OW46146   6.916   6.584   3.128
11457SOL    HW246147   6.979   6.581   3.201
11457SOL    HW346148   6.832   6.602   3.170
11457SOL    MW446149   6.912   6.586   3.143
11458SOL     OW46150   6.460   7.299   2.317
11458SOL    HW246151   6.518   7.370   2.344
11458SOL    HW346152   6.483   7.227   2.375
11458SOL    MW446153   6.471   7.299   2.328
11459SOL     OW46154   7.255   5.761   2.907
11459SOL    HW246155   7.300   5.679   2.926
11459SOL    HW346156   7.275   5.817   2.983
11459SOL    MW446157   7.265   5.757   2.919
11460SOL     OW46158   5.703   5.604   3.006
11460SOL    HW246159   5.694   5.605   2.911
11460SOL    HW346160   5.797   5.616   3.021
11460SOL    MW446161   5.715   5.607   2.997
11461SOL     OW46162   7.340   6.797   2.626
11461SOL    HW246163   7.319   6.743   2.549
11461SOL    HW346164   7.436   6.795   2.630
11461SOL    MW446165   7.349   6.790   2.615
11462SOL     OW46166   6.032   6.942   3.369
11462SOL    HW246167   5.953   6.892   3.392
11462SOL    HW346168   6.102   6.901   3.419
11462SOL    MW446169   6.030   6.930   3.379
11463SOL     OW46170   5.916   5.731   2.052
11463SOL    HW246171   5.845   5.786   2.020
11463SOL    HW346172   5.958   5.697   1.973
11463SOL    MW446173   5.912   5.733   2.038
11464SOL     OW46174   7.040   6.228   2.888
11464SOL    HW246175   6.963   6.274   2.854
11464SOL    HW346176   7.097   6.297   2.922
11464SOL    MW446177   7.037   6.243   2.888
11465SOL     OW46178   5.672   5.830   1.901
11465SOL    HW246179   5.639   5.909   1.945
11465SOL    HW346180   5.727   5.863   1.830
11465SOL    MW446181   5.675   5.844   1.898
11466SOL     OW46182   5.706   7.087   2.090
11466SOL    HW246183   5.723   7.171   2.132
11466SOL    HW346184   5.741   7.096   2.002
11466SOL    MW446185   5.711   7.100   2.084
11467SOL     OW46186   6.978   7.176   2.307
11467SOL    HW246187   7.041   7.166   2.236
11467SOL    HW346188   6.895   7.196   2.262
11467SOL    MW446189   6.975   7.177   2.292
11468SOL     OW46190   7.341   6.444   3.993
11468SOL    HW246191   7.382   6.386   4.058
11468SOL    HW346192   7.248   6.436   4.010
11468SOL    MW446193   7.335   6.436   4.003
11469SOL     OW46194   7.207   6.376   4.988
11469SOL    HW246195   7.162   6.443   5.039
11469SOL    HW346196   7.295   6.412   4.974
11469SOL    MW446197   7.213   6.389   4.992
11470SOL     OW46198   6.135   6.627   4.222
11470SOL    HW246199   6.225   6.602   4.206
11470SOL    HW346200   6.131   6.720   4.199
11470SOL    MW446201   6.147   6.636   4.217
11471SOL     OW46202   7.251   7.330   4.364
11471SOL    HW246203   7.263   7.276   4.442
11471SOL    HW346204   7.288   7.278   4.293
11471SOL    MW446205   7.257   7.315   4.365
11472SOL     OW46206   7.187   6.770   4.969
11472SOL    HW246207   7.108   6.735   4.927
11472SOL    HW346208   7.214   6.842   4.913
11472SOL    MW446209   7.180   6.775   4.956
11473SOL     OW46210   6.419   6.083   4.235
11473SOL    HW246211   6.394   6.171   4.263
11473SOL    HW346212   6.416   6.086   4.139
11473SOL    MW446213   6.415   6.095   4.227
11474SOL     OW46214   5.861   6.111   4.163
11474SOL    HW246215   5.893   6.199   4.145
11474SOL    HW346216   5.849   6.109   4.258
11474SOL    MW446217   5.864   6.123   4.175
11475SOL     OW46218   5.939   6.524   5.064
11475SOL    HW246219   6.002   6.471   5.015
11475SOL    HW346220   5.920   6.598   5.007
11475SOL    MW446221   5.945   6.526   5.051
11476SOL     OW46222   6.260   5.866   4.250
11476SOL    HW246223   6.318   5.942   4.252
11476SOL    HW346224   6.195   5.887   4.183
11476SOL    MW446225   6.259   5.878   4.241
11477SOL     OW46226   6.347   6.793   4.425
11477SOL    HW246227   6.427   6.796   4.477
11477SOL    HW346228   6.375   6.760   4.339
11477SOL    MW446229   6.361   6.789   4.420
11478SOL     OW46230   6.372   7.134   5.328
11478SOL    HW246231   6.456   7.160   5.367
11478SOL    HW346232   6.396   7.078   5.254
11478SOL    MW446233   6.386   7.130   5.323
11479SOL     OW46234   6.124   6.297   4.416
11479SOL    HW246235   6.109   6.217   4.467
11479SOL    HW346236   6.206   6.332   4.450
11479SOL    MW446237   6.132   6.289   4.428
11480SOL     OW46238   6.461   6.983   5.101
11480SOL    HW246239   6.425   7.049   5.041
11480SOL    HW346240   6.389   6.921   5.114
11480SOL    MW446241   6.447   6.983   5.095
11481SOL     OW46242   6.266   6.123   4.793
11481SOL    HW246243   6.172   6.119   4.811
11481SOL    HW346244   6.296   6.032   4.802
11481SOL    MW446245   6.257   6.111   4.796
11482SOL     OW46246   6.012   6.537   4.697
11482SOL    HW246247   5.967   6.544   4.613
11482SOL    HW346248   5.992   6.620   4.741
11482SOL    MW446249   6.004   6.549   4.691
11483SOL     OW46250   5.709   7.383   4.572
11483SOL    HW246251   5.798   7.375   4.607
11483SOL    HW346252   5.673   7.295   4.577
11483SOL    MW446253   5.716   7.370   4.577
11484SOL     OW46254   6.974   6.775   3.941
11484SOL    HW246255   6.892   6.811   3.907
11484SOL    HW346256   7.042   6.818   3.890
11484SOL    MW446257   6.972   6.785   3.929
11485SOL     OW46258   5.973   6.910   4.607
11485SOL    HW246259   5.949   6.963   4.683
11485SOL    HW346260   6.029   6.968   4.555
11485SOL    MW446261   5.977   6.925   4.610
11486SOL     OW46262   6.535   6.554   4.417
11486SOL    HW246263   6.449   6.541   4.457
11486SOL    HW346264   6.588   6.481   4.449
11486SOL    MW446265   6.531   6.543   4.426
11487SOL     OW46266   5.943   7.206   5.202
11487SOL    HW246267   5.851   7.182   5.187
11487SOL    HW346268   5.987   7.123   5.219
11487SOL    MW446269   5.937   7.191   5.201
11488SOL     OW46270   6.526   6.916   4.134
11488SOL    HW246271   6.503   6.978   4.202
11488SOL    HW346272   6.483   6.834   4.160
11488SOL    MW446273   6.518   6.912   4.145
11489SOL     OW46274   7.399   5.917   4.590
11489SOL    HW246275   7.336   5.897   4.659
11489SOL    HW346276   7.389   5.846   4.527
11489SOL    MW446277   7.389   5.904   4.591
11490SOL     OW46278   6.023   5.889   4.102
11490SOL    HW246279   5.997   5.851   4.018
11490SOL    HW346280   5.960   5.959   4.118
11490SOL    MW446281   6.012   5.892   4.093
11491SOL     OW46282   5.858   6.850   4.139
11491SOL    HW246283   5.806   6.918   4.095
11491SOL    HW346284   5.855   6.776   4.079
11491SOL    MW446285   5.850   6.849   4.126
11492SOL     OW46286   6.520   7.313   3.917
11492SOL    HW246287   6.475   7.329   4.000
11492SOL    HW346288   6.451   7.278   3.859
11492SOL    MW446289   6.506   7.310   3.919
11493SOL     OW46290   7.455   6.086   3.892
11493SOL    HW246291   7.364   6.088   3.920
11493SOL    HW346292   7.500   6.148   3.950
11493SOL    MW446293   7.448   6.094   3.902
11494SOL     OW46294   7.200   6.689   4.242
11494SOL    HW246295   7.110   6.689   4.277
11494SOL    HW346296   7.193   6.735   4.159
11494SOL    MW446297   7.187   6.695   4.236
11495SOL     OW46298   7.000   6.324   5.314
11495SOL    HW246299   7.069   6.262   5.291
11495SOL    HW346300   6.925   6.298   5.261
11495SOL    MW446301   7.000   6.311   5.305
11496SOL     OW46302   5.741   7.204   4.866
11496SOL    HW246303   5.724   7.150   4.943
11496SOL    HW346304   5.729   7.294   4.896
11496SOL    MW446305   5.738   7.208   4.880
11497SOL     OW46306   6.736   6.711   5.306
11497SOL    HW246307   6.721   6.804   5.291
11497SOL    HW346308   6.831   6.701   5.306
11497SOL    MW446309   6.745   6.721   5.303
11498SOL     OW46310   6.532   6.135   5.507
11498SOL    HW246311   6.622   6.136   5.474
11498SOL    HW346312   6.491   6.060   5.465
11498SOL    MW446313   6.538   6.125   5.498
11499SOL     OW46314   7.107   6.667   4.634
11499SOL    HW246315   7.110   6.601   4.565
11499SOL    HW346316   7.192   6.710   4.630
11499SOL    MW446317   7.119   6.663   4.625
11500SOL     OW46318   6.727   6.270   4.203
11500SOL    HW246319   6.753   6.294   4.114
11500SOL    HW346320   6.709   6.177   4.199
11500SOL    MW446321   6.729   6.262   4.190
11501SOL     OW46322   7.392   6.890   4.054
11501SOL    HW246323   7.348   6.931   4.129
11501SOL    HW346324   7.449   6.958   4.019
11501SOL    MW446325   7.394   6.904   4.059
11502SOL     OW46326   6.312   5.939   5.457
11502SOL    HW246327   6.322   5.865   5.397
11502SOL    HW346328   6.348   5.908   5.540
11502SOL    MW446329   6.318   5.925   5.459
11503SOL     OW46330   6.048   7.306   4.372
11503SOL    HW246331   6.080   7.394   4.350
11503SOL    HW346332   6.001   7.278   4.294
11503SOL    MW446333   6.047   7.314   4.359
11504SOL     OW46334   7.432   5.668   4.421
11504SOL    HW246335   7.486   5.619   4.483
11504SOL    HW346336   7.375   5.602   4.382
11504SOL    MW446337   7.432   5.652   4.423
11505SOL     OW46338   6.551   5.621   4.834
11505SOL    HW246339   6.510   5.699   4.796
11505SOL    HW346340   6.645   5.639   4.829
11505SOL    MW446341   6.557   5.633   4.829
11506SOL     OW46342   7.168   7.174   3.920
11506SOL    HW246343   7.216   7.243   3.966
11506SOL    HW346344   7.089   7.218   3.889
11506SOL    MW446345   7.163   7.188   3.923
11507SOL     OW46346   6.566   6.299   3.864
11507SOL    HW246347   6.568   6.246   3.785
11507SOL    HW346348   6.654   6.336   3.870
11507SOL    MW446349   6.578   6.298   3.853
11508SOL     OW46350   7.180   6.225   4.200
11508SOL    HW246351   7.219   6.225   4.287
11508SOL    HW346352   7.121   6.301   4.200
11508SOL    MW446353   7.177   6.236   4.211
11509SOL     OW46354   6.497   6.592   5.329
11509SOL    HW246355   6.474   6.572   5.419
11509SOL    HW346356   6.582   6.636   5.334
11509SOL    MW446357   6.504   6.595   5.341
11510SOL     OW46358   6.577   5.729   5.089
11510SOL    HW246359   6.583   5.691   5.002
11510SOL    HW346360   6.566   5.823   5.074
11510SOL    MW446361   6.578   5.737   5.077
11511SOL     OW46362   6.666   6.218   4.923
11511SOL    HW246363   6.741   6.247   4.870
11511SOL    HW346364   6.598   6.283   4.907
11511SOL    MW446365   6.667   6.230   4.913
11512SOL     OW46366   7.216   6.186   5.200
11512SOL    HW246367   7.197   6.095   5.179
11512SOL    HW346368   7.194   6.235   5.121
11512SOL    MW446369   7.211   6.179   5.187
11513SOL     OW46370   7.358   7.280   5.104
11513SOL    HW246371   7.286   7.242   5.155
11513SOL    HW346372   7.375   7.365   5.145
11513SOL    MW446373   7.352   7.285   5.116
11514SOL     OW46374   6.663   5.924   5.306
11514SOL    HW246375   6.629   5.963   5.225
11514SOL    HW346376   6.641   5.832   5.299
11514SOL    MW446377   6.656   5.917   5.296
11515SOL     OW46378   7.072   6.738   5.382
11515SOL    HW246379   7.154   6.779   5.412
11515SOL    HW346380   7.035   6.700   5.462
11515SOL    MW446381   7.078   6.739   5.397
11516SOL     OW46382   7.367   6.111   4.366
11516SOL    HW246383   7.456   6.080   4.383
11516SOL    HW346384   7.310   6.051   4.414
11516SOL    MW446385   7.370   6.099   4.375
11517SOL     OW46386   5.793   5.825   4.395
11517SOL    HW246387   5.784   5.765   4.321
11517SOL    HW346388   5.726   5.796   4.458
11517SOL    MW446389   5.783   5.812   4.393
11518SOL     OW46390   6.736   6.918   3.956
11518SOL    HW246391   6.686   6.920   4.038
11518SOL    HW346392   6.670   6.936   3.888
11518SOL    MW446393   6.722   6.920   3.958
11519SOL     OW46394   5.740   5.998   4.758
11519SOL    HW246395   5.712   6.089   4.767
11519SOL    HW346396   5.677   5.959   4.697
11519SOL    MW446397   5.727   6.004   4.752
11520SOL     OW46398   6.199   7.336   4.064
11520SOL    HW246399   6.120   7.294   4.097
11520SOL    HW346400   6.265   7.319   4.131
11520SOL    MW446401   6.198   7.328   4.077
11521SOL     OW46402   7.327   6.856   5.461
11521SOL    HW246403   7.377   6.782   5.493
11521SOL    HW346404   7.273   6.883   5.536
11521SOL    MW446405   7.327   6.850   5.474
11522SOL     OW46406   6.335   6.751   3.771
11522SOL    HW246407   6.257   6.697   3.758
11522SOL    HW346408   6.306   6.824   3.824
11522SOL    MW446409   6.321   6.753   3.776
11523SOL     OW46410   7.461   6.491   4.963
11523SOL    HW246411   7.477   6.529   4.876
11523SOL    HW346412   7.495   6.557   5.024
11523SOL    MW446413   7.468   6.504   4.959
11524SOL     OW46414   7.253   7.200   4.632
11524SOL    HW246415   7.282   7.267   4.693
11524SOL    HW346416   7.234   7.124   4.687
11524SOL    MW446417   7.255   7.200   4.647
11525SOL     OW46418   6.916   7.267   3.839
11525SOL    HW246419   6.842   7.230   3.889
11525SOL    HW346420   6.924   7.357   3.872
11525SOL    MW446421   6.907   7.274   3.851
11526SOL     OW46422   5.724   6.273   4.928
11526SOL    HW246423   5.786   6.303   4.994
11526SOL    HW346424   5.658   6.342   4.922
11526SOL    MW446425   5.723   6.286   4.935
11527SOL     OW46426   7.140   6.941   3.781
11527SOL    HW246427   7.087   6.990   3.717
11527SOL    HW346428   7.171   7.007   3.842
11527SOL    MW446429   7.138   6.955   3.779
11528SOL     OW46430   6.365   5.830   3.836
11528SOL    HW246431   6.313   5.750   3.824
11528SOL    HW346432   6.452   5.807   3.804
11528SOL    MW446433   6.368   5.816   3.830
11529SOL     OW46434   5.819   7.382   5.380
11529SOL    HW246435   5.793   7.450   5.318
11529SOL    HW346436   5.867   7.319   5.328
11529SOL    MW446437   5.821   7.382   5.366
11530SOL     OW46438   5.871   6.701   4.887
11530SOL    HW246439   5.924   6.776   4.912
11530SOL    HW346440   5.790   6.739   4.853
11530SOL    MW446441   5.867   6.716   4.887
11531SOL     OW46442   6.411   6.605   4.875
11531SOL    HW246443   6.439   6.514   4.887
11531SOL    HW346444   6.340   6.599   4.811
11531SOL    MW446445   6.404   6.593   4.870
11532SOL     OW46446   5.726   6.470   4.293
11532SOL    HW246447   5.817   6.485   4.320
11532SOL    HW346448   5.729   6.391   4.239
11532SOL    MW446449   5.738   6.462   4.291
11533SOL     OW46450   5.962   6.178   5.547
11533SOL    HW246451   5.909   6.258   5.554
11533SOL    HW346452   6.032   6.190   5.612
11533SOL    MW446453   5.964   6.191   5.555
11534SOL     OW46454   6.348   5.728   5.254
11534SOL    HW246455   6.325   5.636   5.256
11534SOL    HW346456   6.434   5.730   5.211
11534SOL    MW446457   6.355   5.718   5.250
11535SOL     OW46458   6.032   6.252   5.293
11535SOL    HW246459   6.112   6.302   5.279
11535SOL    HW346460   6.023   6.246   5.388
11535SOL    MW446461   6.041   6.258   5.303
11536SOL     OW46462   6.353   7.402   4.667
11536SOL    HW246463   6.442   7.417   4.697
11536SOL    HW346464   6.348   7.449   4.583
11536SOL    MW446465   6.363   7.410   4.660
11537SOL     OW46466   7.009   5.777   5.564
11537SOL    HW246467   7.065   5.704   5.590
11537SOL    HW346468   6.979   5.815   5.646
11537SOL    MW446469   7.013   5.772   5.577
11538SOL     OW46470   5.734   7.082   4.332
11538SOL    HW246471   5.706   7.121   4.414
11538SOL    HW346472   5.754   6.991   4.354
11538SOL    MW446473   5.732   7.074   4.345
11539SOL     OW46474   6.567   7.125   4.367
11539SOL    HW246475   6.650   7.079   4.351
11539SOL    HW346476   6.557   7.124   4.463
11539SOL    MW446477   6.577   7.118   4.377
11540SOL     OW46478   7.399   6.270   4.681
11540SOL    HW246479   7.488   6.300   4.663
11540SOL    HW346480   7.379   6.210   4.610
11540SOL    MW446481   7.408   6.267   4.670
11541SOL     OW46482   7.250   6.449   5.561
11541SOL    HW246483   7.305   6.373   5.542
11541SOL    HW346484   7.252   6.457   5.656
11541SOL    MW446485   7.258   6.440   5.569
11542SOL     OW46486   6.300   7.182   3.772
11542SOL    HW246487   6.240   7.251   3.742
11542SOL    HW346488   6.245   7.124   3.825
11542SOL    MW446489   6.284   7.184   3.774
11543SOL     OW46490   6.738   5.827   3.995
11543SOL    HW246491   6.671   5.803   3.932
11543SOL    HW346492   6.803   5.876   3.944
11543SOL    MW446493   6.738   5.829   3.980
11544SOL     OW46494   6.545   6.011   5.080
11544SOL    HW246495   6.464   6.052   5.108
11544SOL    HW346496   6.592   6.079   5.032
11544SOL    MW446497   6.540   6.026   5.078
11545SOL     OW46498   6.805   6.349   4.703
11545SOL    HW246499   6.818   6.443   4.713
11545SOL    HW346500   6.766   6.339   4.617
11545SOL    MW446501   6.801   6.360   4.693
11546SOL     OW46502   6.257   6.544   4.507
11546SOL    HW246503   6.168   6.535   4.540
11546SOL    HW346504   6.261   6.634   4.475
11546SOL    MW446505   6.246   6.555   4.507
11547SOL     OW46506   7.056   6.127   4.502
11547SOL    HW246507   7.001   6.048   4.501
11547SOL    HW346508   7.038   6.168   4.586
11547SOL    MW446509   7.046   6.122   4.511
11548SOL     OW46510   6.027   5.814   5.319
11548SOL    HW246511   5.948   5.832   5.371
11548SOL    HW346512   6.022   5.876   5.246
11548SOL    MW446513   6.017   5.824   5.316
11549SOL     OW46514   6.675   6.331   4.459
11549SOL    HW246515   6.612   6.263   4.483
11549SOL    HW346516   6.695   6.312   4.367
11549SOL    MW446517   6.669   6.318   4.451
11550SOL     OW46518   5.931   7.226   4.161
11550SOL    HW246519   5.892   7.273   4.087
11550SOL    HW346520   5.865   7.161   4.186
11550SOL    MW446521   5.918   7.224   4.155
11551SOL     OW46522   6.423   6.635   4.185
11551SOL    HW246523   6.425   6.609   4.092
11551SOL    HW346524   6.481   6.572   4.228
11551SOL    MW446525   6.431   6.624   4.179
11552SOL     OW46526   6.976   7.195   4.957
11552SOL    HW246527   6.901   7.241   4.995
11552SOL    HW346528   6.958   7.102   4.974
11552SOL    MW446529   6.965   7.189   4.965
11553SOL     OW46530   6.980   7.403   4.387
11553SOL    HW246531   6.923   7.356   4.326
11553SOL    HW346532   7.066   7.364   4.374
11553SOL    MW446533   6.983   7.394   4.377
11554SOL     OW46534   6.933   5.879   4.518
11554SOL    HW246535   6.961   5.811   4.579
11554SOL    HW346536   6.847   5.850   4.488
11554SOL    MW446537   6.926   5.866   4.522
11555SOL     OW46538   5.738   6.813   4.452
11555SOL    HW246539   5.802   6.845   4.515
11555SOL    HW346540   5.787   6.749   4.400
11555SOL    MW446541   5.753   6.809   4.453
11556SOL     OW46542   6.238   6.889   5.434
11556SOL    HW246543   6.286   6.972   5.421
11556SOL    HW346544   6.295   6.837   5.490
11556SOL    MW446545   6.252   6.893   5.440
11557SOL     OW46546   5.814   7.131   5.574
11557SOL    HW246547   5.870   7.055   5.589
11557SOL    HW346548   5.763   7.109   5.496
11557SOL    MW446549   5.814   7.118   5.565
11558SOL     OW46550   6.913   5.983   3.853
11558SOL    HW246551   6.886   6.049   3.789
11558SOL    HW346552   6.983   6.026   3.903
11558SOL    MW446553   6.918   5.996   3.850
11559SOL     OW46554   6.581   5.688   3.790
11559SOL    HW246555   6.637   5.680   3.712
11559SOL    HW346556   6.558   5.598   3.812
11559SOL    MW446557   6.586   5.675   3.783
11560SOL     OW46558   7.086   6.539   3.995
11560SOL    HW246559   7.053   6.628   3.985
11560SOL    HW346560   7.051   6.510   4.080
11560SOL    MW446561   7.076   6.548   4.006
11561SOL     OW46562   6.699   6.968   5.183
11561SOL    HW246563   6.610   6.974   5.151
11561SOL    HW346564   6.743   7.047   5.151
11561SOL    MW446565   6.694   6.978   5.175
11562SOL     OW46566   5.992   5.636   5.525
11562SOL    HW246567   5.920   5.601   5.473
11562SOL    HW346568   6.050   5.677   5.460
11562SOL    MW446569   5.990   5.637   5.510
11563SOL     OW46570   6.016   7.126   4.824
11563SOL    HW246571   6.061   7.188   4.881
11563SOL    HW346572   5.923   7.145   4.837
11563SOL    MW446573   6.009   7.136   4.831
11564SOL     OW46574   7.456   6.655   5.178
11564SOL    HW246575   7.371   6.668   5.137
11564SOL    HW346576   7.436   6.619   5.265
11564SOL    MW446577   7.443   6.651   5.183
11565SOL     OW46578   6.438   7.194   4.932
11565SOL    HW246579   6.462   7.183   4.841
11565SOL    HW346580   6.361   7.251   4.930
11565SOL    MW446581   6.430   7.199   4.921
11566SOL     OW46582   6.080   6.577   3.787
11566SOL    HW246583   6.003   6.590   3.843
11566SOL    HW346584   6.044   6.541   3.706
11566SOL    MW446585   6.066   6.573   3.784
11567SOL     OW46586   6.733   6.550   4.030
11567SOL    HW246587   6.643   6.571   4.005
11567SOL    HW346588   6.760   6.623   4.086
11567SOL    MW446589   6.725   6.562   4.033
11568SOL     OW46590   6.233   6.899   4.722
11568SOL    HW246591   6.226   6.878   4.816
11568SOL    HW346592   6.151   6.867   4.685
11568SOL    MW446593   6.221   6.893   4.729
11569SOL     OW46594   7.097   5.909   5.124
11569SOL    HW246595   7.044   5.911   5.204
11569SOL    HW346596   7.082   5.822   5.087
11569SOL    MW446597   7.089   5.899   5.129
11570SOL     OW46598   7.433   5.833   4.997
11570SOL    HW246599   7.414   5.900   4.932
11570SOL    HW346600   7.490   5.771   4.952
11570SOL    MW446601   7.437   5.834   4.983
11571SOL     OW46602   5.679   6.991   5.385
11571SOL    HW246603   5.723   6.924   5.331
11571SOL    HW346604   5.594   6.953   5.405
11571SOL    MW446605   5.674   6.977   5.381
11572SOL     OW46606   6.362   5.666   4.437
11572SOL    HW246607   6.291   5.727   4.419
11572SOL    HW346608   6.413   5.663   4.356
11572SOL    MW446609   6.358   5.672   4.424
11573SOL     OW46610   6.120   6.906   4.186
11573SOL    HW246611   6.113   6.938   4.276
11573SOL    HW346612   6.030   6.890   4.158
11573SOL    MW446613   6.108   6.908   4.193
11574SOL     OW46614   6.715   7.299   5.095
11574SOL    HW246615   6.635   7.284   5.045
11574SOL    HW346616   6.722   7.394   5.102
11574SOL    MW446617   6.706   7.310   5.089
11575SOL     OW46618   6.829   7.264   4.585
11575SOL    HW246619   6.876   7.337   4.544
11575SOL    HW346620   6.750   7.303   4.621
11575SOL    MW446621   6.824   7.279   4.584
11576SOL     OW46622   7.237   7.359   4.860
11576SOL    HW246623   7.280   7.329   4.940
11576SOL    HW346624   7.156   7.307   4.857
11576SOL    MW446625   7.232   7.348   4.870
11577SOL     OW46626   6.322   6.323   5.567
11577SOL    HW246627   6.392   6.265   5.539
11577SOL    HW346628   6.265   6.268   5.622
11577SOL    MW446629   6.324   6.310   5.571
11578SOL     OW46630   7.109   6.535   5.200
11578SOL    HW246631   7.114   6.588   5.280
11578SOL    HW346632   7.071   6.452   5.228
11578SOL    MW446633   7.105   6.530   5.215
11579SOL     OW46634   6.749   5.670   5.446
11579SOL    HW246635   6.744   5.577   5.427
11579SOL    HW346636   6.832   5.681   5.492
11579SOL    MW446637   6.757   5.659   5.450
11580SOL     OW46638   6.123   6.190   3.900
11580SOL    HW246639   6.089   6.246   3.970
11580SOL    HW346640   6.194   6.140   3.940
11580SOL    MW446641   6.129   6.191   3.914
11581SOL     OW46642   7.219   6.941   4.722
11581SOL    HW246643   7.254   6.923   4.635
11581SOL    HW346644   7.124   6.942   4.709
11581SOL    MW446645   7.211   6.938   4.709
11582SOL     OW46646   6.648   6.589   5.091
11582SOL    HW246647   6.691   6.624   5.169
11582SOL    HW346648   6.631   6.666   5.037
11582SOL    MW446649   6.651   6.604   5.094
11583SOL     OW46650   7.179   6.076   3.964
11583SOL    HW246651   7.171   6.147   3.901
11583SOL    HW346652   7.197   6.120   4.047
11583SOL    MW446653   7.180   6.090   3.966
11584SOL     OW46654   6.039   5.731   4.393
11584SOL    HW246655   6.089   5.774   4.324
11584SOL    HW346656   5.954   5.775   4.393
11584SOL    MW446657   6.036   5.744   4.384
11585SOL     OW46658   5.798   6.793   5.253
11585SOL    HW246659   5.826   6.746   5.331
11585SOL    HW346660   5.719   6.748   5.224
11585SOL    MW446661   5.791   6.782   5.259
11586SOL     OW46662   6.306   6.120   5.220
11586SOL    HW246663   6.278   6.208   5.244
11586SOL    HW346664   6.275   6.064   5.291
11586SOL    MW446665   6.298   6.123   5.232
11587SOL     OW46666   6.848   6.338   3.939
11587SOL    HW246667   6.895   6.356   3.858
11587SOL    HW346668   6.814   6.422   3.967
11587SOL    MW446669   6.850   6.352   3.932
11588SOL     OW46670   5.961   6.516   4.433
11588SOL    HW246671   6.019   6.572   4.381
11588SOL    HW346672   6.005   6.431   4.435
11588SOL    MW446673   5.974   6.513   4.426
11589SOL     OW46674   7.101   5.868   4.270
11589SOL    HW246675   7.023   5.818   4.295
11589SOL    HW346676   7.072   5.959   4.270
11589SOL    MW446677   7.087   5.872   4.273
11590SOL     OW46678   6.687   5.830   4.429
11590SOL    HW246679   6.707   5.905   4.373
11590SOL    HW346680   6.667   5.869   4.514
11590SOL    MW446681   6.688   5.846   4.433
11591SOL     OW46682   6.583   7.080   3.761
11591SOL    HW246683   6.610   7.158   3.713
11591SOL    HW346684   6.490   7.095   3.780
11591SOL    MW446685   6.574   7.093   3.757
11592SOL     OW46686   7.447   6.603   5.448
11592SOL    HW246687   7.360   6.583   5.484
11592SOL    HW346688   7.501   6.529   5.473
11592SOL    MW446689   7.442   6.592   5.456
11593SOL     OW46690   5.668   7.116   4.605
11593SOL    HW246691   5.700   7.120   4.696
11593SOL    HW346692   5.573   7.124   4.613
11593SOL    MW446693   5.660   7.119   4.618
11594SOL     OW46694   5.623   6.242   4.152
11594SOL    HW246695   5.563   6.214   4.222
11594SOL    HW346696   5.697   6.182   4.158
11594SOL    MW446697   5.625   6.231   4.161
11595SOL     OW46698   6.791   6.973   4.312
11595SOL    HW246699   6.814   6.924   4.390
11595SOL    HW346700   6.872   7.015   4.284
11595SOL    MW446701   6.804   6.973   4.319
11596SOL     OW46702   6.049   5.981   5.041
11596SOL    HW246703   6.082   6.062   5.081
11596SOL    HW346704   6.022   6.007   4.953
11596SOL    MW446705   6.048   5.995   5.035
11597SOL     OW46706   6.003   5.948   4.777
11597SOL    HW246707   6.033   5.862   4.748
11597SOL    HW346708   5.908   5.941   4.780
11597SOL    MW446709   5.995   5.937   4.775
11598SOL     OW46710   6.832   6.157   5.468
11598SOL    HW246711   6.884   6.092   5.421
11598SOL    HW346712   6.790   6.208   5.398
11598SOL    MW446713   6.833   6.154   5.451
11599SOL     OW46714   6.931   5.952   5.329
11599SOL    HW246715   6.838   5.936   5.316
11599SOL    HW346716   6.957   5.890   5.397
11599SOL    MW446717   6.921   5.942   5.336
11600SOL     OW46718   6.146   5.726   4.668
11600SOL    HW246719   6.156   5.635   4.694
11600SOL    HW346720   6.102   5.722   4.583
11600SOL    MW446721   6.142   5.714   4.660
11601SOL     OW46722   6.240   7.341   5.214
11601SOL    HW246723   6.157   7.326   5.259
11601SOL    HW346724   6.299   7.274   5.249
11601SOL    MW446725   6.238   7.331   5.224
11602SOL     OW46726   7.297   6.048   4.839
11602SOL    HW246727   7.230   6.081   4.899
11602SOL    HW346728   7.340   6.126   4.805
11602SOL    MW446729   7.295   6.063   4.843
11603SOL     OW46730   7.475   6.768   4.809
11603SOL    HW246731   7.468   6.708   4.734
11603SOL    HW346732   7.401   6.828   4.798
11603SOL    MW446733   7.465   6.768   4.798
11604SOL     OW46734   6.857   6.630   4.727
11604SOL    HW246735   6.871   6.602   4.818
11604SOL    HW346736   6.943   6.661   4.699
11604SOL    MW446737   6.870   6.631   4.736
11605SOL     OW46738   6.940   6.125   5.006
11605SOL    HW246739   6.961   6.126   4.913
11605SOL    HW346740   6.985   6.047   5.039
11605SOL    MW446741   6.947   6.115   4.998
11606SOL     OW46742   7.433   6.256   5.548
11606SOL    HW246743   7.470   6.201   5.617
11606SOL    HW346744   7.458   6.213   5.466
11606SOL    MW446745   7.440   6.244   5.547
11607SOL     OW46746   6.980   6.554   5.600
11607SOL    HW246747   7.046   6.502   5.554
11607SOL    HW346748   7.000   6.541   5.693
11607SOL    MW446749   6.991   6.545   5.607
11608SOL     OW46750   6.931   5.640   3.948
11608SOL    HW246751   7.005   5.684   3.991
11608SOL    HW346752   6.855   5.694   3.970
11608SOL    MW446753   6.931   5.652   3.956
11609SOL     OW46754   6.991   6.415   4.226
11609SOL    HW246755   6.906   6.385   4.196
11609SOL    HW346756   6.983   6.422   4.321
11609SOL    MW446757   6.979   6.413   4.235
11610SOL     OW46758   6.067   6.878   4.957
11610SOL    HW246759   6.079   6.905   5.048
11610SOL    HW346760   6.048   6.959   4.910
11610SOL    MW446761   6.066   6.893   4.962
11611SOL     OW46762   6.351   5.858   4.780
11611SOL    HW246763   6.324   5.860   4.871
11611SOL    HW346764   6.281   5.810   4.735
11611SOL    MW446765   6.339   5.854   4.787
11612SOL     OW46766   6.205   7.350   4.942
11612SOL    HW246767   6.257   7.427   4.919
11612SOL    HW346768   6.214   7.342   5.037
11612SOL    MW446769   6.214   7.357   4.953
11613SOL     OW46770   7.107   6.935   5.174
11613SOL    HW246771   7.092   6.864   5.237
11613SOL    HW346772   7.153   6.893   5.102
11613SOL    MW446773   7.113   6.919   5.174
11614SOL     OW46774   6.181   6.666   5.291
11614SOL    HW246775   6.218   6.671   5.203
11614SOL    HW346776   6.220   6.739   5.338
11614SOL    MW446777   6.191   6.676   5.286
11615SOL     OW46778   6.361   6.709   5.103
11615SOL    HW246779   6.420   6.655   5.156
11615SOL    HW346780   6.376   6.681   5.013
11615SOL    MW446781   6.371   6.698   5.099
11616SOL     OW46782   6.364   6.081   3.952
11616SOL    HW246783   6.437   6.130   3.915
11616SOL    HW346784   6.380   5.990   3.926
11616SOL    MW446785   6.376   6.076   3.945
11617SOL     OW46786   7.172   7.198   5.275
11617SOL    HW246787   7.214   7.183   5.360
11617SOL    HW346788   7.163   7.111   5.237
11617SOL    MW446789   7.176   7.186   5.282
11618SOL     OW46790   6.832   5.677   4.866
11618SOL    HW246791   6.887   5.686   4.788
11618SOL    HW346792   6.887   5.711   4.937
11618SOL    MW446793   6.846   5.682   4.865
11619SOL     OW46794   5.839   6.590   4.050
11619SOL    HW246795   5.776   6.606   3.979
11619SOL    HW346796   5.786   6.553   4.121
11619SOL    MW446797   5.824   6.587   4.050
11620SOL     OW46798   6.195   6.944   3.909
11620SOL    HW246799   6.210   6.920   4.001
11620SOL    HW346800   6.103   6.922   3.893
11620SOL    MW446801   6.185   6.937   3.919
11621SOL     OW46802   6.734   7.175   4.061
11621SOL    HW246803   6.742   7.093   4.012
11621SOL    HW346804   6.653   7.214   4.028
11621SOL    MW446805   6.724   7.170   4.051
11622SOL     OW46806   5.993   7.333   4.630
11622SOL    HW246807   5.997   7.244   4.665
11622SOL    HW346808   6.019   7.324   4.539
11622SOL    MW446809   5.996   7.321   4.622
11623SOL     OW46810   6.610   6.811   4.873
11623SOL    HW246811   6.542   6.745   4.889
11623SOL    HW346812   6.628   6.805   4.780
11623SOL    MW446813   6.603   6.802   4.864
11624SOL     OW46814   5.699   7.086   5.124
11624SOL    HW246815   5.689   7.044   5.210
11624SOL    HW346816   5.620   7.139   5.114
11624SOL    MW446817   5.688   7.087   5.135
11625SOL     OW46818   6.603   5.950   4.694
11625SOL    HW246819   6.533   5.902   4.739
11625SOL    HW346820   6.635   6.013   4.758
11625SOL    MW446821   6.598   5.952   4.708
11626SOL     OW46822   6.254   6.386   5.314
11626SOL    HW246823   6.247   6.481   5.302
11626SOL    HW346824   6.263   6.375   5.409
11626SOL    MW446825   6.255   6.398   5.324
11627SOL     OW46826   5.975   6.901   5.572
11627SOL    HW246827   6.047   6.903   5.509
11627SOL    HW346828   5.945   6.810   5.571
11627SOL    MW446829   5.980   6.890   5.564
11628SOL     OW46830   7.059   5.664   5.039
11628SOL    HW246831   7.130   5.610   5.003
11628SOL    HW346832   7.058   5.643   5.132
11628SOL    MW446833   7.068   5.655   5.047
11629SOL     OW46834   7.259   7.194   5.523
11629SOL    HW246835   7.232   7.191   5.614
11629SOL    HW346836   7.355   7.198   5.526
11629SOL    MW446837   7.269   7.194   5.535
11630SOL     OW46838   6.070   6.056   4.507
11630SOL    HW246839   6.141   6.004   4.470
11630SOL    HW346840   6.056   6.021   4.594
11630SOL    MW446841   6.078   6.045   4.514
11631SOL     OW46842   6.386   7.149   4.583
11631SOL    HW246843   6.314   7.086   4.596
11631SOL    HW346844   6.347   7.234   4.601
11631SOL    MW446845   6.370   7.152   4.586
11632SOL     OW46846   6.706   5.997   4.231
11632SOL    HW246847   6.728   5.934   4.163
11632SOL    HW346848   6.611   5.989   4.242
11632SOL    MW446849   6.696   5.988   4.223
11633SOL     OW46850   5.791   5.687   4.163
11633SOL    HW246851   5.862   5.708   4.102
11633SOL    HW346852   5.745   5.615   4.121
11633SOL    MW446853   5.795   5.681   4.149
11634SOL     OW46854   7.360   7.061   4.263
11634SOL    HW246855   7.330   6.994   4.324
11634SOL    HW346856   7.454   7.067   4.277
11634SOL    MW446857   7.368   7.053   4.273
11635SOL     OW46858   6.916   6.738   4.193
11635SOL    HW246859   6.888   6.824   4.226
11635SOL    HW346860   6.944   6.754   4.103
11635SOL    MW446861   6.916   6.752   4.185
11636SOL     OW46862   6.578   5.658   4.246
11636SOL    HW246863   6.615   5.717   4.311
11636SOL    HW346864   6.555   5.714   4.172
11636SOL    MW446865   6.579   5.673   4.245
11637SOL     OW46866   7.431   6.540   4.668
11637SOL    HW246867   7.422   6.572   4.579
11637SOL    HW346868   7.384   6.456   4.668
11637SOL    MW446869   7.424   6.533   4.658
11638SOL     OW46870   5.807   6.380   5.247
11638SOL    HW246871   5.828   6.449   5.185
11638SOL    HW346872   5.887   6.327   5.252
11638SOL    MW446873   5.820   6.381   5.241
11639SOL     OW46874   7.343   6.471   4.369
11639SOL    HW246875   7.437   6.460   4.357
11639SOL    HW346876   7.319   6.543   4.310
11639SOL    MW446877   7.353   6.479   4.360
11640SOL     OW46878   5.792   6.395   5.514
11640SOL    HW246879   5.718   6.339   5.540
11640SOL    HW346880   5.787   6.398   5.419
11640SOL    MW446881   5.781   6.388   5.504
11641SOL     OW46882   5.958   5.682   4.964
11641SOL    HW246883   6.001   5.766   4.984
11641SOL    HW346884   6.031   5.620   4.957
11641SOL    MW446885   5.973   5.685   4.965
11642SOL     OW46886   5.999   6.349   4.142
11642SOL    HW246887   5.999   6.444   4.127
11642SOL    HW346888   6.076   6.333   4.196
11642SOL    MW446889   6.009   6.360   4.147
11643SOL     OW46890   6.775   6.208   5.206
11643SOL    HW246891   6.811   6.181   5.122
11643SOL    HW346892   6.688   6.242   5.185
11643SOL    MW446893   6.769   6.209   5.193
11644SOL     OW46894   5.758   6.080   4.431
11644SOL    HW246895   5.820   6.087   4.504
11644SOL    HW346896   5.758   5.987   4.408
11644SOL    MW446897   5.766   6.069   4.438
11645SOL     OW46898   6.440   6.341   4.915
11645SOL    HW246899   6.398   6.259   4.891
11645SOL    HW346900   6.441   6.340   5.011
11645SOL    MW446901   6.433   6.330   4.924
11646SOL     OW46902   6.244   5.811   5.020
11646SOL    HW246903   6.175   5.874   5.041
11646SOL    HW346904   6.271   5.775   5.105
11646SOL    MW446905   6.238   5.814   5.033
11647SOL     OW46906   5.627   6.652   3.889
11647SOL    HW246907   5.596   6.717   3.952
11647SOL    HW346908   5.576   6.574   3.908
11647SOL    MW446909   5.617   6.649   3.899
11648SOL     OW46910   7.039   5.664   4.637
11648SOL    HW246911   7.127   5.673   4.674
11648SOL    HW346912   7.049   5.605   4.563
11648SOL    MW446913   7.053   5.658   4.631
11649SOL     OW46914   7.071   6.403   4.481
11649SOL    HW246915   7.151   6.418   4.430
11649SOL    HW346916   7.064   6.308   4.487
11649SOL    MW446917   7.080   6.392   4.476
11650SOL     OW46918   6.211   7.452   3.831
11650SOL    HW246919   6.116   7.452   3.823
11650SOL    HW346920   6.227   7.398   3.909
11650SOL    MW446921   6.201   7.446   3.840
11651SOL     OW46922   6.521   6.329   5.178
11651SOL    HW246923   6.590   6.396   5.175
11651SOL    HW346924   6.454   6.367   5.234
11651SOL    MW446925   6.522   6.342   5.185
11652SOL     OW46926   5.939   6.629   5.426
11652SOL    HW246927   5.893   6.545   5.428
11652SOL    HW346928   5.996   6.623   5.350
11652SOL    MW446929   5.941   6.617   5.418
11653SOL     OW46930   7.056   6.272   3.747
11653SOL    HW246931   6.984   6.248   3.689
11653SOL    HW346932   7.122   6.309   3.689
11653SOL    MW446933   7.055   6.274   3.732
11654SOL     OW46934   6.190   7.004   4.427
11654SOL    HW246935   6.255   6.937   4.448
11654SOL    HW346936   6.242   7.081   4.404
11654SOL    MW446937   6.205   7.006   4.426
11655SOL     OW46938   6.451   6.169   4.557
11655SOL    HW246939   6.391   6.187   4.629
11655SOL    HW346940   6.485   6.081   4.576
11655SOL    MW446941   6.447   6.159   4.570
11656SOL     OW46942   7.392   5.668   5.226
11656SOL    HW246943   7.313   5.714   5.254
11656SOL    HW346944   7.427   5.722   5.155
11656SOL    MW446945   7.386   5.681   5.220
11657SOL     OW46946   6.676   6.752   4.576
11657SOL    HW246947   6.768   6.733   4.594
11657SOL    HW346948   6.649   6.682   4.516
11657SOL    MW446949   6.684   6.740   4.570
11658SOL     OW46950   6.469   6.572   3.931
11658SOL    HW246951   6.455   6.484   3.896
11658SOL    HW346952   6.420   6.629   3.872
11658SOL    MW446953   6.461   6.567   3.919
11659SOL     OW46954   6.950   6.990   4.672
11659SOL    HW246955   6.923   7.074   4.637
11659SOL    HW346956   6.910   6.985   4.759
11659SOL    MW446957   6.943   6.999   4.678
11660SOL     OW46958   6.869   6.938   4.940
11660SOL    HW246959   6.880   6.905   5.029
11660SOL    HW346960   6.788   6.897   4.909
11660SOL    MW446961   6.859   6.930   4.946
11661SOL     OW46962   5.882   6.296   4.710
11661SOL    HW246963   5.832   6.295   4.791
11661SOL    HW346964   5.902   6.388   4.694
11661SOL    MW446965   5.878   6.308   4.718
11662SOL     OW46966   6.949   7.060   5.472
11662SOL    HW246967   6.949   7.154   5.488
11662SOL    HW346968   6.994   7.050   5.388
11662SOL    MW446969   6.955   7.070   5.463
11663SOL     OW46970   7.188   5.778   4.033
11663SOL    HW246971   7.181   5.782   4.128
11663SOL    HW346972   7.200   5.869   4.006
11663SOL    MW446973   7.189   5.791   4.041
11664SOL     OW46974   6.477   6.341   4.147
11664SOL    HW246975   6.457   6.327   4.054
11664SOL    HW346976   6.570   6.320   4.154
11664SOL    MW446977   6.487   6.336   4.136
11665SOL     OW46978   5.804   5.964   5.451
11665SOL    HW246979   5.761   6.023   5.388
11665SOL    HW346980   5.872   6.019   5.491
11665SOL    MW446981   5.808   5.979   5.448
11666SOL     OW46982   6.916   6.584   4.996
11666SOL    HW246983   6.979   6.581   5.069
11666SOL    HW346984   6.832   6.602   5.038
11666SOL    MW446985   6.912   6.586   5.011
11667SOL     OW46986   6.460   7.299   4.185
11667SOL    HW246987   6.518   7.370   4.212
11667SOL    HW346988   6.483   7.227   4.243
11667SOL    MW446989   6.471   7.299   4.196
11668SOL     OW46990   5.703   5.604   4.874
11668SOL    HW246991   5.694   5.605   4.779
11668SOL    HW346992   5.797   5.616   4.889
11668SOL    MW446993   5.715   5.607   4.865
11669SOL     OW46994   7.340   6.797   4.494
11669SOL    HW246995   7.319   6.743   4.417
11669SOL    HW346996   7.436   6.795   4.498
11669SOL    MW446997   7.349   6.790   4.483
11670SOL     OW46998   6.032   6.942   5.237
11670SOL    HW246999   5.953   6.892   5.260
11670SOL    HW347000   6.102   6.901   5.287
11670SOL    MW447001   6.030   6.930   5.247
11671SOL     OW47002   5.916   5.731   3.920
11671SOL    HW247003   5.845   5.786   3.888
11671SOL    HW347004   5.958   5.697   3.841
11671SOL    MW447005   5.912   5.733   3.906
11672SOL     OW47006   7.040   6.228   4.756
11672SOL    HW247007   6.963   6.274   4.722
11672SOL    HW347008   7.097   6.297   4.790
11672SOL    MW447009   7.037   6.243   4.756
11673SOL     OW47010   5.672   5.830   3.769
11673SOL    HW247011   5.639   5.909   3.813
11673SOL    HW347012   5.727   5.863   3.698
11673SOL    MW447013   5.675   5.844   3.766
11674SOL     OW47014   5.706   7.087   3.958
11674SOL    HW247015   5.723   7.171   4.000
11674SOL    HW347016   5.741   7.096   3.870
11674SOL    MW447017   5.711   7.100   3.952
11675SOL     OW47018   6.978   7.176   4.175
11675SOL    HW247019   7.041   7.166   4.104
11675SOL    HW347020   6.895   7.196   4.130
11675SOL    MW447021   6.975   7.177   4.160
11676SOL     OW47022   7.341   6.444   5.862
11676SOL    HW247023   7.382   6.386   5.927
11676SOL    HW347024   7.248   6.436   5.879
11676SOL    MW447025   7.335   6.436   5.872
11677SOL     OW47026   6.135   6.627   6.091
11677SOL    HW247027   6.225   6.602   6.075
11677SOL    HW347028   6.131   6.720   6.068
11677SOL    MW447029   6.147   6.636   6.086
11678SOL     OW47030   7.251   7.330   6.233
11678SOL    HW247031   7.263   7.276   6.311
11678SOL    HW347032   7.288   7.278   6.162
11678SOL    MW447033   7.257   7.315   6.234
11679SOL     OW47034   6.419   6.083   6.104
11679SOL    HW247035   6.394   6.171   6.132
11679SOL    HW347036   6.416   6.086   6.008
11679SOL    MW447037   6.415   6.095   6.096
11680SOL     OW47038   5.861   6.111   6.032
11680SOL    HW247039   5.893   6.199   6.014
11680SOL    HW347040   5.849   6.109   6.127
11680SOL    MW447041   5.864   6.123   6.044
11681SOL     OW47042   6.260   5.866   6.119
11681SOL    HW247043   6.318   5.942   6.121
11681SOL    HW347044   6.195   5.887   6.052
11681SOL    MW447045   6.259   5.878   6.110
11682SOL     OW47046   6.347   6.793   6.294
11682SOL    HW247047   6.427   6.796   6.346
11682SOL    HW347048   6.375   6.760   6.208
11682SOL    MW447049   6.361   6.789   6.289
11683SOL     OW47050   6.124   6.297   6.285
11683SOL    HW247051   6.109   6.217   6.336
11683SOL    HW347052   6.206   6.332   6.319
11683SOL    MW447053   6.132   6.289   6.297
11684SOL     OW47054   5.709   7.383   6.441
11684SOL    HW247055   5.798   7.375   6.476
11684SOL    HW347056   5.673   7.295   6.446
11684SOL    MW447057   5.716   7.370   6.446
11685SOL     OW47058   6.974   6.775   5.810
11685SOL    HW247059   6.892   6.811   5.776
11685SOL    HW347060   7.042   6.818   5.759
11685SOL    MW447061   6.972   6.785   5.798
11686SOL     OW47062   6.535   6.554   6.286
11686SOL    HW247063   6.449   6.541   6.326
11686SOL    HW347064   6.588   6.481   6.318
11686SOL    MW447065   6.531   6.543   6.295
11687SOL     OW47066   6.526   6.916   6.003
11687SOL    HW247067   6.503   6.978   6.071
11687SOL    HW347068   6.483   6.834   6.029
11687SOL    MW447069   6.518   6.912   6.014
11688SOL     OW47070   6.023   5.889   5.971
11688SOL    HW247071   5.997   5.851   5.887
11688SOL    HW347072   5.960   5.959   5.987
11688SOL    MW447073   6.012   5.892   5.962
11689SOL     OW47074   5.858   6.850   6.008
11689SOL    HW247075   5.806   6.918   5.964
11689SOL    HW347076   5.855   6.776   5.948
11689SOL    MW447077   5.850   6.849   5.995
11690SOL     OW47078   6.520   7.313   5.786
11690SOL    HW247079   6.475   7.329   5.869
11690SOL    HW347080   6.451   7.278   5.728
11690SOL    MW447081   6.506   7.310   5.788
11691SOL     OW47082   7.455   6.086   5.761
11691SOL    HW247083   7.364   6.088   5.789
11691SOL    HW347084   7.500   6.148   5.819
11691SOL    MW447085   7.448   6.094   5.771
11692SOL     OW47086   7.200   6.689   6.111
11692SOL    HW247087   7.110   6.689   6.146
11692SOL    HW347088   7.193   6.735   6.028
11692SOL    MW447089   7.187   6.695   6.105
11693SOL     OW47090   7.107   6.667   6.503
11693SOL    HW247091   7.110   6.601   6.434
11693SOL    HW347092   7.192   6.710   6.499
11693SOL    MW447093   7.119   6.663   6.494
11694SOL     OW47094   6.727   6.270   6.072
11694SOL    HW247095   6.753   6.294   5.983
11694SOL    HW347096   6.709   6.177   6.068
11694SOL    MW447097   6.729   6.262   6.059
11695SOL     OW47098   7.392   6.890   5.923
11695SOL    HW247099   7.348   6.931   5.998
11695SOL    HW347100   7.449   6.958   5.888
11695SOL    MW447101   7.394   6.904   5.928
11696SOL     OW47102   6.048   7.306   6.241
11696SOL    HW247103   6.080   7.394   6.219
11696SOL    HW347104   6.001   7.278   6.163
11696SOL    MW447105   6.047   7.314   6.228
11697SOL     OW47106   7.432   5.668   6.290
11697SOL    HW247107   7.486   5.619   6.352
11697SOL    HW347108   7.375   5.602   6.251
11697SOL    MW447109   7.432   5.652   6.292
11698SOL     OW47110   7.168   7.174   5.789
11698SOL    HW247111   7.216   7.243   5.835
11698SOL    HW347112   7.089   7.218   5.758
11698SOL    MW447113   7.163   7.188   5.792
11699SOL     OW47114   6.566   6.299   5.733
11699SOL    HW247115   6.568   6.246   5.654
11699SOL    HW347116   6.654   6.336   5.739
11699SOL    MW447117   6.578   6.298   5.722
11700SOL     OW47118   7.180   6.225   6.069
11700SOL    HW247119   7.219   6.225   6.156
11700SOL    HW347120   7.121   6.301   6.069
11700SOL    MW447121   7.177   6.236   6.080
11701SOL     OW47122   7.367   6.111   6.235
11701SOL    HW247123   7.456   6.080   6.252
11701SOL    HW347124   7.310   6.051   6.283
11701SOL    MW447125   7.370   6.099   6.244
11702SOL     OW47126   5.793   5.825   6.264
11702SOL    HW247127   5.784   5.765   6.190
11702SOL    HW347128   5.726   5.796   6.327
11702SOL    MW447129   5.783   5.812   6.262
11703SOL     OW47130   6.736   6.918   5.825
11703SOL    HW247131   6.686   6.920   5.907
11703SOL    HW347132   6.670   6.936   5.757
11703SOL    MW447133   6.722   6.920   5.827
11704SOL     OW47134   5.740   5.998   6.627
11704SOL    HW247135   5.712   6.089   6.636
11704SOL    HW347136   5.677   5.959   6.566
11704SOL    MW447137   5.727   6.004   6.621
11705SOL     OW47138   6.199   7.336   5.933
11705SOL    HW247139   6.120   7.294   5.966
11705SOL    HW347140   6.265   7.319   6.000
11705SOL    MW447141   6.198   7.328   5.946
11706SOL     OW47142   6.335   6.751   5.640
11706SOL    HW247143   6.257   6.697   5.627
11706SOL    HW347144   6.306   6.824   5.693
11706SOL    MW447145   6.321   6.753   5.645
11707SOL     OW47146   6.916   7.267   5.708
11707SOL    HW247147   6.842   7.230   5.758
11707SOL    HW347148   6.924   7.357   5.741
11707SOL    MW447149   6.907   7.274   5.720
11708SOL     OW47150   7.140   6.941   5.650
11708SOL    HW247151   7.087   6.990   5.586
11708SOL    HW347152   7.171   7.007   5.711
11708SOL    MW447153   7.138   6.955   5.648
11709SOL     OW47154   6.365   5.830   5.705
11709SOL    HW247155   6.313   5.750   5.693
11709SOL    HW347156   6.452   5.807   5.673
11709SOL    MW447157   6.368   5.816   5.699
11710SOL     OW47158   5.871   6.701   6.756
11710SOL    HW247159   5.924   6.776   6.781
11710SOL    HW347160   5.790   6.739   6.722
11710SOL    MW447161   5.867   6.716   6.756
11711SOL     OW47162   5.726   6.470   6.162
11711SOL    HW247163   5.817   6.485   6.189
11711SOL    HW347164   5.729   6.391   6.108
11711SOL    MW447165   5.738   6.462   6.160
11712SOL     OW47166   5.734   7.082   6.201
11712SOL    HW247167   5.706   7.121   6.283
11712SOL    HW347168   5.754   6.991   6.223
11712SOL    MW447169   5.732   7.074   6.214
11713SOL     OW47170   6.567   7.125   6.236
11713SOL    HW247171   6.650   7.079   6.220
11713SOL    HW347172   6.557   7.124   6.332
11713SOL    MW447173   6.577   7.118   6.246
11714SOL     OW47174   7.399   6.270   6.550
11714SOL    HW247175   7.488   6.300   6.532
11714SOL    HW347176   7.379   6.210   6.479
11714SOL    MW447177   7.408   6.267   6.539
11715SOL     OW47178   6.300   7.182   5.641
11715SOL    HW247179   6.240   7.251   5.611
11715SOL    HW347180   6.245   7.124   5.694
11715SOL    MW447181   6.284   7.184   5.643
11716SOL     OW47182   6.738   5.827   5.864
11716SOL    HW247183   6.671   5.803   5.801
11716SOL    HW347184   6.803   5.876   5.813
11716SOL    MW447185   6.738   5.829   5.849
11717SOL     OW47186   6.257   6.544   6.376
11717SOL    HW247187   6.168   6.535   6.409
11717SOL    HW347188   6.261   6.634   6.344
11717SOL    MW447189   6.246   6.555   6.376
11718SOL     OW47190   7.056   6.127   6.371
11718SOL    HW247191   7.001   6.048   6.370
11718SOL    HW347192   7.038   6.168   6.455
11718SOL    MW447193   7.046   6.122   6.380
11719SOL     OW47194   6.675   6.331   6.328
11719SOL    HW247195   6.612   6.263   6.352
11719SOL    HW347196   6.695   6.312   6.236
11719SOL    MW447197   6.669   6.318   6.320
11720SOL     OW47198   5.931   7.226   6.030
11720SOL    HW247199   5.892   7.273   5.956
11720SOL    HW347200   5.865   7.161   6.055
11720SOL    MW447201   5.918   7.224   6.024
11721SOL     OW47202   6.423   6.635   6.054
11721SOL    HW247203   6.425   6.609   5.961
11721SOL    HW347204   6.481   6.572   6.097
11721SOL    MW447205   6.431   6.624   6.048
11722SOL     OW47206   6.980   7.403   6.256
11722SOL    HW247207   6.923   7.356   6.195
11722SOL    HW347208   7.066   7.364   6.243
11722SOL    MW447209   6.983   7.394   6.246
11723SOL     OW47210   6.933   5.879   6.387
11723SOL    HW247211   6.961   5.811   6.448
11723SOL    HW347212   6.847   5.850   6.357
11723SOL    MW447213   6.926   5.866   6.391
11724SOL     OW47214   5.738   6.813   6.321
11724SOL    HW247215   5.802   6.845   6.384
11724SOL    HW347216   5.787   6.749   6.269
11724SOL    MW447217   5.753   6.809   6.322
11725SOL     OW47218   6.913   5.983   5.722
11725SOL    HW247219   6.886   6.049   5.658
11725SOL    HW347220   6.983   6.026   5.772
11725SOL    MW447221   6.918   5.996   5.719
11726SOL     OW47222   6.581   5.688   5.659
11726SOL    HW247223   6.637   5.680   5.581
11726SOL    HW347224   6.558   5.598   5.681
11726SOL    MW447225   6.586   5.675   5.652
11727SOL     OW47226   7.086   6.539   5.864
11727SOL    HW247227   7.053   6.628   5.854
11727SOL    HW347228   7.051   6.510   5.949
11727SOL    MW447229   7.076   6.548   5.875
11728SOL     OW47230   6.080   6.577   5.656
11728SOL    HW247231   6.003   6.590   5.712
11728SOL    HW347232   6.044   6.541   5.575
11728SOL    MW447233   6.066   6.573   5.653
11729SOL     OW47234   6.733   6.550   5.899
11729SOL    HW247235   6.643   6.571   5.874
11729SOL    HW347236   6.760   6.623   5.955
11729SOL    MW447237   6.725   6.562   5.902
11730SOL     OW47238   6.362   5.666   6.306
11730SOL    HW247239   6.291   5.727   6.288
11730SOL    HW347240   6.413   5.663   6.225
11730SOL    MW447241   6.358   5.672   6.293
11731SOL     OW47242   6.120   6.906   6.055
11731SOL    HW247243   6.113   6.938   6.145
11731SOL    HW347244   6.030   6.890   6.027
11731SOL    MW447245   6.108   6.908   6.062
11732SOL     OW47246   6.829   7.264   6.454
11732SOL    HW247247   6.876   7.337   6.413
11732SOL    HW347248   6.750   7.303   6.490
11732SOL    MW447249   6.824   7.279   6.453
11733SOL     OW47250   6.123   6.190   5.769
11733SOL    HW247251   6.089   6.246   5.839
11733SOL    HW347252   6.194   6.140   5.809
11733SOL    MW447253   6.129   6.191   5.783
11734SOL     OW47254   7.219   6.941   6.591
11734SOL    HW247255   7.254   6.923   6.504
11734SOL    HW347256   7.124   6.942   6.578
11734SOL    MW447257   7.211   6.938   6.578
11735SOL     OW47258   7.179   6.076   5.833
11735SOL    HW247259   7.171   6.147   5.770
11735SOL    HW347260   7.197   6.120   5.916
11735SOL    MW447261   7.180   6.090   5.835
11736SOL     OW47262   6.039   5.731   6.262
11736SOL    HW247263   6.089   5.774   6.193
11736SOL    HW347264   5.954   5.775   6.262
11736SOL    MW447265   6.036   5.744   6.253
11737SOL     OW47266   6.848   6.338   5.808
11737SOL    HW247267   6.895   6.356   5.727
11737SOL    HW347268   6.814   6.422   5.836
11737SOL    MW447269   6.850   6.352   5.801
11738SOL     OW47270   5.961   6.516   6.302
11738SOL    HW247271   6.019   6.572   6.250
11738SOL    HW347272   6.005   6.431   6.304
11738SOL    MW447273   5.974   6.513   6.295
11739SOL     OW47274   7.101   5.868   6.139
11739SOL    HW247275   7.023   5.818   6.164
11739SOL    HW347276   7.072   5.959   6.139
11739SOL    MW447277   7.087   5.872   6.142
11740SOL     OW47278   6.687   5.830   6.298
11740SOL    HW247279   6.707   5.905   6.242
11740SOL    HW347280   6.667   5.869   6.383
11740SOL    MW447281   6.688   5.846   6.302
11741SOL     OW47282   6.583   7.080   5.630
11741SOL    HW247283   6.610   7.158   5.582
11741SOL    HW347284   6.490   7.095   5.649
11741SOL    MW447285   6.574   7.093   5.626
11742SOL     OW47286   5.668   7.116   6.474
11742SOL    HW247287   5.700   7.120   6.565
11742SOL    HW347288   5.573   7.124   6.482
11742SOL    MW447289   5.660   7.119   6.487
11743SOL     OW47290   5.623   6.242   6.021
11743SOL    HW247291   5.563   6.214   6.091
11743SOL    HW347292   5.697   6.182   6.027
11743SOL    MW447293   5.625   6.231   6.030
11744SOL     OW47294   6.791   6.973   6.181
11744SOL    HW247295   6.814   6.924   6.259
11744SOL    HW347296   6.872   7.015   6.153
11744SOL    MW447297   6.804   6.973   6.188
11745SOL     OW47298   7.475   6.768   6.678
11745SOL    HW247299   7.468   6.708   6.603
11745SOL    HW347300   7.401   6.828   6.667
11745SOL    MW447301   7.465   6.768   6.667
11746SOL     OW47302   6.931   5.640   5.817
11746SOL    HW247303   7.005   5.684   5.860
11746SOL    HW347304   6.855   5.694   5.839
11746SOL    MW447305   6.931   5.652   5.825
11747SOL     OW47306   6.991   6.415   6.095
11747SOL    HW247307   6.906   6.385   6.065
11747SOL    HW347308   6.983   6.422   6.190
11747SOL    MW447309   6.979   6.413   6.104
11748SOL     OW47310   6.364   6.081   5.821
11748SOL    HW247311   6.437   6.130   5.784
11748SOL    HW347312   6.380   5.990   5.795
11748SOL    MW447313   6.376   6.076   5.814
11749SOL     OW47314   5.839   6.590   5.919
11749SOL    HW247315   5.776   6.606   5.848
11749SOL    HW347316   5.786   6.553   5.990
11749SOL    MW447317   5.824   6.587   5.919
11750SOL     OW47318   6.195   6.944   5.778
11750SOL    HW247319   6.210   6.920   5.870
11750SOL    HW347320   6.103   6.922   5.762
11750SOL    MW447321   6.185   6.937   5.788
11751SOL     OW47322   6.734   7.175   5.930
11751SOL    HW247323   6.742   7.093   5.881
11751SOL    HW347324   6.653   7.214   5.897
11751SOL    MW447325   6.724   7.170   5.920
11752SOL     OW47326   6.070   6.056   6.376
11752SOL    HW247327   6.141   6.004   6.339
11752SOL    HW347328   6.056   6.021   6.463
11752SOL    MW447329   6.078   6.045   6.383
11753SOL     OW47330   6.706   5.997   6.100
11753SOL    HW247331   6.728   5.934   6.032
11753SOL    HW347332   6.611   5.989   6.111
11753SOL    MW447333   6.696   5.988   6.092
11754SOL     OW47334   5.791   5.687   6.032
11754SOL    HW247335   5.862   5.708   5.971
11754SOL    HW347336   5.745   5.615   5.990
11754SOL    MW447337   5.795   5.681   6.018
11755SOL     OW47338   6.916   6.738   6.062
11755SOL    HW247339   6.888   6.824   6.095
11755SOL    HW347340   6.944   6.754   5.972
11755SOL    MW447341   6.916   6.752   6.054
11756SOL     OW47342   6.578   5.658   6.115
11756SOL    HW247343   6.615   5.717   6.180
11756SOL    HW347344   6.555   5.714   6.041
11756SOL    MW447345   6.579   5.673   6.114
11757SOL     OW47346   7.431   6.540   6.537
11757SOL    HW247347   7.422   6.572   6.448
11757SOL    HW347348   7.384   6.456   6.537
11757SOL    MW447349   7.424   6.533   6.527
11758SOL     OW47350   7.343   6.471   6.238
11758SOL    HW247351   7.437   6.460   6.226
11758SOL    HW347352   7.319   6.543   6.179
11758SOL    MW447353   7.353   6.479   6.229
11759SOL     OW47354   5.999   6.349   6.011
11759SOL    HW247355   5.999   6.444   5.996
11759SOL    HW347356   6.076   6.333   6.065
11759SOL    MW447357   6.009   6.360   6.016
11760SOL     OW47358   5.758   6.080   6.300
11760SOL    HW247359   5.820   6.087   6.373
11760SOL    HW347360   5.758   5.987   6.277
11760SOL    MW447361   5.766   6.069   6.307
11761SOL     OW47362   5.627   6.652   5.758
11761SOL    HW247363   5.596   6.717   5.821
11761SOL    HW347364   5.576   6.574   5.777
11761SOL    MW447365   5.617   6.649   5.768
11762SOL     OW47366   7.039   5.664   6.506
11762SOL    HW247367   7.127   5.673   6.543
11762SOL    HW347368   7.049   5.605   6.432
11762SOL    MW447369   7.053   5.658   6.500
11763SOL     OW47370   7.071   6.403   6.350
11763SOL    HW247371   7.151   6.418   6.299
11763SOL    HW347372   7.064   6.308   6.356
11763SOL    MW447373   7.080   6.392   6.345
11764SOL     OW47374   6.211   7.452   5.700
11764SOL    HW247375   6.116   7.452   5.692
11764SOL    HW347376   6.227   7.398   5.778
11764SOL    MW447377   6.201   7.446   5.709
11765SOL     OW47378   7.056   6.272   5.615
11765SOL    HW247379   6.984   6.248   5.557
11765SOL    HW347380   7.122   6.309   5.557
11765SOL    MW447381   7.055   6.274   5.600
11766SOL     OW47382   6.190   7.004   6.296
11766SOL    HW247383   6.255   6.937   6.317
11766SOL    HW347384   6.242   7.081   6.273
11766SOL    MW447385   6.205   7.006   6.295
11767SOL     OW47386   6.451   6.169   6.426
11767SOL    HW247387   6.391   6.187   6.498
11767SOL    HW347388   6.485   6.081   6.445
11767SOL    MW447389   6.447   6.159   6.439
11768SOL     OW47390   6.676   6.752   6.445
11768SOL    HW247391   6.768   6.733   6.463
11768SOL    HW347392   6.649   6.682   6.385
11768SOL    MW447393   6.684   6.740   6.439
11769SOL     OW47394   6.469   6.572   5.800
11769SOL    HW247395   6.455   6.484   5.765
11769SOL    HW347396   6.420   6.629   5.741
11769SOL    MW447397   6.461   6.567   5.788
11770SOL     OW47398   7.188   5.778   5.902
11770SOL    HW247399   7.181   5.782   5.997
11770SOL    HW347400   7.200   5.869   5.875
11770SOL    MW447401   7.189   5.791   5.910
11771SOL     OW47402   6.477   6.341   6.016
11771SOL    HW247403   6.457   6.327   5.923
11771SOL    HW347404   6.570   6.320   6.023
11771SOL    MW447405   6.487   6.336   6.005
11772SOL     OW47406   6.460   7.299   6.054
11772SOL    HW247407   6.518   7.370   6.081
11772SOL    HW347408   6.483   7.227   6.112
11772SOL    MW447409   6.471   7.299   6.065
11773SOL     OW47410   7.340   6.797   6.363
11773SOL    HW247411   7.319   6.743   6.286
11773SOL    HW347412   7.436   6.795   6.367
11773SOL    MW447413   7.349   6.790   6.352
11774SOL     OW47414   5.916   5.731   5.789
11774SOL    HW247415   5.845   5.786   5.757
11774SOL    HW347416   5.958   5.697   5.710
11774SOL    MW447417   5.912   5.733   5.775
11775SOL     OW47418   5.672   5.830   5.638
11775SOL    HW247419   5.639   5.909   5.682
11775SOL    HW347420   5.727   5.863   5.567
11775SOL    MW447421   5.675   5.844   5.635
11776SOL     OW47422   5.706   7.087   5.827
11776SOL    HW247423   5.723   7.171   5.869
11776SOL    HW347424   5.741   7.096   5.739
11776SOL    MW447425   5.711   7.100   5.821
11777SOL     OW47426   6.978   7.176   6.044
11777SOL    HW247427   7.041   7.166   5.973
11777SOL    HW347428   6.895   7.196   5.999
11777SOL    MW447429   6.975   7.177   6.029
11778SOL     OW47430   0.418   7.784   0.366
11778SOL    HW247431   0.392   7.746   0.282
11778SOL    HW347432   0.355   7.854   0.382
11778SOL    MW447433   0.407   7.787   0.357
11779SOL     OW47434   1.827   7.563   0.685
11779SOL    HW247435   1.881   7.514   0.747
11779SOL    HW347436   1.770   7.497   0.646
11779SOL    MW447437   1.827   7.547   0.687
11780SOL     OW47438   1.133   7.722   0.259
11780SOL    HW247439   1.066   7.698   0.196
11780SOL    HW347440   1.198   7.771   0.208
11780SOL    MW447441   1.133   7.724   0.244
11781SOL     OW47442   0.422   7.709   1.583
11781SOL    HW247443   0.343   7.727   1.635
11781SOL    HW347444   0.417   7.771   1.510
11781SOL    MW447445   0.412   7.719   1.580
11782SOL     OW47446   0.387   7.531   1.789
11782SOL    HW247447   0.315   7.496   1.737
11782SOL    HW347448   0.445   7.572   1.724
11782SOL    MW447449   0.385   7.532   1.774
11783SOL     OW47450   0.541   7.621   0.932
11783SOL    HW247451   0.551   7.530   0.958
11783SOL    HW347452   0.497   7.617   0.847
11783SOL    MW447453   0.537   7.609   0.924
11784SOL     OW47454   1.454   7.559   1.303
11784SOL    HW247455   1.525   7.505   1.267
11784SOL    HW347456   1.453   7.538   1.396
11784SOL    MW447457   1.463   7.550   1.311
11785SOL     OW47458   0.186   7.582   0.427
11785SOL    HW247459   0.257   7.603   0.366
11785SOL    HW347460   0.140   7.510   0.385
11785SOL    MW447461   0.190   7.576   0.413
11786SOL     OW47462   0.639   7.706   1.284
11786SOL    HW247463   0.570   7.769   1.305
11786SOL    HW347464   0.666   7.670   1.369
11786SOL    MW447465   0.633   7.709   1.297
11787SOL     OW47466   1.583   7.673   0.297
11787SOL    HW247467   1.576   7.677   0.392
11787SOL    HW347468   1.595   7.764   0.270
11787SOL    MW447469   1.584   7.686   0.305
11788SOL     OW47470   0.418   7.784   2.234
11788SOL    HW247471   0.392   7.746   2.150
11788SOL    HW347472   0.355   7.854   2.250
11788SOL    MW447473   0.407   7.787   2.225
11789SOL     OW47474   1.827   7.563   2.553
11789SOL    HW247475   1.881   7.514   2.615
11789SOL    HW347476   1.770   7.497   2.514
11789SOL    MW447477   1.827   7.547   2.555
11790SOL     OW47478   0.422   7.709   3.451
11790SOL    HW247479   0.343   7.727   3.503
11790SOL    HW347480   0.417   7.771   3.378
11790SOL    MW447481   0.412   7.719   3.448
11791SOL     OW47482   0.387   7.531   3.657
11791SOL    HW247483   0.315   7.496   3.605
11791SOL    HW347484   0.445   7.572   3.592
11791SOL    MW447485   0.385   7.532   3.642
11792SOL     OW47486   1.326   7.535   2.080
11792SOL    HW247487   1.400   7.579   2.123
11792SOL    HW347488   1.250   7.589   2.102
11792SOL    MW447489   1.326   7.547   2.088
11793SOL     OW47490   1.454   7.559   3.171
11793SOL    HW247491   1.525   7.505   3.135
11793SOL    HW347492   1.453   7.538   3.264
11793SOL    MW447493   1.463   7.550   3.179
11794SOL     OW47494   0.186   7.582   2.295
11794SOL    HW247495   0.257   7.603   2.234
11794SOL    HW347496   0.140   7.510   2.253
11794SOL    MW447497   0.190   7.576   2.281
11795SOL     OW47498   0.639   7.706   3.152
11795SOL    HW247499   0.570   7.769   3.173
11795SOL    HW347500   0.666   7.670   3.237
11795SOL    MW447501   0.633   7.709   3.165
11796SOL     OW47502   0.311   7.626   2.052
11796SOL    HW247503   0.240   7.681   2.020
11796SOL    HW347504   0.353   7.592   1.973
11796SOL    MW447505   0.307   7.628   2.038
11797SOL     OW47506   0.067   7.725   1.901
11797SOL    HW247507   0.034   7.804   1.945
11797SOL    HW347508   0.122   7.758   1.830
11797SOL    MW447509   0.070   7.739   1.898
11798SOL     OW47510   0.418   7.784   4.102
11798SOL    HW247511   0.392   7.746   4.018
11798SOL    HW347512   0.355   7.854   4.118
11798SOL    MW447513   0.407   7.787   4.093
11799SOL     OW47514   1.827   7.563   4.421
11799SOL    HW247515   1.881   7.514   4.483
11799SOL    HW347516   1.770   7.497   4.382
11799SOL    MW447517   1.827   7.547   4.423
11800SOL     OW47518   0.422   7.709   5.319
11800SOL    HW247519   0.343   7.727   5.371
11800SOL    HW347520   0.417   7.771   5.246
11800SOL    MW447521   0.412   7.719   5.316
11801SOL     OW47522   0.387   7.531   5.525
11801SOL    HW247523   0.315   7.496   5.473
11801SOL    HW347524   0.445   7.572   5.460
11801SOL    MW447525   0.385   7.532   5.510
11802SOL     OW47526   0.541   7.621   4.668
11802SOL    HW247527   0.551   7.530   4.694
11802SOL    HW347528   0.497   7.617   4.583
11802SOL    MW447529   0.537   7.609   4.660
11803SOL     OW47530   1.326   7.535   3.948
11803SOL    HW247531   1.400   7.579   3.991
11803SOL    HW347532   1.250   7.589   3.970
11803SOL    MW447533   1.326   7.547   3.956
11804SOL     OW47534   1.454   7.559   5.039
11804SOL    HW247535   1.525   7.505   5.003
11804SOL    HW347536   1.453   7.538   5.132
11804SOL    MW447537   1.463   7.550   5.047
11805SOL     OW47538   0.186   7.582   4.163
11805SOL    HW247539   0.257   7.603   4.102
11805SOL    HW347540   0.140   7.510   4.121
11805SOL    MW447541   0.190   7.576   4.149
11806SOL     OW47542   0.639   7.706   5.020
11806SOL    HW247543   0.570   7.769   5.041
11806SOL    HW347544   0.666   7.670   5.105
11806SOL    MW447545   0.633   7.709   5.033
11807SOL     OW47546   0.311   7.626   3.920
11807SOL    HW247547   0.240   7.681   3.888
11807SOL    HW347548   0.353   7.592   3.841
11807SOL    MW447549   0.307   7.628   3.906
11808SOL     OW47550   0.067   7.725   3.769
11808SOL    HW247551   0.034   7.804   3.813
11808SOL    HW347552   0.122   7.758   3.698
11808SOL    MW447553   0.070   7.739   3.766
11809SOL     OW47554   0.418   7.784   5.971
11809SOL    HW247555   0.392   7.746   5.887
11809SOL    HW347556   0.355   7.854   5.987
11809SOL    MW447557   0.407   7.787   5.962
11810SOL     OW47558   1.827   7.563   6.290
11810SOL    HW247559   1.881   7.514   6.352
11810SOL    HW347560   1.770   7.497   6.251
11810SOL    MW447561   1.827   7.547   6.292
11811SOL     OW47562   0.541   7.621   6.537
11811SOL    HW247563   0.551   7.530   6.563
11811SOL    HW347564   0.497   7.617   6.452
11811SOL    MW447565   0.537   7.609   6.529
11812SOL     OW47566   1.326   7.535   5.817
11812SOL    HW247567   1.400   7.579   5.860
11812SOL    HW347568   1.250   7.589   5.839
11812SOL    MW447569   1.326   7.547   5.825
11813SOL     OW47570   0.186   7.582   6.032
11813SOL    HW247571   0.257   7.603   5.971
11813SOL    HW347572   0.140   7.510   5.990
11813SOL    MW447573   0.190   7.576   6.018
11814SOL     OW47574   0.311   7.626   5.789
11814SOL    HW247575   0.240   7.681   5.757
11814SOL    HW347576   0.353   7.592   5.710
11814SOL    MW447577   0.307   7.628   5.775
11815SOL     OW47578   0.067   7.725   5.638
11815SOL    HW247579   0.034   7.804   5.682
11815SOL    HW347580   0.122   7.758   5.567
11815SOL    MW447581   0.070   7.739   5.635
11816SOL     OW47582   2.523   7.761   0.514
11816SOL    HW247583   2.581   7.837   0.516
11816SOL    HW347584   2.458   7.782   0.447
11816SOL    MW447585   2.522   7.773   0.505
11817SOL     OW47586   2.286   7.784   0.366
11817SOL    HW247587   2.260   7.746   0.282
11817SOL    HW347588   2.223   7.854   0.382
11817SOL    MW447589   2.275   7.787   0.357
11818SOL     OW47590   2.575   7.834   1.721
11818SOL    HW247591   2.585   7.760   1.661
11818SOL    HW347592   2.611   7.803   1.804
11818SOL    MW447593   2.581   7.820   1.723
11819SOL     OW47594   2.611   7.623   1.518
11819SOL    HW247595   2.588   7.531   1.520
11819SOL    HW347596   2.697   7.625   1.475
11819SOL    MW447597   2.618   7.613   1.514
11820SOL     OW47598   2.290   7.709   1.583
11820SOL    HW247599   2.211   7.727   1.635
11820SOL    HW347600   2.285   7.771   1.510
11820SOL    MW447601   2.280   7.719   1.580
11821SOL     OW47602   2.844   7.583   0.054
11821SOL    HW247603   2.900   7.575  -0.024
11821SOL    HW347604   2.821   7.493   0.076
11821SOL    MW447605   2.849   7.570   0.047
11822SOL     OW47606   2.255   7.531   1.789
11822SOL    HW247607   2.183   7.496   1.737
11822SOL    HW347608   2.313   7.572   1.724
11822SOL    MW447609   2.253   7.532   1.774
11823SOL     OW47610   2.625   7.561   0.701
11823SOL    HW247611   2.554   7.622   0.683
11823SOL    HW347612   2.676   7.558   0.620
11823SOL    MW447613   2.621   7.567   0.688
11824SOL     OW47614   2.266   7.843   1.041
11824SOL    HW247615   2.296   7.757   1.012
11824SOL    HW347616   2.171   7.836   1.044
11824SOL    MW447617   2.258   7.832   1.039
11825SOL     OW47618   2.409   7.621   0.932
11825SOL    HW247619   2.419   7.530   0.958
11825SOL    HW347620   2.365   7.617   0.847
11825SOL    MW447621   2.405   7.609   0.924
11826SOL     OW47622   3.194   7.535   0.212
11826SOL    HW247623   3.268   7.579   0.255
11826SOL    HW347624   3.118   7.589   0.234
11826SOL    MW447625   3.194   7.547   0.220
11827SOL     OW47626   2.614   7.753   1.044
11827SOL    HW247627   2.587   7.755   1.135
11827SOL    HW347628   2.544   7.705   0.999
11827SOL    MW447629   2.602   7.749   1.051
11828SOL     OW47630   2.054   7.582   0.427
11828SOL    HW247631   2.125   7.603   0.366
11828SOL    HW347632   2.008   7.510   0.385
11828SOL    MW447633   2.058   7.576   0.413
11829SOL     OW47634   2.507   7.706   1.284
11829SOL    HW247635   2.438   7.769   1.305
11829SOL    HW347636   2.534   7.670   1.369
11829SOL    MW447637   2.501   7.709   1.297
11830SOL     OW47638   3.451   7.673   0.297
11830SOL    HW247639   3.444   7.677   0.392
11830SOL    HW347640   3.463   7.764   0.270
11830SOL    MW447641   3.452   7.686   0.305
11831SOL     OW47642   2.523   7.761   2.382
11831SOL    HW247643   2.581   7.837   2.384
11831SOL    HW347644   2.458   7.782   2.315
11831SOL    MW447645   2.522   7.773   2.373
11832SOL     OW47646   2.286   7.784   2.234
11832SOL    HW247647   2.260   7.746   2.150
11832SOL    HW347648   2.223   7.854   2.250
11832SOL    MW447649   2.275   7.787   2.225
11833SOL     OW47650   2.575   7.834   3.589
11833SOL    HW247651   2.585   7.760   3.529
11833SOL    HW347652   2.611   7.803   3.672
11833SOL    MW447653   2.581   7.820   3.591
11834SOL     OW47654   2.611   7.623   3.386
11834SOL    HW247655   2.588   7.531   3.388
11834SOL    HW347656   2.697   7.625   3.343
11834SOL    MW447657   2.618   7.613   3.382
11835SOL     OW47658   2.290   7.709   3.451
11835SOL    HW247659   2.211   7.727   3.503
11835SOL    HW347660   2.285   7.771   3.378
11835SOL    MW447661   2.280   7.719   3.448
11836SOL     OW47662   2.844   7.583   1.922
11836SOL    HW247663   2.900   7.575   1.844
11836SOL    HW347664   2.821   7.493   1.944
11836SOL    MW447665   2.849   7.570   1.915
11837SOL     OW47666   2.255   7.531   3.657
11837SOL    HW247667   2.183   7.496   3.605
11837SOL    HW347668   2.313   7.572   3.592
11837SOL    MW447669   2.253   7.532   3.642
11838SOL     OW47670   2.625   7.561   2.569
11838SOL    HW247671   2.554   7.622   2.551
11838SOL    HW347672   2.676   7.558   2.488
11838SOL    MW447673   2.621   7.567   2.556
11839SOL     OW47674   2.266   7.843   2.909
11839SOL    HW247675   2.296   7.757   2.880
11839SOL    HW347676   2.171   7.836   2.912
11839SOL    MW447677   2.258   7.832   2.907
11840SOL     OW47678   2.409   7.621   2.800
11840SOL    HW247679   2.419   7.530   2.826
11840SOL    HW347680   2.365   7.617   2.715
11840SOL    MW447681   2.405   7.609   2.792
11841SOL     OW47682   3.194   7.535   2.080
11841SOL    HW247683   3.268   7.579   2.123
11841SOL    HW347684   3.118   7.589   2.102
11841SOL    MW447685   3.194   7.547   2.088
11842SOL     OW47686   2.614   7.753   2.912
11842SOL    HW247687   2.587   7.755   3.003
11842SOL    HW347688   2.544   7.705   2.867
11842SOL    MW447689   2.602   7.749   2.919
11843SOL     OW47690   2.054   7.582   2.295
11843SOL    HW247691   2.125   7.603   2.234
11843SOL    HW347692   2.008   7.510   2.253
11843SOL    MW447693   2.058   7.576   2.281
11844SOL     OW47694   2.507   7.706   3.152
11844SOL    HW247695   2.438   7.769   3.173
11844SOL    HW347696   2.534   7.670   3.237
11844SOL    MW447697   2.501   7.709   3.165
11845SOL     OW47698   3.451   7.673   2.165
11845SOL    HW247699   3.444   7.677   2.260
11845SOL    HW347700   3.463   7.764   2.138
11845SOL    MW447701   3.452   7.686   2.173
11846SOL     OW47702   2.179   7.626   2.052
11846SOL    HW247703   2.108   7.681   2.020
11846SOL    HW347704   2.221   7.592   1.973
11846SOL    MW447705   2.175   7.628   2.038
11847SOL     OW47706   1.935   7.725   1.901
11847SOL    HW247707   1.902   7.804   1.945
11847SOL    HW347708   1.990   7.758   1.830
11847SOL    MW447709   1.938   7.739   1.898
11848SOL     OW47710   2.523   7.761   4.250
11848SOL    HW247711   2.581   7.837   4.252
11848SOL    HW347712   2.458   7.782   4.183
11848SOL    MW447713   2.522   7.773   4.241
11849SOL     OW47714   2.286   7.784   4.102
11849SOL    HW247715   2.260   7.746   4.018
11849SOL    HW347716   2.223   7.854   4.118
11849SOL    MW447717   2.275   7.787   4.093
11850SOL     OW47718   2.611   7.623   5.254
11850SOL    HW247719   2.588   7.531   5.256
11850SOL    HW347720   2.697   7.625   5.211
11850SOL    MW447721   2.618   7.613   5.250
11851SOL     OW47722   2.290   7.709   5.319
11851SOL    HW247723   2.211   7.727   5.371
11851SOL    HW347724   2.285   7.771   5.246
11851SOL    MW447725   2.280   7.719   5.316
11852SOL     OW47726   2.844   7.583   3.790
11852SOL    HW247727   2.900   7.575   3.712
11852SOL    HW347728   2.821   7.493   3.812
11852SOL    MW447729   2.849   7.570   3.783
11853SOL     OW47730   2.255   7.531   5.525
11853SOL    HW247731   2.183   7.496   5.473
11853SOL    HW347732   2.313   7.572   5.460
11853SOL    MW447733   2.253   7.532   5.510
11854SOL     OW47734   2.625   7.561   4.437
11854SOL    HW247735   2.554   7.622   4.419
11854SOL    HW347736   2.676   7.558   4.356
11854SOL    MW447737   2.621   7.567   4.424
11855SOL     OW47738   2.266   7.843   4.777
11855SOL    HW247739   2.296   7.757   4.748
11855SOL    HW347740   2.171   7.836   4.780
11855SOL    MW447741   2.258   7.832   4.775
11856SOL     OW47742   2.409   7.621   4.668
11856SOL    HW247743   2.419   7.530   4.694
11856SOL    HW347744   2.365   7.617   4.583
11856SOL    MW447745   2.405   7.609   4.660
11857SOL     OW47746   3.194   7.535   3.948
11857SOL    HW247747   3.268   7.579   3.991
11857SOL    HW347748   3.118   7.589   3.970
11857SOL    MW447749   3.194   7.547   3.956
11858SOL     OW47750   2.614   7.753   4.780
11858SOL    HW247751   2.587   7.755   4.871
11858SOL    HW347752   2.544   7.705   4.735
11858SOL    MW447753   2.602   7.749   4.787
11859SOL     OW47754   2.054   7.582   4.163
11859SOL    HW247755   2.125   7.603   4.102
11859SOL    HW347756   2.008   7.510   4.121
11859SOL    MW447757   2.058   7.576   4.149
11860SOL     OW47758   2.507   7.706   5.020
11860SOL    HW247759   2.438   7.769   5.041
11860SOL    HW347760   2.534   7.670   5.105
11860SOL    MW447761   2.501   7.709   5.033
11861SOL     OW47762   3.451   7.673   4.033
11861SOL    HW247763   3.444   7.677   4.128
11861SOL    HW347764   3.463   7.764   4.006
11861SOL    MW447765   3.452   7.686   4.041
11862SOL     OW47766   2.179   7.626   3.920
11862SOL    HW247767   2.108   7.681   3.888
11862SOL    HW347768   2.221   7.592   3.841
11862SOL    MW447769   2.175   7.628   3.906
11863SOL     OW47770   1.935   7.725   3.769
11863SOL    HW247771   1.902   7.804   3.813
11863SOL    HW347772   1.990   7.758   3.698
11863SOL    MW447773   1.938   7.739   3.766
11864SOL     OW47774   2.523   7.761   6.119
11864SOL    HW247775   2.581   7.837   6.121
11864SOL    HW347776   2.458   7.782   6.052
11864SOL    MW447777   2.522   7.773   6.110
11865SOL     OW47778   2.286   7.784   5.971
11865SOL    HW247779   2.260   7.746   5.887
11865SOL    HW347780   2.223   7.854   5.987
11865SOL    MW447781   2.275   7.787   5.962
11866SOL     OW47782   2.844   7.583   5.659
11866SOL    HW247783   2.900   7.575   5.581
11866SOL    HW347784   2.821   7.493   5.681
11866SOL    MW447785   2.849   7.570   5.652
11867SOL     OW47786   2.625   7.561   6.306
11867SOL    HW247787   2.554   7.622   6.288
11867SOL    HW347788   2.676   7.558   6.225
11867SOL    MW447789   2.621   7.567   6.293
11868SOL     OW47790   2.409   7.621   6.537
11868SOL    HW247791   2.419   7.530   6.563
11868SOL    HW347792   2.365   7.617   6.452
11868SOL    MW447793   2.405   7.609   6.529
11869SOL     OW47794   3.194   7.535   5.817
11869SOL    HW247795   3.268   7.579   5.860
11869SOL    HW347796   3.118   7.589   5.839
11869SOL    MW447797   3.194   7.547   5.825
11870SOL     OW47798   2.054   7.582   6.032
11870SOL    HW247799   2.125   7.603   5.971
11870SOL    HW347800   2.008   7.510   5.990
11870SOL    MW447801   2.058   7.576   6.018
11871SOL     OW47802   3.451   7.673   5.902
11871SOL    HW247803   3.444   7.677   5.997
11871SOL    HW347804   3.463   7.764   5.875
11871SOL    MW447805   3.452   7.686   5.910
11872SOL     OW47806   2.179   7.626   5.789
11872SOL    HW247807   2.108   7.681   5.757
11872SOL    HW347808   2.221   7.592   5.710
11872SOL    MW447809   2.175   7.628   5.775
11873SOL     OW47810   1.935   7.725   5.638
11873SOL    HW247811   1.902   7.804   5.682
11873SOL    HW347812   1.990   7.758   5.567
11873SOL    MW447813   1.938   7.739   5.635
11874SOL     OW47814   4.443   7.834   1.721
11874SOL    HW247815   4.453   7.760   1.661
11874SOL    HW347816   4.479   7.803   1.804
11874SOL    MW447817   4.449   7.820   1.723
11875SOL     OW47818   4.712   7.583   0.054
11875SOL    HW247819   4.768   7.575  -0.024
11875SOL    HW347820   4.689   7.493   0.076
11875SOL    MW447821   4.717   7.570   0.047
11876SOL     OW47822   4.134   7.843   1.041
11876SOL    HW247823   4.164   7.757   1.012
11876SOL    HW347824   4.039   7.836   1.044
11876SOL    MW447825   4.126   7.832   1.039
11877SOL     OW47826   5.062   7.535   0.212
11877SOL    HW247827   5.136   7.579   0.255
11877SOL    HW347828   4.986   7.589   0.234
11877SOL    MW447829   5.062   7.547   0.220
11878SOL     OW47830   5.319   7.673   0.297
11878SOL    HW247831   5.312   7.677   0.392
11878SOL    HW347832   5.331   7.764   0.270
11878SOL    MW447833   5.320   7.686   0.305
11879SOL     OW47834   3.803   7.725   0.033
11879SOL    HW247835   3.770   7.804   0.077
11879SOL    HW347836   3.858   7.758  -0.038
11879SOL    MW447837   3.806   7.739   0.030
11880SOL     OW47838   4.443   7.834   3.589
11880SOL    HW247839   4.453   7.760   3.529
11880SOL    HW347840   4.479   7.803   3.672
11880SOL    MW447841   4.449   7.820   3.591
11881SOL     OW47842   4.712   7.583   1.922
11881SOL    HW247843   4.768   7.575   1.844
11881SOL    HW347844   4.689   7.493   1.944
11881SOL    MW447845   4.717   7.570   1.915
11882SOL     OW47846   4.134   7.843   2.909
11882SOL    HW247847   4.164   7.757   2.880
11882SOL    HW347848   4.039   7.836   2.912
11882SOL    MW447849   4.126   7.832   2.907
11883SOL     OW47850   5.062   7.535   2.080
11883SOL    HW247851   5.136   7.579   2.123
11883SOL    HW347852   4.986   7.589   2.102
11883SOL    MW447853   5.062   7.547   2.088
11884SOL     OW47854   5.319   7.673   2.165
11884SOL    HW247855   5.312   7.677   2.260
11884SOL    HW347856   5.331   7.764   2.138
11884SOL    MW447857   5.320   7.686   2.173
11885SOL     OW47858   3.803   7.725   1.901
11885SOL    HW247859   3.770   7.804   1.945
11885SOL    HW347860   3.858   7.758   1.830
11885SOL    MW447861   3.806   7.739   1.898
11886SOL     OW47862   4.443   7.834   5.457
11886SOL    HW247863   4.453   7.760   5.397
11886SOL    HW347864   4.479   7.803   5.540
11886SOL    MW447865   4.449   7.820   5.459
11887SOL     OW47866   4.712   7.583   3.790
11887SOL    HW247867   4.768   7.575   3.712
11887SOL    HW347868   4.689   7.493   3.812
11887SOL    MW447869   4.717   7.570   3.783
11888SOL     OW47870   4.134   7.843   4.777
11888SOL    HW247871   4.164   7.757   4.748
11888SOL    HW347872   4.039   7.836   4.780
11888SOL    MW447873   4.126   7.832   4.775
11889SOL     OW47874   5.062   7.535   3.948
11889SOL    HW247875   5.136   7.579   3.991
11889SOL    HW347876   4.986   7.589   3.970
11889SOL    MW447877   5.062   7.547   3.956
11890SOL     OW47878   5.319   7.673   4.033
11890SOL    HW247879   5.312   7.677   4.128
11890SOL    HW347880   5.331   7.764   4.006
11890SOL    MW447881   5.320   7.686   4.041
11891SOL     OW47882   3.803   7.725   3.769
11891SOL    HW247883   3.770   7.804   3.813
11891SOL    HW347884   3.858   7.758   3.698
11891SOL    MW447885   3.806   7.739   3.766
11892SOL     OW47886   4.712   7.583   5.659
11892SOL    HW247887   4.768   7.575   5.581
11892SOL    HW347888   4.689   7.493   5.681
11892SOL    MW447889   4.717   7.570   5.652
11893SOL     OW47890   4.134   7.843   6.646
11893SOL    HW247891   4.164   7.757   6.617
11893SOL    HW347892   4.039   7.836   6.649
11893SOL    MW447893   4.126   7.832   6.644
11894SOL     OW47894   5.062   7.535   5.817
11894SOL    HW247895   5.136   7.579   5.860
11894SOL    HW347896   4.986   7.589   5.839
11894SOL    MW447897   5.062   7.547   5.825
11895SOL     OW47898   5.319   7.673   5.902
11895SOL    HW247899   5.312   7.677   5.997
11895SOL    HW347900   5.331   7.764   5.875
11895SOL    MW447901   5.320   7.686   5.910
11896SOL     OW47902   3.803   7.725   5.638
11896SOL    HW247903   3.770   7.804   5.682
11896SOL    HW347904   3.858   7.758   5.567
11896SOL    MW447905   3.806   7.739   5.635
11897SOL     OW47906   6.260   7.761   0.514
11897SOL    HW247907   6.318   7.837   0.516
11897SOL    HW347908   6.195   7.782   0.447
11897SOL    MW447909   6.259   7.773   0.505
11898SOL     OW47910   6.312   7.834   1.721
11898SOL    HW247911   6.322   7.760   1.661
11898SOL    HW347912   6.348   7.803   1.804
11898SOL    MW447913   6.318   7.820   1.723
11899SOL     OW47914   6.003   7.843   1.041
11899SOL    HW247915   6.033   7.757   1.012
11899SOL    HW347916   5.908   7.836   1.044
11899SOL    MW447917   5.995   7.832   1.039
11900SOL     OW47918   7.188   7.673   0.297
11900SOL    HW247919   7.181   7.677   0.392
11900SOL    HW347920   7.200   7.764   0.270
11900SOL    MW447921   7.189   7.686   0.305
11901SOL     OW47922   6.312   7.834   3.589
11901SOL    HW247923   6.322   7.760   3.529
11901SOL    HW347924   6.348   7.803   3.672
11901SOL    MW447925   6.318   7.820   3.591
11902SOL     OW47926   6.581   7.583   1.922
11902SOL    HW247927   6.637   7.575   1.844
11902SOL    HW347928   6.558   7.493   1.944
11902SOL    MW447929   6.586   7.570   1.915
11903SOL     OW47930   6.003   7.843   2.909
11903SOL    HW247931   6.033   7.757   2.880
11903SOL    HW347932   5.908   7.836   2.912
11903SOL    MW447933   5.995   7.832   2.907
11904SOL     OW47934   6.931   7.535   2.080
11904SOL    HW247935   7.005   7.579   2.123
11904SOL    HW347936   6.855   7.589   2.102
11904SOL    MW447937   6.931   7.547   2.088
11905SOL     OW47938   7.188   7.673   2.165
11905SOL    HW247939   7.181   7.677   2.260
11905SOL    HW347940   7.200   7.764   2.138
11905SOL    MW447941   7.189   7.686   2.173
11906SOL     OW47942   5.672   7.725   1.901
11906SOL    HW247943   5.639   7.804   1.945
11906SOL    HW347944   5.727   7.758   1.830
11906SOL    MW447945   5.675   7.739   1.898
11907SOL     OW47946   6.312   7.834   5.457
11907SOL    HW247947   6.322   7.760   5.397
11907SOL    HW347948   6.348   7.803   5.540
11907SOL    MW447949   6.318   7.820   5.459
11908SOL     OW47950   6.581   7.583   3.790
11908SOL    HW247951   6.637   7.575   3.712
11908SOL    HW347952   6.558   7.493   3.812
11908SOL    MW447953   6.586   7.570   3.783
11909SOL     OW47954   6.003   7.843   4.777
11909SOL    HW247955   6.033   7.757   4.748
11909SOL    HW347956   5.908   7.836   4.780
11909SOL    MW447957   5.995   7.832   4.775
11910SOL     OW47958   6.931   7.535   3.948
11910SOL    HW247959   7.005   7.579   3.991
11910SOL    HW347960   6.855   7.589   3.970
11910SOL    MW447961   6.931   7.547   3.956
11911SOL     OW47962   7.188   7.673   4.033
11911SOL    HW247963   7.181   7.677   4.128
11911SOL    HW347964   7.200   7.764   4.006
11911SOL    MW447965   7.189   7.686   4.041
11912SOL     OW47966   5.672   7.725   3.769
11912SOL    HW247967   5.639   7.804   3.813
11912SOL    HW347968   5.727   7.758   3.698
11912SOL    MW447969   5.675   7.739   3.766
11913SOL     OW47970   6.581   7.583   5.659
11913SOL    HW247971   6.637   7.575   5.581
11913SOL    HW347972   6.558   7.493   5.681
11913SOL    MW447973   6.586   7.570   5.652
11914SOL     OW47974   6.931   7.535   5.817
11914SOL    HW247975   7.005   7.579   5.860
11914SOL    HW347976   6.855   7.589   5.839
11914SOL    MW447977   6.931   7.547   5.825
11915SOL     OW47978   7.188   7.673   5.902
11915SOL    HW247979   7.181   7.677   5.997
11915SOL    HW347980   7.200   7.764   5.875
11915SOL    MW447981   7.189   7.686   5.910
11916SOL     OW47982   5.672   7.725   5.638
11916SOL    HW247983   5.639   7.804   5.682
11916SOL    HW347984   5.727   7.758   5.567
11916SOL    MW447985   5.675   7.739   5.635
11917SOL     OW47986   7.756   0.506   0.427
11917SOL    HW247987   7.788   0.594   0.409
11917SOL    HW347988   7.744   0.504   0.522
11917SOL    MW447989   7.759   0.518   0.439
11918SOL     OW47990   7.834   0.919   1.328
11918SOL    HW247991   7.897   0.866   1.279
11918SOL    HW347992   7.815   0.993   1.271
11918SOL    MW447993   7.840   0.921   1.315
11919SOL     OW47994   8.019   0.692   0.680
11919SOL    HW247995   8.004   0.612   0.731
11919SOL    HW347996   8.101   0.727   0.714
11919SOL    MW447997   8.027   0.684   0.692
11920SOL     OW47998   7.907   0.932   0.961
11920SOL    HW247999   7.862   0.939   0.877
11920SOL    HW348000   7.887   1.015   1.005
11920SOL    MW448001   7.899   0.944   0.955
11921SOL     OW48002   7.604   1.778   0.836
11921SOL    HW248003   7.693   1.770   0.871
11921SOL    HW348004   7.568   1.690   0.841
11921SOL    MW448005   7.611   1.765   0.841
11922SOL     OW48006   7.868   1.305   0.871
11922SOL    HW248007   7.844   1.358   0.947
11922SOL    HW348008   7.924   1.363   0.819
11922SOL    MW448009   7.872   1.320   0.874
11923SOL     OW48010   7.838   1.601   1.466
11923SOL    HW248011   7.746   1.577   1.451
11923SOL    HW348012   7.882   1.518   1.483
11923SOL    MW448013   7.832   1.586   1.465
11924SOL     OW48014   7.753   1.245   0.403
11924SOL    HW248015   7.701   1.313   0.359
11924SOL    HW348016   7.750   1.171   0.343
11924SOL    MW448017   7.745   1.244   0.390
11925SOL     OW48018   7.636   1.599   1.130
11925SOL    HW248019   7.619   1.545   1.207
11925SOL    HW348020   7.624   1.689   1.160
11925SOL    MW448021   7.633   1.603   1.144
11926SOL     OW48022   7.943   1.701   0.636
11926SOL    HW248023   7.975   1.789   0.614
11926SOL    HW348024   7.896   1.673   0.558
11926SOL    MW448025   7.942   1.709   0.623
11927SOL     OW48026   7.688   0.220   0.659
11927SOL    HW248027   7.679   0.160   0.585
11927SOL    HW348028   7.621   0.191   0.722
11927SOL    MW448029   7.678   0.207   0.657
11928SOL     OW48030   7.619   0.668   1.192
11928SOL    HW248031   7.681   0.698   1.258
11928SOL    HW348032   7.553   0.737   1.186
11928SOL    MW448033   7.618   0.681   1.199
11929SOL     OW48034   7.714   1.777   1.644
11929SOL    HW248035   7.688   1.845   1.582
11929SOL    HW348036   7.762   1.714   1.592
11929SOL    MW448037   7.716   1.777   1.630
11930SOL     OW48038   7.766   1.096   1.151
11930SOL    HW248039   7.819   1.171   1.176
11930SOL    HW348040   7.685   1.134   1.117
11930SOL    MW448041   7.762   1.111   1.151
11931SOL     OW48042   7.621   0.865   0.557
11931SOL    HW248043   7.712   0.880   0.584
11931SOL    HW348044   7.624   0.786   0.503
11931SOL    MW448045   7.633   0.857   0.555
11932SOL     OW48046   7.857   0.573   1.811
11932SOL    HW248047   7.804   0.653   1.818
11932SOL    HW348048   7.927   0.585   1.876
11932SOL    MW448049   7.859   0.586   1.819
11933SOL     OW48050   8.243   0.123   1.518
11933SOL    HW248051   8.220   0.031   1.520
11933SOL    HW348052   8.329   0.125   1.475
11933SOL    MW448053   8.250   0.113   1.514
11934SOL     OW48054   7.629   1.477   0.596
11934SOL    HW248055   7.601   1.516   0.678
11934SOL    HW348056   7.649   1.386   0.618
11934SOL    MW448057   7.627   1.469   0.609
11935SOL     OW48058   8.152   0.939   0.771
11935SOL    HW248059   8.063   0.930   0.804
11935SOL    HW348060   8.156   1.029   0.739
11935SOL    MW448061   8.141   0.950   0.771
11936SOL     OW48062   7.826   1.621   0.425
11936SOL    HW248063   7.787   1.668   0.351
11936SOL    HW348064   7.760   1.556   0.450
11936SOL    MW448065   7.813   1.619   0.419
11937SOL     OW48066   7.633   1.208   0.716
11937SOL    HW248067   7.697   1.240   0.779
11937SOL    HW348068   7.682   1.144   0.664
11937SOL    MW448069   7.648   1.204   0.717
11938SOL     OW48070   7.709   1.526   1.838
11938SOL    HW248071   7.765   1.450   1.853
11938SOL    HW348072   7.658   1.504   1.760
11938SOL    MW448073   7.709   1.513   1.829
11939SOL     OW48074   7.887   0.031   1.789
11939SOL    HW248075   7.815  -0.004   1.737
11939SOL    HW348076   7.945   0.072   1.724
11939SOL    MW448077   7.885   0.032   1.774
11940SOL     OW48078   7.911   1.521   1.088
11940SOL    HW248079   7.956   1.583   1.145
11940SOL    HW348080   7.818   1.540   1.101
11940SOL    MW448081   7.904   1.531   1.095
11941SOL     OW48082   8.128   1.294   0.986
11941SOL    HW248083   8.121   1.273   1.080
11941SOL    HW348084   8.046   1.262   0.949
11941SOL    MW448085   8.116   1.288   0.993
11942SOL     OW48086   7.574   1.386   1.649
11942SOL    HW248087   7.618   1.319   1.595
11942SOL    HW348088   7.489   1.348   1.669
11942SOL    MW448089   7.569   1.372   1.645
11943SOL     OW48090   8.015   1.301   0.450
11943SOL    HW248091   8.008   1.333   0.540
11943SOL    HW348092   7.925   1.285   0.422
11943SOL    MW448093   8.003   1.303   0.457
11944SOL     OW48094   7.693   1.188   1.517
11944SOL    HW248095   7.721   1.141   1.595
11944SOL    HW348096   7.614   1.143   1.488
11944SOL    MW448097   7.686   1.177   1.523
11945SOL     OW48098   7.856   0.911   0.697
11945SOL    HW248099   7.914   0.967   0.645
11945SOL    HW348100   7.900   0.826   0.699
11945SOL    MW448101   7.869   0.908   0.690
11946SOL     OW48102   7.563   1.511   0.869
11946SOL    HW248103   7.595   1.515   0.960
11946SOL    HW348104   7.468   1.519   0.877
11946SOL    MW448105   7.555   1.514   0.882
11947SOL     OW48106   7.944   0.376   1.305
11947SOL    HW248107   7.977   0.457   1.345
11947SOL    HW348108   7.917   0.402   1.217
11947SOL    MW448109   7.943   0.390   1.299
11948SOL     OW48110   7.962   1.273   1.221
11948SOL    HW248111   7.974   1.300   1.312
11948SOL    HW348112   7.943   1.354   1.174
11948SOL    MW448113   7.961   1.288   1.226
11949SOL     OW48114   7.888   1.728   0.894
11949SOL    HW248115   7.892   1.639   0.929
11949SOL    HW348116   7.914   1.719   0.803
11949SOL    MW448117   7.891   1.716   0.886
11950SOL     OW48118   7.594   1.481   1.388
11950SOL    HW248119   7.584   1.439   1.474
11950SOL    HW348120   7.515   1.534   1.378
11950SOL    MW448121   7.583   1.482   1.399
11951SOL     OW48122   7.520   1.786   1.843
11951SOL    HW248123   7.570   1.764   1.765
11951SOL    HW348124   7.528   1.881   1.851
11951SOL    MW448125   7.528   1.795   1.834
11952SOL     OW48126   8.281   1.544   0.847
11952SOL    HW248127   8.209   1.481   0.860
11952SOL    HW348128   8.242   1.629   0.865
11952SOL    MW448129   8.265   1.547   0.850
11953SOL     OW48130   7.517   0.549   1.570
11953SOL    HW248131   7.581   0.615   1.545
11953SOL    HW348132   7.436   0.576   1.527
11953SOL    MW448133   7.515   0.561   1.562
11954SOL     OW48134   7.702   0.775   1.511
11954SOL    HW248135   7.723   0.844   1.449
11954SOL    HW348136   7.782   0.722   1.516
11954SOL    MW448137   7.715   0.776   1.505
11955SOL     OW48138   7.687   0.790   1.778
11955SOL    HW248139   7.613   0.734   1.804
11955SOL    HW348140   7.682   0.793   1.683
11955SOL    MW448141   7.676   0.783   1.768
11956SOL     OW48142   7.653   0.475   0.695
11956SOL    HW248143   7.715   0.482   0.768
11956SOL    HW348144   7.653   0.382   0.672
11956SOL    MW448145   7.661   0.464   0.702
11957SOL     OW48146   8.139   0.206   1.284
11957SOL    HW248147   8.070   0.269   1.305
11957SOL    HW348148   8.166   0.170   1.369
11957SOL    MW448149   8.133   0.209   1.297
11958SOL     OW48150   7.834   1.024   1.690
11958SOL    HW248151   7.788   0.940   1.692
11958SOL    HW348152   7.891   1.018   1.614
11958SOL    MW448153   7.836   1.012   1.682
11959SOL     OW48154   7.777   0.691   0.974
11959SOL    HW248155   7.727   0.690   1.055
11959SOL    HW348156   7.797   0.783   0.958
11959SOL    MW448157   7.773   0.703   0.982
11960SOL     OW48158   7.699   0.359   1.715
11960SOL    HW248159   7.656   0.418   1.652
11960SOL    HW348160   7.767   0.414   1.755
11960SOL    MW448161   7.703   0.374   1.712
11961SOL     OW48162   7.598  -0.001   1.138
11961SOL    HW248163   7.589   0.000   1.043
11961SOL    HW348164   7.692   0.011   1.153
11961SOL    MW448165   7.610   0.002   1.129
11962SOL     OW48166   7.811   0.126   0.184
11962SOL    HW248167   7.740   0.181   0.152
11962SOL    HW348168   7.853   0.092   0.105
11962SOL    MW448169   7.807   0.128   0.170
11963SOL     OW48170   7.601   1.482   0.222
11963SOL    HW248171   7.618   1.566   0.264
11963SOL    HW348172   7.636   1.491   0.134
11963SOL    MW448173   7.606   1.495   0.216
11964SOL     OW48174   7.756   0.506   2.295
11964SOL    HW248175   7.788   0.594   2.277
11964SOL    HW348176   7.744   0.504   2.390
11964SOL    MW448177   7.759   0.518   2.307
11965SOL     OW48178   7.834   0.919   3.196
11965SOL    HW248179   7.897   0.866   3.147
11965SOL    HW348180   7.815   0.993   3.139
11965SOL    MW448181   7.840   0.921   3.183
11966SOL     OW48182   8.019   0.692   2.548
11966SOL    HW248183   8.004   0.612   2.599
11966SOL    HW348184   8.101   0.727   2.582
11966SOL    MW448185   8.027   0.684   2.560
11967SOL     OW48186   7.907   0.932   2.829
11967SOL    HW248187   7.862   0.939   2.745
11967SOL    HW348188   7.887   1.015   2.873
11967SOL    MW448189   7.899   0.944   2.823
11968SOL     OW48190   7.604   1.778   2.704
11968SOL    HW248191   7.693   1.770   2.739
11968SOL    HW348192   7.568   1.690   2.709
11968SOL    MW448193   7.611   1.765   2.709
11969SOL     OW48194   7.868   1.305   2.739
11969SOL    HW248195   7.844   1.358   2.815
11969SOL    HW348196   7.924   1.363   2.687
11969SOL    MW448197   7.872   1.320   2.742
11970SOL     OW48198   7.838   1.601   3.334
11970SOL    HW248199   7.746   1.577   3.319
11970SOL    HW348200   7.882   1.518   3.351
11970SOL    MW448201   7.832   1.586   3.333
11971SOL     OW48202   7.753   1.245   2.271
11971SOL    HW248203   7.701   1.313   2.227
11971SOL    HW348204   7.750   1.171   2.211
11971SOL    MW448205   7.745   1.244   2.258
11972SOL     OW48206   7.636   1.599   2.998
11972SOL    HW248207   7.619   1.545   3.075
11972SOL    HW348208   7.624   1.689   3.028
11972SOL    MW448209   7.633   1.603   3.012
11973SOL     OW48210   7.943   1.701   2.504
11973SOL    HW248211   7.975   1.789   2.482
11973SOL    HW348212   7.896   1.673   2.426
11973SOL    MW448213   7.942   1.709   2.491
11974SOL     OW48214   7.659   1.761   2.081
11974SOL    HW248215   7.688   1.851   2.073
11974SOL    HW348216   7.609   1.744   2.002
11974SOL    MW448217   7.657   1.769   2.070
11975SOL     OW48218   7.688   0.220   2.527
11975SOL    HW248219   7.679   0.160   2.453
11975SOL    HW348220   7.621   0.191   2.590
11975SOL    MW448221   7.678   0.207   2.525
11976SOL     OW48222   7.619   0.668   3.060
11976SOL    HW248223   7.681   0.698   3.126
11976SOL    HW348224   7.553   0.737   3.054
11976SOL    MW448225   7.618   0.681   3.067
11977SOL     OW48226   7.714   1.777   3.512
11977SOL    HW248227   7.688   1.845   3.450
11977SOL    HW348228   7.762   1.714   3.460
11977SOL    MW448229   7.716   1.777   3.498
11978SOL     OW48230   7.766   1.096   3.019
11978SOL    HW248231   7.819   1.171   3.044
11978SOL    HW348232   7.685   1.134   2.985
11978SOL    MW448233   7.762   1.111   3.019
11979SOL     OW48234   7.621   0.865   2.425
11979SOL    HW248235   7.712   0.880   2.452
11979SOL    HW348236   7.624   0.786   2.371
11979SOL    MW448237   7.633   0.857   2.423
11980SOL     OW48238   7.857   0.573   3.679
11980SOL    HW248239   7.804   0.653   3.686
11980SOL    HW348240   7.927   0.585   3.744
11980SOL    MW448241   7.859   0.586   3.687
11981SOL     OW48242   8.243   0.123   3.386
11981SOL    HW248243   8.220   0.031   3.388
11981SOL    HW348244   8.329   0.125   3.343
11981SOL    MW448245   8.250   0.113   3.382
11982SOL     OW48246   7.629   1.477   2.464
11982SOL    HW248247   7.601   1.516   2.546
11982SOL    HW348248   7.649   1.386   2.486
11982SOL    MW448249   7.627   1.469   2.477
11983SOL     OW48250   8.152   0.939   2.639
11983SOL    HW248251   8.063   0.930   2.672
11983SOL    HW348252   8.156   1.029   2.607
11983SOL    MW448253   8.141   0.950   2.639
11984SOL     OW48254   7.826   1.621   2.293
11984SOL    HW248255   7.787   1.668   2.219
11984SOL    HW348256   7.760   1.556   2.318
11984SOL    MW448257   7.813   1.619   2.287
11985SOL     OW48258   7.633   1.208   2.584
11985SOL    HW248259   7.697   1.240   2.647
11985SOL    HW348260   7.682   1.144   2.532
11985SOL    MW448261   7.648   1.204   2.585
11986SOL     OW48262   7.709   1.526   3.706
11986SOL    HW248263   7.765   1.450   3.721
11986SOL    HW348264   7.658   1.504   3.628
11986SOL    MW448265   7.709   1.513   3.697
11987SOL     OW48266   7.887   0.031   3.657
11987SOL    HW248267   7.815  -0.004   3.605
11987SOL    HW348268   7.945   0.072   3.592
11987SOL    MW448269   7.885   0.032   3.642
11988SOL     OW48270   7.911   1.521   2.956
11988SOL    HW248271   7.956   1.583   3.013
11988SOL    HW348272   7.818   1.540   2.969
11988SOL    MW448273   7.904   1.531   2.963
11989SOL     OW48274   8.128   1.294   2.854
11989SOL    HW248275   8.121   1.273   2.948
11989SOL    HW348276   8.046   1.262   2.817
11989SOL    MW448277   8.116   1.288   2.861
11990SOL     OW48278   7.574   1.386   3.517
11990SOL    HW248279   7.618   1.319   3.463
11990SOL    HW348280   7.489   1.348   3.537
11990SOL    MW448281   7.569   1.372   3.513
11991SOL     OW48282   8.015   1.301   2.318
11991SOL    HW248283   8.008   1.333   2.408
11991SOL    HW348284   7.925   1.285   2.290
11991SOL    MW448285   8.003   1.303   2.325
11992SOL     OW48286   8.018   0.585   2.032
11992SOL    HW248287   7.984   0.641   2.102
11992SOL    HW348288   8.089   0.535   2.072
11992SOL    MW448289   8.024   0.586   2.046
11993SOL     OW48290   7.693   1.188   3.385
11993SOL    HW248291   7.721   1.141   3.463
11993SOL    HW348292   7.614   1.143   3.356
11993SOL    MW448293   7.686   1.177   3.391
11994SOL     OW48294   7.856   0.911   2.565
11994SOL    HW248295   7.914   0.967   2.513
11994SOL    HW348296   7.900   0.826   2.567
11994SOL    MW448297   7.869   0.908   2.558
11995SOL     OW48298   7.563   1.511   2.737
11995SOL    HW248299   7.595   1.515   2.828
11995SOL    HW348300   7.468   1.519   2.745
11995SOL    MW448301   7.555   1.514   2.750
11996SOL     OW48302   7.518   0.637   2.284
11996SOL    HW248303   7.458   0.609   2.354
11996SOL    HW348304   7.592   0.577   2.290
11996SOL    MW448305   7.520   0.626   2.293
11997SOL     OW48306   7.944   0.376   3.173
11997SOL    HW248307   7.977   0.457   3.213
11997SOL    HW348308   7.917   0.402   3.085
11997SOL    MW448309   7.943   0.390   3.167
11998SOL     OW48310   7.962   1.273   3.089
11998SOL    HW248311   7.974   1.300   3.180
11998SOL    HW348312   7.943   1.354   3.042
11998SOL    MW448313   7.961   1.288   3.094
11999SOL     OW48314   7.734   0.985   2.182
11999SOL    HW248315   7.671   1.001   2.111
11999SOL    HW348316   7.681   0.948   2.253
11999SOL    MW448317   7.719   0.982   2.182
12000SOL     OW48318   7.888   1.728   2.762
12000SOL    HW248319   7.892   1.639   2.797
12000SOL    HW348320   7.914   1.719   2.671
12000SOL    MW448321   7.891   1.716   2.754
12001SOL     OW48322   7.594   1.481   3.256
12001SOL    HW248323   7.584   1.439   3.342
12001SOL    HW348324   7.515   1.534   3.246
12001SOL    MW448325   7.583   1.482   3.267
12002SOL     OW48326   7.520   1.786   3.711
12002SOL    HW248327   7.570   1.764   3.633
12002SOL    HW348328   7.528   1.881   3.719
12002SOL    MW448329   7.528   1.795   3.702
12003SOL     OW48330   8.281   1.544   2.715
12003SOL    HW248331   8.209   1.481   2.728
12003SOL    HW348332   8.242   1.629   2.733
12003SOL    MW448333   8.265   1.547   2.718
12004SOL     OW48334   7.686   0.082   2.295
12004SOL    HW248335   7.757   0.103   2.234
12004SOL    HW348336   7.640   0.010   2.253
12004SOL    MW448337   7.690   0.076   2.281
12005SOL     OW48338   7.517   0.549   3.438
12005SOL    HW248339   7.581   0.615   3.413
12005SOL    HW348340   7.436   0.576   3.395
12005SOL    MW448341   7.515   0.561   3.430
12006SOL     OW48342   7.702   0.775   3.379
12006SOL    HW248343   7.723   0.844   3.317
12006SOL    HW348344   7.782   0.722   3.384
12006SOL    MW448345   7.715   0.776   3.373
12007SOL     OW48346   7.687   0.790   3.646
12007SOL    HW248347   7.613   0.734   3.672
12007SOL    HW348348   7.682   0.793   3.551
12007SOL    MW448349   7.676   0.783   3.636
12008SOL     OW48350   7.653   0.475   2.563
12008SOL    HW248351   7.715   0.482   2.636
12008SOL    HW348352   7.653   0.382   2.540
12008SOL    MW448353   7.661   0.464   2.570
12009SOL     OW48354   8.139   0.206   3.152
12009SOL    HW248355   8.070   0.269   3.173
12009SOL    HW348356   8.166   0.170   3.237
12009SOL    MW448357   8.133   0.209   3.165
12010SOL     OW48358   7.522   1.047   2.021
12010SOL    HW248359   7.491   1.112   2.084
12010SOL    HW348360   7.471   0.969   2.040
12010SOL    MW448361   7.512   1.044   2.031
12011SOL     OW48362   7.834   1.024   3.558
12011SOL    HW248363   7.788   0.940   3.560
12011SOL    HW348364   7.891   1.018   3.482
12011SOL    MW448365   7.836   1.012   3.550
12012SOL     OW48366   7.777   0.691   2.842
12012SOL    HW248367   7.727   0.690   2.923
12012SOL    HW348368   7.797   0.783   2.826
12012SOL    MW448369   7.773   0.703   2.850
12013SOL     OW48370   7.699   0.359   3.583
12013SOL    HW248371   7.656   0.418   3.520
12013SOL    HW348372   7.767   0.414   3.623
12013SOL    MW448373   7.703   0.374   3.580
12014SOL     OW48374   7.598  -0.001   3.006
12014SOL    HW248375   7.589   0.000   2.911
12014SOL    HW348376   7.692   0.011   3.021
12014SOL    MW448377   7.610   0.002   2.997
12015SOL     OW48378   7.811   0.126   2.052
12015SOL    HW248379   7.740   0.181   2.020
12015SOL    HW348380   7.853   0.092   1.973
12015SOL    MW448381   7.807   0.128   2.038
12016SOL     OW48382   7.567   0.225   1.901
12016SOL    HW248383   7.534   0.304   1.945
12016SOL    HW348384   7.622   0.258   1.830
12016SOL    MW448385   7.570   0.239   1.898
12017SOL     OW48386   7.601   1.482   2.090
12017SOL    HW248387   7.618   1.566   2.132
12017SOL    HW348388   7.636   1.491   2.002
12017SOL    MW448389   7.606   1.495   2.084
12018SOL     OW48390   7.756   0.506   4.163
12018SOL    HW248391   7.788   0.594   4.145
12018SOL    HW348392   7.744   0.504   4.258
12018SOL    MW448393   7.759   0.518   4.175
12019SOL     OW48394   7.834   0.919   5.064
12019SOL    HW248395   7.897   0.866   5.015
12019SOL    HW348396   7.815   0.993   5.007
12019SOL    MW448397   7.840   0.921   5.051
12020SOL     OW48398   8.019   0.692   4.416
12020SOL    HW248399   8.004   0.612   4.467
12020SOL    HW348400   8.101   0.727   4.450
12020SOL    MW448401   8.027   0.684   4.428
12021SOL     OW48402   7.907   0.932   4.697
12021SOL    HW248403   7.862   0.939   4.613
12021SOL    HW348404   7.887   1.015   4.741
12021SOL    MW448405   7.899   0.944   4.691
12022SOL     OW48406   7.604   1.778   4.572
12022SOL    HW248407   7.693   1.770   4.607
12022SOL    HW348408   7.568   1.690   4.577
12022SOL    MW448409   7.611   1.765   4.577
12023SOL     OW48410   7.868   1.305   4.607
12023SOL    HW248411   7.844   1.358   4.683
12023SOL    HW348412   7.924   1.363   4.555
12023SOL    MW448413   7.872   1.320   4.610
12024SOL     OW48414   7.838   1.601   5.202
12024SOL    HW248415   7.746   1.577   5.187
12024SOL    HW348416   7.882   1.518   5.219
12024SOL    MW448417   7.832   1.586   5.201
12025SOL     OW48418   7.753   1.245   4.139
12025SOL    HW248419   7.701   1.313   4.095
12025SOL    HW348420   7.750   1.171   4.079
12025SOL    MW448421   7.745   1.244   4.126
12026SOL     OW48422   7.636   1.599   4.866
12026SOL    HW248423   7.619   1.545   4.943
12026SOL    HW348424   7.624   1.689   4.896
12026SOL    MW448425   7.633   1.603   4.880
12027SOL     OW48426   7.943   1.701   4.372
12027SOL    HW248427   7.975   1.789   4.350
12027SOL    HW348428   7.896   1.673   4.294
12027SOL    MW448429   7.942   1.709   4.359
12028SOL     OW48430   7.659   1.761   3.949
12028SOL    HW248431   7.688   1.851   3.941
12028SOL    HW348432   7.609   1.744   3.870
12028SOL    MW448433   7.657   1.769   3.938
12029SOL     OW48434   7.688   0.220   4.395
12029SOL    HW248435   7.679   0.160   4.321
12029SOL    HW348436   7.621   0.191   4.458
12029SOL    MW448437   7.678   0.207   4.393
12030SOL     OW48438   7.619   0.668   4.928
12030SOL    HW248439   7.681   0.698   4.994
12030SOL    HW348440   7.553   0.737   4.922
12030SOL    MW448441   7.618   0.681   4.935
12031SOL     OW48442   7.714   1.777   5.380
12031SOL    HW248443   7.688   1.845   5.318
12031SOL    HW348444   7.762   1.714   5.328
12031SOL    MW448445   7.716   1.777   5.366
12032SOL     OW48446   7.766   1.096   4.887
12032SOL    HW248447   7.819   1.171   4.912
12032SOL    HW348448   7.685   1.134   4.853
12032SOL    MW448449   7.762   1.111   4.887
12033SOL     OW48450   7.621   0.865   4.293
12033SOL    HW248451   7.712   0.880   4.320
12033SOL    HW348452   7.624   0.786   4.239
12033SOL    MW448453   7.633   0.857   4.291
12034SOL     OW48454   7.857   0.573   5.547
12034SOL    HW248455   7.804   0.653   5.554
12034SOL    HW348456   7.927   0.585   5.612
12034SOL    MW448457   7.859   0.586   5.555
12035SOL     OW48458   8.243   0.123   5.254
12035SOL    HW248459   8.220   0.031   5.256
12035SOL    HW348460   8.329   0.125   5.211
12035SOL    MW448461   8.250   0.113   5.250
12036SOL     OW48462   7.629   1.477   4.332
12036SOL    HW248463   7.601   1.516   4.414
12036SOL    HW348464   7.649   1.386   4.354
12036SOL    MW448465   7.627   1.469   4.345
12037SOL     OW48466   8.152   0.939   4.507
12037SOL    HW248467   8.063   0.930   4.540
12037SOL    HW348468   8.156   1.029   4.475
12037SOL    MW448469   8.141   0.950   4.507
12038SOL     OW48470   7.826   1.621   4.161
12038SOL    HW248471   7.787   1.668   4.087
12038SOL    HW348472   7.760   1.556   4.186
12038SOL    MW448473   7.813   1.619   4.155
12039SOL     OW48474   7.633   1.208   4.452
12039SOL    HW248475   7.697   1.240   4.515
12039SOL    HW348476   7.682   1.144   4.400
12039SOL    MW448477   7.648   1.204   4.453
12040SOL     OW48478   7.709   1.526   5.574
12040SOL    HW248479   7.765   1.450   5.589
12040SOL    HW348480   7.658   1.504   5.496
12040SOL    MW448481   7.709   1.513   5.565
12041SOL     OW48482   7.887   0.031   5.525
12041SOL    HW248483   7.815  -0.004   5.473
12041SOL    HW348484   7.945   0.072   5.460
12041SOL    MW448485   7.885   0.032   5.510
12042SOL     OW48486   7.911   1.521   4.824
12042SOL    HW248487   7.956   1.583   4.881
12042SOL    HW348488   7.818   1.540   4.837
12042SOL    MW448489   7.904   1.531   4.831
12043SOL     OW48490   8.128   1.294   4.722
12043SOL    HW248491   8.121   1.273   4.816
12043SOL    HW348492   8.046   1.262   4.685
12043SOL    MW448493   8.116   1.288   4.729
12044SOL     OW48494   7.574   1.386   5.385
12044SOL    HW248495   7.618   1.319   5.331
12044SOL    HW348496   7.489   1.348   5.405
12044SOL    MW448497   7.569   1.372   5.381
12045SOL     OW48498   8.015   1.301   4.186
12045SOL    HW248499   8.008   1.333   4.276
12045SOL    HW348500   7.925   1.285   4.158
12045SOL    MW448501   8.003   1.303   4.193
12046SOL     OW48502   8.018   0.585   3.900
12046SOL    HW248503   7.984   0.641   3.970
12046SOL    HW348504   8.089   0.535   3.940
12046SOL    MW448505   8.024   0.586   3.914
12047SOL     OW48506   7.693   1.188   5.253
12047SOL    HW248507   7.721   1.141   5.331
12047SOL    HW348508   7.614   1.143   5.224
12047SOL    MW448509   7.686   1.177   5.259
12048SOL     OW48510   7.856   0.911   4.433
12048SOL    HW248511   7.914   0.967   4.381
12048SOL    HW348512   7.900   0.826   4.435
12048SOL    MW448513   7.869   0.908   4.426
12049SOL     OW48514   7.563   1.511   4.605
12049SOL    HW248515   7.595   1.515   4.696
12049SOL    HW348516   7.468   1.519   4.613
12049SOL    MW448517   7.555   1.514   4.618
12050SOL     OW48518   7.518   0.637   4.152
12050SOL    HW248519   7.458   0.609   4.222
12050SOL    HW348520   7.592   0.577   4.158
12050SOL    MW448521   7.520   0.626   4.161
12051SOL     OW48522   7.944   0.376   5.041
12051SOL    HW248523   7.977   0.457   5.081
12051SOL    HW348524   7.917   0.402   4.953
12051SOL    MW448525   7.943   0.390   5.035
12052SOL     OW48526   7.962   1.273   4.957
12052SOL    HW248527   7.974   1.300   5.048
12052SOL    HW348528   7.943   1.354   4.910
12052SOL    MW448529   7.961   1.288   4.962
12053SOL     OW48530   7.734   0.985   4.050
12053SOL    HW248531   7.671   1.001   3.979
12053SOL    HW348532   7.681   0.948   4.121
12053SOL    MW448533   7.719   0.982   4.050
12054SOL     OW48534   7.888   1.728   4.630
12054SOL    HW248535   7.892   1.639   4.665
12054SOL    HW348536   7.914   1.719   4.539
12054SOL    MW448537   7.891   1.716   4.622
12055SOL     OW48538   7.594   1.481   5.124
12055SOL    HW248539   7.584   1.439   5.210
12055SOL    HW348540   7.515   1.534   5.114
12055SOL    MW448541   7.583   1.482   5.135
12056SOL     OW48542   7.520   1.786   5.579
12056SOL    HW248543   7.570   1.764   5.501
12056SOL    HW348544   7.528   1.881   5.587
12056SOL    MW448545   7.528   1.795   5.570
12057SOL     OW48546   8.281   1.544   4.583
12057SOL    HW248547   8.209   1.481   4.596
12057SOL    HW348548   8.242   1.629   4.601
12057SOL    MW448549   8.265   1.547   4.586
12058SOL     OW48550   7.686   0.082   4.163
12058SOL    HW248551   7.757   0.103   4.102
12058SOL    HW348552   7.640   0.010   4.121
12058SOL    MW448553   7.690   0.076   4.149
12059SOL     OW48554   7.517   0.549   5.306
12059SOL    HW248555   7.581   0.615   5.281
12059SOL    HW348556   7.436   0.576   5.263
12059SOL    MW448557   7.515   0.561   5.298
12060SOL     OW48558   7.702   0.775   5.247
12060SOL    HW248559   7.723   0.844   5.185
12060SOL    HW348560   7.782   0.722   5.252
12060SOL    MW448561   7.715   0.776   5.241
12061SOL     OW48562   7.687   0.790   5.514
12061SOL    HW248563   7.613   0.734   5.540
12061SOL    HW348564   7.682   0.793   5.419
12061SOL    MW448565   7.676   0.783   5.504
12062SOL     OW48566   7.653   0.475   4.431
12062SOL    HW248567   7.715   0.482   4.504
12062SOL    HW348568   7.653   0.382   4.408
12062SOL    MW448569   7.661   0.464   4.438
12063SOL     OW48570   8.139   0.206   5.020
12063SOL    HW248571   8.070   0.269   5.041
12063SOL    HW348572   8.166   0.170   5.105
12063SOL    MW448573   8.133   0.209   5.033
12064SOL     OW48574   7.522   1.047   3.889
12064SOL    HW248575   7.491   1.112   3.952
12064SOL    HW348576   7.471   0.969   3.908
12064SOL    MW448577   7.512   1.044   3.899
12065SOL     OW48578   7.834   1.024   5.426
12065SOL    HW248579   7.788   0.940   5.428
12065SOL    HW348580   7.891   1.018   5.350
12065SOL    MW448581   7.836   1.012   5.418
12066SOL     OW48582   7.777   0.691   4.710
12066SOL    HW248583   7.727   0.690   4.791
12066SOL    HW348584   7.797   0.783   4.694
12066SOL    MW448585   7.773   0.703   4.718
12067SOL     OW48586   7.699   0.359   5.451
12067SOL    HW248587   7.656   0.418   5.388
12067SOL    HW348588   7.767   0.414   5.491
12067SOL    MW448589   7.703   0.374   5.448
12068SOL     OW48590   7.598  -0.001   4.874
12068SOL    HW248591   7.589   0.000   4.779
12068SOL    HW348592   7.692   0.011   4.889
12068SOL    MW448593   7.610   0.002   4.865
12069SOL     OW48594   7.811   0.126   3.920
12069SOL    HW248595   7.740   0.181   3.888
12069SOL    HW348596   7.853   0.092   3.841
12069SOL    MW448597   7.807   0.128   3.906
12070SOL     OW48598   7.567   0.225   3.769
12070SOL    HW248599   7.534   0.304   3.813
12070SOL    HW348600   7.622   0.258   3.698
12070SOL    MW448601   7.570   0.239   3.766
12071SOL     OW48602   7.601   1.482   3.958
12071SOL    HW248603   7.618   1.566   4.000
12071SOL    HW348604   7.636   1.491   3.870
12071SOL    MW448605   7.606   1.495   3.952
12072SOL     OW48606   7.756   0.506   6.032
12072SOL    HW248607   7.788   0.594   6.014
12072SOL    HW348608   7.744   0.504   6.127
12072SOL    MW448609   7.759   0.518   6.044
12073SOL     OW48610   8.019   0.692   6.285
12073SOL    HW248611   8.004   0.612   6.336
12073SOL    HW348612   8.101   0.727   6.319
12073SOL    MW448613   8.027   0.684   6.297
12074SOL     OW48614   7.907   0.932   6.566
12074SOL    HW248615   7.862   0.939   6.482
12074SOL    HW348616   7.887   1.015   6.610
12074SOL    MW448617   7.899   0.944   6.560
12075SOL     OW48618   7.604   1.778   6.441
12075SOL    HW248619   7.693   1.770   6.476
12075SOL    HW348620   7.568   1.690   6.446
12075SOL    MW448621   7.611   1.765   6.446
12076SOL     OW48622   7.753   1.245   6.008
12076SOL    HW248623   7.701   1.313   5.964
12076SOL    HW348624   7.750   1.171   5.948
12076SOL    MW448625   7.745   1.244   5.995
12077SOL     OW48626   7.943   1.701   6.241
12077SOL    HW248627   7.975   1.789   6.219
12077SOL    HW348628   7.896   1.673   6.163
12077SOL    MW448629   7.942   1.709   6.228
12078SOL     OW48630   7.659   1.761   5.818
12078SOL    HW248631   7.688   1.851   5.810
12078SOL    HW348632   7.609   1.744   5.739
12078SOL    MW448633   7.657   1.769   5.807
12079SOL     OW48634   7.688   0.220   6.264
12079SOL    HW248635   7.679   0.160   6.190
12079SOL    HW348636   7.621   0.191   6.327
12079SOL    MW448637   7.678   0.207   6.262
12080SOL     OW48638   7.621   0.865   6.162
12080SOL    HW248639   7.712   0.880   6.189
12080SOL    HW348640   7.624   0.786   6.108
12080SOL    MW448641   7.633   0.857   6.160
12081SOL     OW48642   7.629   1.477   6.201
12081SOL    HW248643   7.601   1.516   6.283
12081SOL    HW348644   7.649   1.386   6.223
12081SOL    MW448645   7.627   1.469   6.214
12082SOL     OW48646   8.152   0.939   6.376
12082SOL    HW248647   8.063   0.930   6.409
12082SOL    HW348648   8.156   1.029   6.344
12082SOL    MW448649   8.141   0.950   6.376
12083SOL     OW48650   7.826   1.621   6.030
12083SOL    HW248651   7.787   1.668   5.956
12083SOL    HW348652   7.760   1.556   6.055
12083SOL    MW448653   7.813   1.619   6.024
12084SOL     OW48654   7.633   1.208   6.321
12084SOL    HW248655   7.697   1.240   6.384
12084SOL    HW348656   7.682   1.144   6.269
12084SOL    MW448657   7.648   1.204   6.322
12085SOL     OW48658   7.911   1.521   6.693
12085SOL    HW248659   7.956   1.583   6.750
12085SOL    HW348660   7.818   1.540   6.706
12085SOL    MW448661   7.904   1.531   6.700
12086SOL     OW48662   8.015   1.301   6.055
12086SOL    HW248663   8.008   1.333   6.145
12086SOL    HW348664   7.925   1.285   6.027
12086SOL    MW448665   8.003   1.303   6.062
12087SOL     OW48666   8.018   0.585   5.769
12087SOL    HW248667   7.984   0.641   5.839
12087SOL    HW348668   8.089   0.535   5.809
12087SOL    MW448669   8.024   0.586   5.783
12088SOL     OW48670   7.856   0.911   6.302
12088SOL    HW248671   7.914   0.967   6.250
12088SOL    HW348672   7.900   0.826   6.304
12088SOL    MW448673   7.869   0.908   6.295
12089SOL     OW48674   7.518   0.637   6.021
12089SOL    HW248675   7.458   0.609   6.091
12089SOL    HW348676   7.592   0.577   6.027
12089SOL    MW448677   7.520   0.626   6.030
12090SOL     OW48678   7.734   0.985   5.919
12090SOL    HW248679   7.671   1.001   5.848
12090SOL    HW348680   7.681   0.948   5.990
12090SOL    MW448681   7.719   0.982   5.919
12091SOL     OW48682   7.888   1.728   6.499
12091SOL    HW248683   7.892   1.639   6.534
12091SOL    HW348684   7.914   1.719   6.408
12091SOL    MW448685   7.891   1.716   6.491
12092SOL     OW48686   8.281   1.544   6.452
12092SOL    HW248687   8.209   1.481   6.465
12092SOL    HW348688   8.242   1.629   6.470
12092SOL    MW448689   8.265   1.547   6.455
12093SOL     OW48690   7.686   0.082   6.032
12093SOL    HW248691   7.757   0.103   5.971
12093SOL    HW348692   7.640   0.010   5.990
12093SOL    MW448693   7.690   0.076   6.018
12094SOL     OW48694   7.653   0.475   6.300
12094SOL    HW248695   7.715   0.482   6.373
12094SOL    HW348696   7.653   0.382   6.277
12094SOL    MW448697   7.661   0.464   6.307
12095SOL     OW48698   7.522   1.047   5.758
12095SOL    HW248699   7.491   1.112   5.821
12095SOL    HW348700   7.471   0.969   5.777
12095SOL    MW448701   7.512   1.044   5.768
12096SOL     OW48702   7.811   0.126   5.789
12096SOL    HW248703   7.740   0.181   5.757
12096SOL    HW348704   7.853   0.092   5.710
12096SOL    MW448705   7.807   0.128   5.775
12097SOL     OW48706   7.567   0.225   5.638
12097SOL    HW248707   7.534   0.304   5.682
12097SOL    HW348708   7.622   0.258   5.567
12097SOL    MW448709   7.570   0.239   5.635
12098SOL     OW48710   7.601   1.482   5.827
12098SOL    HW248711   7.618   1.566   5.869
12098SOL    HW348712   7.636   1.491   5.739
12098SOL    MW448713   7.606   1.495   5.821
12099SOL     OW48714   7.756   2.374   0.427
12099SOL    HW248715   7.788   2.462   0.409
12099SOL    HW348716   7.744   2.372   0.522
12099SOL    MW448717   7.759   2.386   0.439
12100SOL     OW48718   7.834   2.787   1.328
12100SOL    HW248719   7.897   2.734   1.279
12100SOL    HW348720   7.815   2.861   1.271
12100SOL    MW448721   7.840   2.789   1.315
12101SOL     OW48722   8.019   2.560   0.680
12101SOL    HW248723   8.004   2.480   0.731
12101SOL    HW348724   8.101   2.595   0.714
12101SOL    MW448725   8.027   2.552   0.692
12102SOL     OW48726   7.907   2.800   0.961
12102SOL    HW248727   7.862   2.807   0.877
12102SOL    HW348728   7.887   2.883   1.005
12102SOL    MW448729   7.899   2.812   0.955
12103SOL     OW48730   7.604   3.646   0.836
12103SOL    HW248731   7.693   3.638   0.871
12103SOL    HW348732   7.568   3.558   0.841
12103SOL    MW448733   7.611   3.633   0.841
12104SOL     OW48734   7.868   3.173   0.871
12104SOL    HW248735   7.844   3.226   0.947
12104SOL    HW348736   7.924   3.231   0.819
12104SOL    MW448737   7.872   3.188   0.874
12105SOL     OW48738   7.838   3.469   1.466
12105SOL    HW248739   7.746   3.445   1.451
12105SOL    HW348740   7.882   3.386   1.483
12105SOL    MW448741   7.832   3.454   1.465
12106SOL     OW48742   7.918   2.152   0.366
12106SOL    HW248743   7.892   2.114   0.282
12106SOL    HW348744   7.855   2.222   0.382
12106SOL    MW448745   7.907   2.155   0.357
12107SOL     OW48746   7.753   3.113   0.403
12107SOL    HW248747   7.701   3.181   0.359
12107SOL    HW348748   7.750   3.039   0.343
12107SOL    MW448749   7.745   3.112   0.390
12108SOL     OW48750   7.636   3.467   1.130
12108SOL    HW248751   7.619   3.413   1.207
12108SOL    HW348752   7.624   3.557   1.160
12108SOL    MW448753   7.633   3.471   1.144
12109SOL     OW48754   7.943   3.569   0.636
12109SOL    HW248755   7.975   3.657   0.614
12109SOL    HW348756   7.896   3.541   0.558
12109SOL    MW448757   7.942   3.577   0.623
12110SOL     OW48758   7.659   3.629   0.213
12110SOL    HW248759   7.688   3.719   0.205
12110SOL    HW348760   7.609   3.612   0.134
12110SOL    MW448761   7.657   3.637   0.202
12111SOL     OW48762   7.688   2.088   0.659
12111SOL    HW248763   7.679   2.028   0.585
12111SOL    HW348764   7.621   2.059   0.722
12111SOL    MW448765   7.678   2.075   0.657
12112SOL     OW48766   7.635   2.261   1.022
12112SOL    HW248767   7.607   2.352   1.031
12112SOL    HW348768   7.572   2.222   0.961
12112SOL    MW448769   7.622   2.267   1.016
12113SOL     OW48770   7.619   2.536   1.192
12113SOL    HW248771   7.681   2.566   1.258
12113SOL    HW348772   7.553   2.605   1.186
12113SOL    MW448773   7.618   2.549   1.199
12114SOL     OW48774   7.714   3.645   1.644
12114SOL    HW248775   7.688   3.713   1.582
12114SOL    HW348776   7.762   3.582   1.592
12114SOL    MW448777   7.716   3.645   1.630
12115SOL     OW48778   7.766   2.964   1.151
12115SOL    HW248779   7.819   3.039   1.176
12115SOL    HW348780   7.685   3.002   1.117
12115SOL    MW448781   7.762   2.979   1.151
12116SOL     OW48782   7.621   2.733   0.557
12116SOL    HW248783   7.712   2.748   0.584
12116SOL    HW348784   7.624   2.654   0.503
12116SOL    MW448785   7.633   2.725   0.555
12117SOL     OW48786   7.857   2.441   1.811
12117SOL    HW248787   7.804   2.521   1.818
12117SOL    HW348788   7.927   2.453   1.876
12117SOL    MW448789   7.859   2.454   1.819
12118SOL     OW48790   7.629   3.345   0.596
12118SOL    HW248791   7.601   3.384   0.678
12118SOL    HW348792   7.649   3.254   0.618
12118SOL    MW448793   7.627   3.337   0.609
12119SOL     OW48794   8.152   2.807   0.771
12119SOL    HW248795   8.063   2.798   0.804
12119SOL    HW348796   8.156   2.897   0.739
12119SOL    MW448797   8.141   2.818   0.771
12120SOL     OW48798   7.922   2.077   1.583
12120SOL    HW248799   7.843   2.095   1.635
12120SOL    HW348800   7.917   2.139   1.510
12120SOL    MW448801   7.912   2.087   1.580
12121SOL     OW48802   7.826   3.489   0.425
12121SOL    HW248803   7.787   3.536   0.351
12121SOL    HW348804   7.760   3.424   0.450
12121SOL    MW448805   7.813   3.487   0.419
12122SOL     OW48806   7.633   3.076   0.716
12122SOL    HW248807   7.697   3.108   0.779
12122SOL    HW348808   7.682   3.012   0.664
12122SOL    MW448809   7.648   3.072   0.717
12123SOL     OW48810   7.709   3.394   1.838
12123SOL    HW248811   7.765   3.318   1.853
12123SOL    HW348812   7.658   3.372   1.760
12123SOL    MW448813   7.709   3.381   1.829
12124SOL     OW48814   7.911   3.389   1.088
12124SOL    HW248815   7.956   3.451   1.145
12124SOL    HW348816   7.818   3.408   1.101
12124SOL    MW448817   7.904   3.399   1.095
12125SOL     OW48818   8.128   3.162   0.986
12125SOL    HW248819   8.121   3.141   1.080
12125SOL    HW348820   8.046   3.130   0.949
12125SOL    MW448821   8.116   3.156   0.993
12126SOL     OW48822   7.574   3.254   1.649
12126SOL    HW248823   7.618   3.187   1.595
12126SOL    HW348824   7.489   3.216   1.669
12126SOL    MW448825   7.569   3.240   1.645
12127SOL     OW48826   8.015   3.169   0.450
12127SOL    HW248827   8.008   3.201   0.540
12127SOL    HW348828   7.925   3.153   0.422
12127SOL    MW448829   8.003   3.171   0.457
12128SOL     OW48830   7.934   1.994   0.657
12128SOL    HW248831   7.984   2.037   0.588
12128SOL    HW348832   7.849   2.038   0.657
12128SOL    MW448833   7.931   2.007   0.648
12129SOL     OW48834   7.693   3.056   1.517
12129SOL    HW248835   7.721   3.009   1.595
12129SOL    HW348836   7.614   3.011   1.488
12129SOL    MW448837   7.686   3.045   1.523
12130SOL     OW48838   7.856   2.779   0.697
12130SOL    HW248839   7.914   2.835   0.645
12130SOL    HW348840   7.900   2.694   0.699
12130SOL    MW448841   7.869   2.776   0.690
12131SOL     OW48842   7.563   3.379   0.869
12131SOL    HW248843   7.595   3.383   0.960
12131SOL    HW348844   7.468   3.387   0.877
12131SOL    MW448845   7.555   3.382   0.882
12132SOL     OW48846   7.944   2.244   1.305
12132SOL    HW248847   7.977   2.325   1.345
12132SOL    HW348848   7.917   2.270   1.217
12132SOL    MW448849   7.943   2.258   1.299
12133SOL     OW48850   7.898   2.211   1.041
12133SOL    HW248851   7.928   2.125   1.012
12133SOL    HW348852   7.803   2.204   1.044
12133SOL    MW448853   7.890   2.200   1.039
12134SOL     OW48854   7.962   3.141   1.221
12134SOL    HW248855   7.974   3.168   1.312
12134SOL    HW348856   7.943   3.222   1.174
12134SOL    MW448857   7.961   3.156   1.226
12135SOL     OW48858   7.888   3.596   0.894
12135SOL    HW248859   7.892   3.507   0.929
12135SOL    HW348860   7.914   3.587   0.803
12135SOL    MW448861   7.891   3.584   0.886
12136SOL     OW48862   7.594   3.349   1.388
12136SOL    HW248863   7.584   3.307   1.474
12136SOL    HW348864   7.515   3.402   1.378
12136SOL    MW448865   7.583   3.350   1.399
12137SOL     OW48866   7.520   3.654   1.843
12137SOL    HW248867   7.570   3.632   1.765
12137SOL    HW348868   7.528   3.749   1.851
12137SOL    MW448869   7.528   3.663   1.834
12138SOL     OW48870   8.281   3.412   0.847
12138SOL    HW248871   8.209   3.349   0.860
12138SOL    HW348872   8.242   3.497   0.865
12138SOL    MW448873   8.265   3.415   0.850
12139SOL     OW48874   7.517   2.417   1.570
12139SOL    HW248875   7.581   2.483   1.545
12139SOL    HW348876   7.436   2.444   1.527
12139SOL    MW448877   7.515   2.429   1.562
12140SOL     OW48878   7.702   2.643   1.511
12140SOL    HW248879   7.723   2.712   1.449
12140SOL    HW348880   7.782   2.590   1.516
12140SOL    MW448881   7.715   2.644   1.505
12141SOL     OW48882   7.687   2.658   1.778
12141SOL    HW248883   7.613   2.602   1.804
12141SOL    HW348884   7.682   2.661   1.683
12141SOL    MW448885   7.676   2.651   1.768
12142SOL     OW48886   7.853   1.945   1.228
12142SOL    HW248887   7.896   2.029   1.248
12142SOL    HW348888   7.926   1.883   1.221
12142SOL    MW448889   7.868   1.948   1.229
12143SOL     OW48890   7.653   2.343   0.695
12143SOL    HW248891   7.715   2.350   0.768
12143SOL    HW348892   7.653   2.250   0.672
12143SOL    MW448893   7.661   2.332   0.702
12144SOL     OW48894   8.139   2.074   1.284
12144SOL    HW248895   8.070   2.137   1.305
12144SOL    HW348896   8.166   2.038   1.369
12144SOL    MW448897   8.133   2.077   1.297
12145SOL     OW48898   7.834   2.892   1.690
12145SOL    HW248899   7.788   2.808   1.692
12145SOL    HW348900   7.891   2.886   1.614
12145SOL    MW448901   7.836   2.880   1.682
12146SOL     OW48902   7.777   2.559   0.974
12146SOL    HW248903   7.727   2.558   1.055
12146SOL    HW348904   7.797   2.651   0.958
12146SOL    MW448905   7.773   2.571   0.982
12147SOL     OW48906   7.699   2.227   1.715
12147SOL    HW248907   7.656   2.286   1.652
12147SOL    HW348908   7.767   2.282   1.755
12147SOL    MW448909   7.703   2.242   1.712
12148SOL     OW48910   7.598   1.867   1.138
12148SOL    HW248911   7.589   1.868   1.043
12148SOL    HW348912   7.692   1.879   1.153
12148SOL    MW448913   7.610   1.870   1.129
12149SOL     OW48914   7.601   3.350   0.222
12149SOL    HW248915   7.618   3.434   0.264
12149SOL    HW348916   7.636   3.359   0.134
12149SOL    MW448917   7.606   3.363   0.216
12150SOL     OW48918   7.756   2.374   2.295
12150SOL    HW248919   7.788   2.462   2.277
12150SOL    HW348920   7.744   2.372   2.390
12150SOL    MW448921   7.759   2.386   2.307
12151SOL     OW48922   7.834   2.787   3.196
12151SOL    HW248923   7.897   2.734   3.147
12151SOL    HW348924   7.815   2.861   3.139
12151SOL    MW448925   7.840   2.789   3.183
12152SOL     OW48926   8.019   2.560   2.548
12152SOL    HW248927   8.004   2.480   2.599
12152SOL    HW348928   8.101   2.595   2.582
12152SOL    MW448929   8.027   2.552   2.560
12153SOL     OW48930   7.907   2.800   2.829
12153SOL    HW248931   7.862   2.807   2.745
12153SOL    HW348932   7.887   2.883   2.873
12153SOL    MW448933   7.899   2.812   2.823
12154SOL     OW48934   7.604   3.646   2.704
12154SOL    HW248935   7.693   3.638   2.739
12154SOL    HW348936   7.568   3.558   2.709
12154SOL    MW448937   7.611   3.633   2.709
12155SOL     OW48938   7.868   3.173   2.739
12155SOL    HW248939   7.844   3.226   2.815
12155SOL    HW348940   7.924   3.231   2.687
12155SOL    MW448941   7.872   3.188   2.742
12156SOL     OW48942   7.838   3.469   3.334
12156SOL    HW248943   7.746   3.445   3.319
12156SOL    HW348944   7.882   3.386   3.351
12156SOL    MW448945   7.832   3.454   3.333
12157SOL     OW48946   7.918   2.152   2.234
12157SOL    HW248947   7.892   2.114   2.150
12157SOL    HW348948   7.855   2.222   2.250
12157SOL    MW448949   7.907   2.155   2.225
12158SOL     OW48950   7.753   3.113   2.271
12158SOL    HW248951   7.701   3.181   2.227
12158SOL    HW348952   7.750   3.039   2.211
12158SOL    MW448953   7.745   3.112   2.258
12159SOL     OW48954   7.943   3.569   2.504
12159SOL    HW248955   7.975   3.657   2.482
12159SOL    HW348956   7.896   3.541   2.426
12159SOL    MW448957   7.942   3.577   2.491
12160SOL     OW48958   7.659   3.629   2.081
12160SOL    HW248959   7.688   3.719   2.073
12160SOL    HW348960   7.609   3.612   2.002
12160SOL    MW448961   7.657   3.637   2.070
12161SOL     OW48962   7.688   2.088   2.527
12161SOL    HW248963   7.679   2.028   2.453
12161SOL    HW348964   7.621   2.059   2.590
12161SOL    MW448965   7.678   2.075   2.525
12162SOL     OW48966   7.635   2.261   2.890
12162SOL    HW248967   7.607   2.352   2.899
12162SOL    HW348968   7.572   2.222   2.829
12162SOL    MW448969   7.622   2.267   2.884
12163SOL     OW48970   7.619   2.536   3.060
12163SOL    HW248971   7.681   2.566   3.126
12163SOL    HW348972   7.553   2.605   3.054
12163SOL    MW448973   7.618   2.549   3.067
12164SOL     OW48974   7.714   3.645   3.512
12164SOL    HW248975   7.688   3.713   3.450
12164SOL    HW348976   7.762   3.582   3.460
12164SOL    MW448977   7.716   3.645   3.498
12165SOL     OW48978   7.766   2.964   3.019
12165SOL    HW248979   7.819   3.039   3.044
12165SOL    HW348980   7.685   3.002   2.985
12165SOL    MW448981   7.762   2.979   3.019
12166SOL     OW48982   7.621   2.733   2.425
12166SOL    HW248983   7.712   2.748   2.452
12166SOL    HW348984   7.624   2.654   2.371
12166SOL    MW448985   7.633   2.725   2.423
12167SOL     OW48986   7.857   2.441   3.679
12167SOL    HW248987   7.804   2.521   3.686
12167SOL    HW348988   7.927   2.453   3.744
12167SOL    MW448989   7.859   2.454   3.687
12168SOL     OW48990   7.629   3.345   2.464
12168SOL    HW248991   7.601   3.384   2.546
12168SOL    HW348992   7.649   3.254   2.486
12168SOL    MW448993   7.627   3.337   2.477
12169SOL     OW48994   8.152   2.807   2.639
12169SOL    HW248995   8.063   2.798   2.672
12169SOL    HW348996   8.156   2.897   2.607
12169SOL    MW448997   8.141   2.818   2.639
12170SOL     OW48998   7.922   2.077   3.451
12170SOL    HW248999   7.843   2.095   3.503
12170SOL    HW349000   7.917   2.139   3.378
12170SOL    MW449001   7.912   2.087   3.448
12171SOL     OW49002   7.826   3.489   2.293
12171SOL    HW249003   7.787   3.536   2.219
12171SOL    HW349004   7.760   3.424   2.318
12171SOL    MW449005   7.813   3.487   2.287
12172SOL     OW49006   7.633   3.076   2.584
12172SOL    HW249007   7.697   3.108   2.647
12172SOL    HW349008   7.682   3.012   2.532
12172SOL    MW449009   7.648   3.072   2.585
12173SOL     OW49010   7.709   3.394   3.706
12173SOL    HW249011   7.765   3.318   3.721
12173SOL    HW349012   7.658   3.372   3.628
12173SOL    MW449013   7.709   3.381   3.697
12174SOL     OW49014   7.911   3.389   2.956
12174SOL    HW249015   7.956   3.451   3.013
12174SOL    HW349016   7.818   3.408   2.969
12174SOL    MW449017   7.904   3.399   2.963
12175SOL     OW49018   8.128   3.162   2.854
12175SOL    HW249019   8.121   3.141   2.948
12175SOL    HW349020   8.046   3.130   2.817
12175SOL    MW449021   8.116   3.156   2.861
12176SOL     OW49022   7.574   3.254   3.517
12176SOL    HW249023   7.618   3.187   3.463
12176SOL    HW349024   7.489   3.216   3.537
12176SOL    MW449025   7.569   3.240   3.513
12177SOL     OW49026   8.015   3.169   2.318
12177SOL    HW249027   8.008   3.201   2.408
12177SOL    HW349028   7.925   3.153   2.290
12177SOL    MW449029   8.003   3.171   2.325
12178SOL     OW49030   8.018   2.453   2.032
12178SOL    HW249031   7.984   2.509   2.102
12178SOL    HW349032   8.089   2.403   2.072
12178SOL    MW449033   8.024   2.454   2.046
12179SOL     OW49034   7.934   1.994   2.525
12179SOL    HW249035   7.984   2.037   2.456
12179SOL    HW349036   7.849   2.038   2.525
12179SOL    MW449037   7.931   2.007   2.516
12180SOL     OW49038   7.693   3.056   3.385
12180SOL    HW249039   7.721   3.009   3.463
12180SOL    HW349040   7.614   3.011   3.356
12180SOL    MW449041   7.686   3.045   3.391
12181SOL     OW49042   7.856   2.779   2.565
12181SOL    HW249043   7.914   2.835   2.513
12181SOL    HW349044   7.900   2.694   2.567
12181SOL    MW449045   7.869   2.776   2.558
12182SOL     OW49046   7.563   3.379   2.737
12182SOL    HW249047   7.595   3.383   2.828
12182SOL    HW349048   7.468   3.387   2.745
12182SOL    MW449049   7.555   3.382   2.750
12183SOL     OW49050   7.518   2.505   2.284
12183SOL    HW249051   7.458   2.477   2.354
12183SOL    HW349052   7.592   2.445   2.290
12183SOL    MW449053   7.520   2.494   2.293
12184SOL     OW49054   7.944   2.244   3.173
12184SOL    HW249055   7.977   2.325   3.213
12184SOL    HW349056   7.917   2.270   3.085
12184SOL    MW449057   7.943   2.258   3.167
12185SOL     OW49058   7.898   2.211   2.909
12185SOL    HW249059   7.928   2.125   2.880
12185SOL    HW349060   7.803   2.204   2.912
12185SOL    MW449061   7.890   2.200   2.907
12186SOL     OW49062   7.962   3.141   3.089
12186SOL    HW249063   7.974   3.168   3.180
12186SOL    HW349064   7.943   3.222   3.042
12186SOL    MW449065   7.961   3.156   3.094
12187SOL     OW49066   7.734   2.853   2.182
12187SOL    HW249067   7.671   2.869   2.111
12187SOL    HW349068   7.681   2.816   2.253
12187SOL    MW449069   7.719   2.850   2.182
12188SOL     OW49070   7.888   3.596   2.762
12188SOL    HW249071   7.892   3.507   2.797
12188SOL    HW349072   7.914   3.587   2.671
12188SOL    MW449073   7.891   3.584   2.754
12189SOL     OW49074   7.594   3.349   3.256
12189SOL    HW249075   7.584   3.307   3.342
12189SOL    HW349076   7.515   3.402   3.246
12189SOL    MW449077   7.583   3.350   3.267
12190SOL     OW49078   7.520   3.654   3.711
12190SOL    HW249079   7.570   3.632   3.633
12190SOL    HW349080   7.528   3.749   3.719
12190SOL    MW449081   7.528   3.663   3.702
12191SOL     OW49082   8.281   3.412   2.715
12191SOL    HW249083   8.209   3.349   2.728
12191SOL    HW349084   8.242   3.497   2.733
12191SOL    MW449085   8.265   3.415   2.718
12192SOL     OW49086   7.686   1.950   2.295
12192SOL    HW249087   7.757   1.971   2.234
12192SOL    HW349088   7.640   1.878   2.253
12192SOL    MW449089   7.690   1.944   2.281
12193SOL     OW49090   7.517   2.417   3.438
12193SOL    HW249091   7.581   2.483   3.413
12193SOL    HW349092   7.436   2.444   3.395
12193SOL    MW449093   7.515   2.429   3.430
12194SOL     OW49094   7.702   2.643   3.379
12194SOL    HW249095   7.723   2.712   3.317
12194SOL    HW349096   7.782   2.590   3.384
12194SOL    MW449097   7.715   2.644   3.373
12195SOL     OW49098   7.687   2.658   3.646
12195SOL    HW249099   7.613   2.602   3.672
12195SOL    HW349100   7.682   2.661   3.551
12195SOL    MW449101   7.676   2.651   3.636
12196SOL     OW49102   7.853   1.945   3.096
12196SOL    HW249103   7.896   2.029   3.116
12196SOL    HW349104   7.926   1.883   3.089
12196SOL    MW449105   7.868   1.948   3.097
12197SOL     OW49106   7.653   2.343   2.563
12197SOL    HW249107   7.715   2.350   2.636
12197SOL    HW349108   7.653   2.250   2.540
12197SOL    MW449109   7.661   2.332   2.570
12198SOL     OW49110   8.139   2.074   3.152
12198SOL    HW249111   8.070   2.137   3.173
12198SOL    HW349112   8.166   2.038   3.237
12198SOL    MW449113   8.133   2.077   3.165
12199SOL     OW49114   7.522   2.915   2.021
12199SOL    HW249115   7.491   2.980   2.084
12199SOL    HW349116   7.471   2.837   2.040
12199SOL    MW449117   7.512   2.912   2.031
12200SOL     OW49118   7.834   2.892   3.558
12200SOL    HW249119   7.788   2.808   3.560
12200SOL    HW349120   7.891   2.886   3.482
12200SOL    MW449121   7.836   2.880   3.550
12201SOL     OW49122   7.777   2.559   2.842
12201SOL    HW249123   7.727   2.558   2.923
12201SOL    HW349124   7.797   2.651   2.826
12201SOL    MW449125   7.773   2.571   2.850
12202SOL     OW49126   7.699   2.227   3.583
12202SOL    HW249127   7.656   2.286   3.520
12202SOL    HW349128   7.767   2.282   3.623
12202SOL    MW449129   7.703   2.242   3.580
12203SOL     OW49130   7.598   1.867   3.006
12203SOL    HW249131   7.589   1.868   2.911
12203SOL    HW349132   7.692   1.879   3.021
12203SOL    MW449133   7.610   1.870   2.997
12204SOL     OW49134   7.811   1.994   2.052
12204SOL    HW249135   7.740   2.049   2.020
12204SOL    HW349136   7.853   1.960   1.973
12204SOL    MW449137   7.807   1.996   2.038
12205SOL     OW49138   7.567   2.093   1.901
12205SOL    HW249139   7.534   2.172   1.945
12205SOL    HW349140   7.622   2.126   1.830
12205SOL    MW449141   7.570   2.107   1.898
12206SOL     OW49142   7.601   3.350   2.090
12206SOL    HW249143   7.618   3.434   2.132
12206SOL    HW349144   7.636   3.359   2.002
12206SOL    MW449145   7.606   3.363   2.084
12207SOL     OW49146   7.756   2.374   4.163
12207SOL    HW249147   7.788   2.462   4.145
12207SOL    HW349148   7.744   2.372   4.258
12207SOL    MW449149   7.759   2.386   4.175
12208SOL     OW49150   7.834   2.787   5.064
12208SOL    HW249151   7.897   2.734   5.015
12208SOL    HW349152   7.815   2.861   5.007
12208SOL    MW449153   7.840   2.789   5.051
12209SOL     OW49154   8.019   2.560   4.416
12209SOL    HW249155   8.004   2.480   4.467
12209SOL    HW349156   8.101   2.595   4.450
12209SOL    MW449157   8.027   2.552   4.428
12210SOL     OW49158   7.907   2.800   4.697
12210SOL    HW249159   7.862   2.807   4.613
12210SOL    HW349160   7.887   2.883   4.741
12210SOL    MW449161   7.899   2.812   4.691
12211SOL     OW49162   7.604   3.646   4.572
12211SOL    HW249163   7.693   3.638   4.607
12211SOL    HW349164   7.568   3.558   4.577
12211SOL    MW449165   7.611   3.633   4.577
12212SOL     OW49166   7.868   3.173   4.607
12212SOL    HW249167   7.844   3.226   4.683
12212SOL    HW349168   7.924   3.231   4.555
12212SOL    MW449169   7.872   3.188   4.610
12213SOL     OW49170   7.838   3.469   5.202
12213SOL    HW249171   7.746   3.445   5.187
12213SOL    HW349172   7.882   3.386   5.219
12213SOL    MW449173   7.832   3.454   5.201
12214SOL     OW49174   7.918   2.152   4.102
12214SOL    HW249175   7.892   2.114   4.018
12214SOL    HW349176   7.855   2.222   4.118
12214SOL    MW449177   7.907   2.155   4.093
12215SOL     OW49178   7.753   3.113   4.139
12215SOL    HW249179   7.701   3.181   4.095
12215SOL    HW349180   7.750   3.039   4.079
12215SOL    MW449181   7.745   3.112   4.126
12216SOL     OW49182   7.636   3.467   4.866
12216SOL    HW249183   7.619   3.413   4.943
12216SOL    HW349184   7.624   3.557   4.896
12216SOL    MW449185   7.633   3.471   4.880
12217SOL     OW49186   7.943   3.569   4.372
12217SOL    HW249187   7.975   3.657   4.350
12217SOL    HW349188   7.896   3.541   4.294
12217SOL    MW449189   7.942   3.577   4.359
12218SOL     OW49190   7.659   3.629   3.949
12218SOL    HW249191   7.688   3.719   3.941
12218SOL    HW349192   7.609   3.612   3.870
12218SOL    MW449193   7.657   3.637   3.938
12219SOL     OW49194   7.688   2.088   4.395
12219SOL    HW249195   7.679   2.028   4.321
12219SOL    HW349196   7.621   2.059   4.458
12219SOL    MW449197   7.678   2.075   4.393
12220SOL     OW49198   7.635   2.261   4.758
12220SOL    HW249199   7.607   2.352   4.767
12220SOL    HW349200   7.572   2.222   4.697
12220SOL    MW449201   7.622   2.267   4.752
12221SOL     OW49202   7.619   2.536   4.928
12221SOL    HW249203   7.681   2.566   4.994
12221SOL    HW349204   7.553   2.605   4.922
12221SOL    MW449205   7.618   2.549   4.935
12222SOL     OW49206   7.714   3.645   5.380
12222SOL    HW249207   7.688   3.713   5.318
12222SOL    HW349208   7.762   3.582   5.328
12222SOL    MW449209   7.716   3.645   5.366
12223SOL     OW49210   7.766   2.964   4.887
12223SOL    HW249211   7.819   3.039   4.912
12223SOL    HW349212   7.685   3.002   4.853
12223SOL    MW449213   7.762   2.979   4.887
12224SOL     OW49214   7.621   2.733   4.293
12224SOL    HW249215   7.712   2.748   4.320
12224SOL    HW349216   7.624   2.654   4.239
12224SOL    MW449217   7.633   2.725   4.291
12225SOL     OW49218   7.857   2.441   5.547
12225SOL    HW249219   7.804   2.521   5.554
12225SOL    HW349220   7.927   2.453   5.612
12225SOL    MW449221   7.859   2.454   5.555
12226SOL     OW49222   7.629   3.345   4.332
12226SOL    HW249223   7.601   3.384   4.414
12226SOL    HW349224   7.649   3.254   4.354
12226SOL    MW449225   7.627   3.337   4.345
12227SOL     OW49226   8.152   2.807   4.507
12227SOL    HW249227   8.063   2.798   4.540
12227SOL    HW349228   8.156   2.897   4.475
12227SOL    MW449229   8.141   2.818   4.507
12228SOL     OW49230   7.922   2.077   5.319
12228SOL    HW249231   7.843   2.095   5.371
12228SOL    HW349232   7.917   2.139   5.246
12228SOL    MW449233   7.912   2.087   5.316
12229SOL     OW49234   7.826   3.489   4.161
12229SOL    HW249235   7.787   3.536   4.087
12229SOL    HW349236   7.760   3.424   4.186
12229SOL    MW449237   7.813   3.487   4.155
12230SOL     OW49238   7.633   3.076   4.452
12230SOL    HW249239   7.697   3.108   4.515
12230SOL    HW349240   7.682   3.012   4.400
12230SOL    MW449241   7.648   3.072   4.453
12231SOL     OW49242   7.709   3.394   5.574
12231SOL    HW249243   7.765   3.318   5.589
12231SOL    HW349244   7.658   3.372   5.496
12231SOL    MW449245   7.709   3.381   5.565
12232SOL     OW49246   7.911   3.389   4.824
12232SOL    HW249247   7.956   3.451   4.881
12232SOL    HW349248   7.818   3.408   4.837
12232SOL    MW449249   7.904   3.399   4.831
12233SOL     OW49250   8.128   3.162   4.722
12233SOL    HW249251   8.121   3.141   4.816
12233SOL    HW349252   8.046   3.130   4.685
12233SOL    MW449253   8.116   3.156   4.729
12234SOL     OW49254   7.574   3.254   5.385
12234SOL    HW249255   7.618   3.187   5.331
12234SOL    HW349256   7.489   3.216   5.405
12234SOL    MW449257   7.569   3.240   5.381
12235SOL     OW49258   8.015   3.169   4.186
12235SOL    HW249259   8.008   3.201   4.276
12235SOL    HW349260   7.925   3.153   4.158
12235SOL    MW449261   8.003   3.171   4.193
12236SOL     OW49262   8.018   2.453   3.900
12236SOL    HW249263   7.984   2.509   3.970
12236SOL    HW349264   8.089   2.403   3.940
12236SOL    MW449265   8.024   2.454   3.914
12237SOL     OW49266   7.934   1.994   4.393
12237SOL    HW249267   7.984   2.037   4.324
12237SOL    HW349268   7.849   2.038   4.393
12237SOL    MW449269   7.931   2.007   4.384
12238SOL     OW49270   7.693   3.056   5.253
12238SOL    HW249271   7.721   3.009   5.331
12238SOL    HW349272   7.614   3.011   5.224
12238SOL    MW449273   7.686   3.045   5.259
12239SOL     OW49274   7.856   2.779   4.433
12239SOL    HW249275   7.914   2.835   4.381
12239SOL    HW349276   7.900   2.694   4.435
12239SOL    MW449277   7.869   2.776   4.426
12240SOL     OW49278   7.563   3.379   4.605
12240SOL    HW249279   7.595   3.383   4.696
12240SOL    HW349280   7.468   3.387   4.613
12240SOL    MW449281   7.555   3.382   4.618
12241SOL     OW49282   7.518   2.505   4.152
12241SOL    HW249283   7.458   2.477   4.222
12241SOL    HW349284   7.592   2.445   4.158
12241SOL    MW449285   7.520   2.494   4.161
12242SOL     OW49286   7.944   2.244   5.041
12242SOL    HW249287   7.977   2.325   5.081
12242SOL    HW349288   7.917   2.270   4.953
12242SOL    MW449289   7.943   2.258   5.035
12243SOL     OW49290   7.898   2.211   4.777
12243SOL    HW249291   7.928   2.125   4.748
12243SOL    HW349292   7.803   2.204   4.780
12243SOL    MW449293   7.890   2.200   4.775
12244SOL     OW49294   7.962   3.141   4.957
12244SOL    HW249295   7.974   3.168   5.048
12244SOL    HW349296   7.943   3.222   4.910
12244SOL    MW449297   7.961   3.156   4.962
12245SOL     OW49298   7.734   2.853   4.050
12245SOL    HW249299   7.671   2.869   3.979
12245SOL    HW349300   7.681   2.816   4.121
12245SOL    MW449301   7.719   2.850   4.050
12246SOL     OW49302   7.888   3.596   4.630
12246SOL    HW249303   7.892   3.507   4.665
12246SOL    HW349304   7.914   3.587   4.539
12246SOL    MW449305   7.891   3.584   4.622
12247SOL     OW49306   7.594   3.349   5.124
12247SOL    HW249307   7.584   3.307   5.210
12247SOL    HW349308   7.515   3.402   5.114
12247SOL    MW449309   7.583   3.350   5.135
12248SOL     OW49310   7.520   3.654   5.579
12248SOL    HW249311   7.570   3.632   5.501
12248SOL    HW349312   7.528   3.749   5.587
12248SOL    MW449313   7.528   3.663   5.570
12249SOL     OW49314   8.281   3.412   4.583
12249SOL    HW249315   8.209   3.349   4.596
12249SOL    HW349316   8.242   3.497   4.601
12249SOL    MW449317   8.265   3.415   4.586
12250SOL     OW49318   7.686   1.950   4.163
12250SOL    HW249319   7.757   1.971   4.102
12250SOL    HW349320   7.640   1.878   4.121
12250SOL    MW449321   7.690   1.944   4.149
12251SOL     OW49322   7.517   2.417   5.306
12251SOL    HW249323   7.581   2.483   5.281
12251SOL    HW349324   7.436   2.444   5.263
12251SOL    MW449325   7.515   2.429   5.298
12252SOL     OW49326   7.702   2.643   5.247
12252SOL    HW249327   7.723   2.712   5.185
12252SOL    HW349328   7.782   2.590   5.252
12252SOL    MW449329   7.715   2.644   5.241
12253SOL     OW49330   7.687   2.658   5.514
12253SOL    HW249331   7.613   2.602   5.540
12253SOL    HW349332   7.682   2.661   5.419
12253SOL    MW449333   7.676   2.651   5.504
12254SOL     OW49334   7.853   1.945   4.964
12254SOL    HW249335   7.896   2.029   4.984
12254SOL    HW349336   7.926   1.883   4.957
12254SOL    MW449337   7.868   1.948   4.965
12255SOL     OW49338   7.653   2.343   4.431
12255SOL    HW249339   7.715   2.350   4.504
12255SOL    HW349340   7.653   2.250   4.408
12255SOL    MW449341   7.661   2.332   4.438
12256SOL     OW49342   8.139   2.074   5.020
12256SOL    HW249343   8.070   2.137   5.041
12256SOL    HW349344   8.166   2.038   5.105
12256SOL    MW449345   8.133   2.077   5.033
12257SOL     OW49346   7.522   2.915   3.889
12257SOL    HW249347   7.491   2.980   3.952
12257SOL    HW349348   7.471   2.837   3.908
12257SOL    MW449349   7.512   2.912   3.899
12258SOL     OW49350   7.834   2.892   5.426
12258SOL    HW249351   7.788   2.808   5.428
12258SOL    HW349352   7.891   2.886   5.350
12258SOL    MW449353   7.836   2.880   5.418
12259SOL     OW49354   7.777   2.559   4.710
12259SOL    HW249355   7.727   2.558   4.791
12259SOL    HW349356   7.797   2.651   4.694
12259SOL    MW449357   7.773   2.571   4.718
12260SOL     OW49358   7.699   2.227   5.451
12260SOL    HW249359   7.656   2.286   5.388
12260SOL    HW349360   7.767   2.282   5.491
12260SOL    MW449361   7.703   2.242   5.448
12261SOL     OW49362   7.598   1.867   4.874
12261SOL    HW249363   7.589   1.868   4.779
12261SOL    HW349364   7.692   1.879   4.889
12261SOL    MW449365   7.610   1.870   4.865
12262SOL     OW49366   7.811   1.994   3.920
12262SOL    HW249367   7.740   2.049   3.888
12262SOL    HW349368   7.853   1.960   3.841
12262SOL    MW449369   7.807   1.996   3.906
12263SOL     OW49370   7.567   2.093   3.769
12263SOL    HW249371   7.534   2.172   3.813
12263SOL    HW349372   7.622   2.126   3.698
12263SOL    MW449373   7.570   2.107   3.766
12264SOL     OW49374   7.756   2.374   6.032
12264SOL    HW249375   7.788   2.462   6.014
12264SOL    HW349376   7.744   2.372   6.127
12264SOL    MW449377   7.759   2.386   6.044
12265SOL     OW49378   8.019   2.560   6.285
12265SOL    HW249379   8.004   2.480   6.336
12265SOL    HW349380   8.101   2.595   6.319
12265SOL    MW449381   8.027   2.552   6.297
12266SOL     OW49382   7.907   2.800   6.566
12266SOL    HW249383   7.862   2.807   6.482
12266SOL    HW349384   7.887   2.883   6.610
12266SOL    MW449385   7.899   2.812   6.560
12267SOL     OW49386   7.604   3.646   6.441
12267SOL    HW249387   7.693   3.638   6.476
12267SOL    HW349388   7.568   3.558   6.446
12267SOL    MW449389   7.611   3.633   6.446
12268SOL     OW49390   7.918   2.152   5.971
12268SOL    HW249391   7.892   2.114   5.887
12268SOL    HW349392   7.855   2.222   5.987
12268SOL    MW449393   7.907   2.155   5.962
12269SOL     OW49394   7.753   3.113   6.008
12269SOL    HW249395   7.701   3.181   5.964
12269SOL    HW349396   7.750   3.039   5.948
12269SOL    MW449397   7.745   3.112   5.995
12270SOL     OW49398   7.943   3.569   6.241
12270SOL    HW249399   7.975   3.657   6.219
12270SOL    HW349400   7.896   3.541   6.163
12270SOL    MW449401   7.942   3.577   6.228
12271SOL     OW49402   7.659   3.629   5.818
12271SOL    HW249403   7.688   3.719   5.810
12271SOL    HW349404   7.609   3.612   5.739
12271SOL    MW449405   7.657   3.637   5.807
12272SOL     OW49406   7.688   2.088   6.264
12272SOL    HW249407   7.679   2.028   6.190
12272SOL    HW349408   7.621   2.059   6.327
12272SOL    MW449409   7.678   2.075   6.262
12273SOL     OW49410   7.621   2.733   6.162
12273SOL    HW249411   7.712   2.748   6.189
12273SOL    HW349412   7.624   2.654   6.108
12273SOL    MW449413   7.633   2.725   6.160
12274SOL     OW49414   7.629   3.345   6.201
12274SOL    HW249415   7.601   3.384   6.283
12274SOL    HW349416   7.649   3.254   6.223
12274SOL    MW449417   7.627   3.337   6.214
12275SOL     OW49418   8.152   2.807   6.376
12275SOL    HW249419   8.063   2.798   6.409
12275SOL    HW349420   8.156   2.897   6.344
12275SOL    MW449421   8.141   2.818   6.376
12276SOL     OW49422   7.826   3.489   6.030
12276SOL    HW249423   7.787   3.536   5.956
12276SOL    HW349424   7.760   3.424   6.055
12276SOL    MW449425   7.813   3.487   6.024
12277SOL     OW49426   7.633   3.076   6.321
12277SOL    HW249427   7.697   3.108   6.384
12277SOL    HW349428   7.682   3.012   6.269
12277SOL    MW449429   7.648   3.072   6.322
12278SOL     OW49430   7.911   3.389   6.693
12278SOL    HW249431   7.956   3.451   6.750
12278SOL    HW349432   7.818   3.408   6.706
12278SOL    MW449433   7.904   3.399   6.700
12279SOL     OW49434   8.015   3.169   6.055
12279SOL    HW249435   8.008   3.201   6.145
12279SOL    HW349436   7.925   3.153   6.027
12279SOL    MW449437   8.003   3.171   6.062
12280SOL     OW49438   8.018   2.453   5.769
12280SOL    HW249439   7.984   2.509   5.839
12280SOL    HW349440   8.089   2.403   5.809
12280SOL    MW449441   8.024   2.454   5.783
12281SOL     OW49442   7.934   1.994   6.262
12281SOL    HW249443   7.984   2.037   6.193
12281SOL    HW349444   7.849   2.038   6.262
12281SOL    MW449445   7.931   2.007   6.253
12282SOL     OW49446   7.856   2.779   6.302
12282SOL    HW249447   7.914   2.835   6.250
12282SOL    HW349448   7.900   2.694   6.304
12282SOL    MW449449   7.869   2.776   6.295
12283SOL     OW49450   7.518   2.505   6.021
12283SOL    HW249451   7.458   2.477   6.091
12283SOL    HW349452   7.592   2.445   6.027
12283SOL    MW449453   7.520   2.494   6.030
12284SOL     OW49454   7.734   2.853   5.919
12284SOL    HW249455   7.671   2.869   5.848
12284SOL    HW349456   7.681   2.816   5.990
12284SOL    MW449457   7.719   2.850   5.919
12285SOL     OW49458   7.888   3.596   6.499
12285SOL    HW249459   7.892   3.507   6.534
12285SOL    HW349460   7.914   3.587   6.408
12285SOL    MW449461   7.891   3.584   6.491
12286SOL     OW49462   8.281   3.412   6.452
12286SOL    HW249463   8.209   3.349   6.465
12286SOL    HW349464   8.242   3.497   6.470
12286SOL    MW449465   8.265   3.415   6.455
12287SOL     OW49466   7.686   1.950   6.032
12287SOL    HW249467   7.757   1.971   5.971
12287SOL    HW349468   7.640   1.878   5.990
12287SOL    MW449469   7.690   1.944   6.018
12288SOL     OW49470   7.653   2.343   6.300
12288SOL    HW249471   7.715   2.350   6.373
12288SOL    HW349472   7.653   2.250   6.277
12288SOL    MW449473   7.661   2.332   6.307
12289SOL     OW49474   7.522   2.915   5.758
12289SOL    HW249475   7.491   2.980   5.821
12289SOL    HW349476   7.471   2.837   5.777
12289SOL    MW449477   7.512   2.912   5.768
12290SOL     OW49478   7.811   1.994   5.789
12290SOL    HW249479   7.740   2.049   5.757
12290SOL    HW349480   7.853   1.960   5.710
12290SOL    MW449481   7.807   1.996   5.775
12291SOL     OW49482   7.567   2.093   5.638
12291SOL    HW249483   7.534   2.172   5.682
12291SOL    HW349484   7.622   2.126   5.567
12291SOL    MW449485   7.570   2.107   5.635
12292SOL     OW49486   7.601   3.350   5.827
12292SOL    HW249487   7.618   3.434   5.869
12292SOL    HW349488   7.636   3.359   5.739
12292SOL    MW449489   7.606   3.363   5.821
12293SOL     OW49490   7.756   4.242   0.427
12293SOL    HW249491   7.788   4.330   0.409
12293SOL    HW349492   7.744   4.240   0.522
12293SOL    MW449493   7.759   4.254   0.439
12294SOL     OW49494   7.834   4.655   1.328
12294SOL    HW249495   7.897   4.602   1.279
12294SOL    HW349496   7.815   4.729   1.271
12294SOL    MW449497   7.840   4.657   1.315
12295SOL     OW49498   8.019   4.428   0.680
12295SOL    HW249499   8.004   4.348   0.731
12295SOL    HW349500   8.101   4.463   0.714
12295SOL    MW449501   8.027   4.420   0.692
12296SOL     OW49502   7.907   4.668   0.961
12296SOL    HW249503   7.862   4.675   0.877
12296SOL    HW349504   7.887   4.751   1.005
12296SOL    MW449505   7.899   4.680   0.955
12297SOL     OW49506   7.604   5.514   0.836
12297SOL    HW249507   7.693   5.506   0.871
12297SOL    HW349508   7.568   5.426   0.841
12297SOL    MW449509   7.611   5.501   0.841
12298SOL     OW49510   7.868   5.041   0.871
12298SOL    HW249511   7.844   5.094   0.947
12298SOL    HW349512   7.924   5.099   0.819
12298SOL    MW449513   7.872   5.056   0.874
12299SOL     OW49514   7.838   5.337   1.466
12299SOL    HW249515   7.746   5.313   1.451
12299SOL    HW349516   7.882   5.254   1.483
12299SOL    MW449517   7.832   5.322   1.465
12300SOL     OW49518   7.918   4.020   0.366
12300SOL    HW249519   7.892   3.982   0.282
12300SOL    HW349520   7.855   4.090   0.382
12300SOL    MW449521   7.907   4.023   0.357
12301SOL     OW49522   7.753   4.981   0.403
12301SOL    HW249523   7.701   5.049   0.359
12301SOL    HW349524   7.750   4.907   0.343
12301SOL    MW449525   7.745   4.980   0.390
12302SOL     OW49526   7.636   5.335   1.130
12302SOL    HW249527   7.619   5.281   1.207
12302SOL    HW349528   7.624   5.425   1.160
12302SOL    MW449529   7.633   5.339   1.144
12303SOL     OW49530   7.943   5.437   0.636
12303SOL    HW249531   7.975   5.525   0.614
12303SOL    HW349532   7.896   5.409   0.558
12303SOL    MW449533   7.942   5.445   0.623
12304SOL     OW49534   7.688   3.956   0.659
12304SOL    HW249535   7.679   3.896   0.585
12304SOL    HW349536   7.621   3.927   0.722
12304SOL    MW449537   7.678   3.943   0.657
12305SOL     OW49538   7.635   4.129   1.022
12305SOL    HW249539   7.607   4.220   1.031
12305SOL    HW349540   7.572   4.090   0.961
12305SOL    MW449541   7.622   4.135   1.016
12306SOL     OW49542   7.619   4.404   1.192
12306SOL    HW249543   7.681   4.434   1.258
12306SOL    HW349544   7.553   4.473   1.186
12306SOL    MW449545   7.618   4.417   1.199
12307SOL     OW49546   7.714   5.513   1.644
12307SOL    HW249547   7.688   5.581   1.582
12307SOL    HW349548   7.762   5.450   1.592
12307SOL    MW449549   7.716   5.513   1.630
12308SOL     OW49550   7.766   4.832   1.151
12308SOL    HW249551   7.819   4.907   1.176
12308SOL    HW349552   7.685   4.870   1.117
12308SOL    MW449553   7.762   4.847   1.151
12309SOL     OW49554   7.621   4.601   0.557
12309SOL    HW249555   7.712   4.616   0.584
12309SOL    HW349556   7.624   4.522   0.503
12309SOL    MW449557   7.633   4.593   0.555
12310SOL     OW49558   7.857   4.309   1.811
12310SOL    HW249559   7.804   4.389   1.818
12310SOL    HW349560   7.927   4.321   1.876
12310SOL    MW449561   7.859   4.322   1.819
12311SOL     OW49562   7.629   5.213   0.596
12311SOL    HW249563   7.601   5.252   0.678
12311SOL    HW349564   7.649   5.122   0.618
12311SOL    MW449565   7.627   5.205   0.609
12312SOL     OW49566   8.152   4.675   0.771
12312SOL    HW249567   8.063   4.666   0.804
12312SOL    HW349568   8.156   4.765   0.739
12312SOL    MW449569   8.141   4.686   0.771
12313SOL     OW49570   7.922   3.945   1.583
12313SOL    HW249571   7.843   3.963   1.635
12313SOL    HW349572   7.917   4.007   1.510
12313SOL    MW449573   7.912   3.955   1.580
12314SOL     OW49574   7.826   5.357   0.425
12314SOL    HW249575   7.787   5.404   0.351
12314SOL    HW349576   7.760   5.292   0.450
12314SOL    MW449577   7.813   5.355   0.419
12315SOL     OW49578   7.633   4.944   0.716
12315SOL    HW249579   7.697   4.976   0.779
12315SOL    HW349580   7.682   4.880   0.664
12315SOL    MW449581   7.648   4.940   0.717
12316SOL     OW49582   7.709   5.262   1.838
12316SOL    HW249583   7.765   5.186   1.853
12316SOL    HW349584   7.658   5.240   1.760
12316SOL    MW449585   7.709   5.249   1.829
12317SOL     OW49586   7.911   5.257   1.088
12317SOL    HW249587   7.956   5.319   1.145
12317SOL    HW349588   7.818   5.276   1.101
12317SOL    MW449589   7.904   5.267   1.095
12318SOL     OW49590   8.128   5.030   0.986
12318SOL    HW249591   8.121   5.009   1.080
12318SOL    HW349592   8.046   4.998   0.949
12318SOL    MW449593   8.116   5.024   0.993
12319SOL     OW49594   7.574   5.122   1.649
12319SOL    HW249595   7.618   5.055   1.595
12319SOL    HW349596   7.489   5.084   1.669
12319SOL    MW449597   7.569   5.108   1.645
12320SOL     OW49598   8.015   5.037   0.450
12320SOL    HW249599   8.008   5.069   0.540
12320SOL    HW349600   7.925   5.021   0.422
12320SOL    MW449601   8.003   5.039   0.457
12321SOL     OW49602   7.934   3.862   0.657
12321SOL    HW249603   7.984   3.905   0.588
12321SOL    HW349604   7.849   3.906   0.657
12321SOL    MW449605   7.931   3.875   0.648
12322SOL     OW49606   7.693   4.924   1.517
12322SOL    HW249607   7.721   4.877   1.595
12322SOL    HW349608   7.614   4.879   1.488
12322SOL    MW449609   7.686   4.913   1.523
12323SOL     OW49610   7.856   4.647   0.697
12323SOL    HW249611   7.914   4.703   0.645
12323SOL    HW349612   7.900   4.562   0.699
12323SOL    MW449613   7.869   4.644   0.690
12324SOL     OW49614   7.563   5.247   0.869
12324SOL    HW249615   7.595   5.251   0.960
12324SOL    HW349616   7.468   5.255   0.877
12324SOL    MW449617   7.555   5.250   0.882
12325SOL     OW49618   7.518   4.373   0.416
12325SOL    HW249619   7.458   4.345   0.486
12325SOL    HW349620   7.592   4.313   0.422
12325SOL    MW449621   7.520   4.362   0.425
12326SOL     OW49622   7.944   4.112   1.305
12326SOL    HW249623   7.977   4.193   1.345
12326SOL    HW349624   7.917   4.138   1.217
12326SOL    MW449625   7.943   4.126   1.299
12327SOL     OW49626   7.898   4.079   1.041
12327SOL    HW249627   7.928   3.993   1.012
12327SOL    HW349628   7.803   4.072   1.044
12327SOL    MW449629   7.890   4.068   1.039
12328SOL     OW49630   7.962   5.009   1.221
12328SOL    HW249631   7.974   5.036   1.312
12328SOL    HW349632   7.943   5.090   1.174
12328SOL    MW449633   7.961   5.024   1.226
12329SOL     OW49634   7.734   4.721   0.314
12329SOL    HW249635   7.671   4.737   0.243
12329SOL    HW349636   7.681   4.684   0.385
12329SOL    MW449637   7.719   4.718   0.314
12330SOL     OW49638   7.888   5.464   0.894
12330SOL    HW249639   7.892   5.375   0.929
12330SOL    HW349640   7.914   5.455   0.803
12330SOL    MW449641   7.891   5.452   0.886
12331SOL     OW49642   7.594   5.217   1.388
12331SOL    HW249643   7.584   5.175   1.474
12331SOL    HW349644   7.515   5.270   1.378
12331SOL    MW449645   7.583   5.218   1.399
12332SOL     OW49646   7.520   5.522   1.843
12332SOL    HW249647   7.570   5.500   1.765
12332SOL    HW349648   7.528   5.617   1.851
12332SOL    MW449649   7.528   5.531   1.834
12333SOL     OW49650   8.281   5.280   0.847
12333SOL    HW249651   8.209   5.217   0.860
12333SOL    HW349652   8.242   5.365   0.865
12333SOL    MW449653   8.265   5.283   0.850
12334SOL     OW49654   7.686   3.818   0.427
12334SOL    HW249655   7.757   3.839   0.366
12334SOL    HW349656   7.640   3.746   0.385
12334SOL    MW449657   7.690   3.812   0.413
12335SOL     OW49658   7.517   4.285   1.570
12335SOL    HW249659   7.581   4.351   1.545
12335SOL    HW349660   7.436   4.312   1.527
12335SOL    MW449661   7.515   4.297   1.562
12336SOL     OW49662   7.702   4.511   1.511
12336SOL    HW249663   7.723   4.580   1.449
12336SOL    HW349664   7.782   4.458   1.516
12336SOL    MW449665   7.715   4.512   1.505
12337SOL     OW49666   7.687   4.526   1.778
12337SOL    HW249667   7.613   4.470   1.804
12337SOL    HW349668   7.682   4.529   1.683
12337SOL    MW449669   7.676   4.519   1.768
12338SOL     OW49670   7.853   3.813   1.228
12338SOL    HW249671   7.896   3.897   1.248
12338SOL    HW349672   7.926   3.751   1.221
12338SOL    MW449673   7.868   3.816   1.229
12339SOL     OW49674   7.653   4.211   0.695
12339SOL    HW249675   7.715   4.218   0.768
12339SOL    HW349676   7.653   4.118   0.672
12339SOL    MW449677   7.661   4.200   0.702
12340SOL     OW49678   8.139   3.942   1.284
12340SOL    HW249679   8.070   4.005   1.305
12340SOL    HW349680   8.166   3.906   1.369
12340SOL    MW449681   8.133   3.945   1.297
12341SOL     OW49682   7.834   4.760   1.690
12341SOL    HW249683   7.788   4.676   1.692
12341SOL    HW349684   7.891   4.754   1.614
12341SOL    MW449685   7.836   4.748   1.682
12342SOL     OW49686   7.777   4.427   0.974
12342SOL    HW249687   7.727   4.426   1.055
12342SOL    HW349688   7.797   4.519   0.958
12342SOL    MW449689   7.773   4.439   0.982
12343SOL     OW49690   7.699   4.095   1.715
12343SOL    HW249691   7.656   4.154   1.652
12343SOL    HW349692   7.767   4.150   1.755
12343SOL    MW449693   7.703   4.110   1.712
12344SOL     OW49694   7.598   3.735   1.138
12344SOL    HW249695   7.589   3.736   1.043
12344SOL    HW349696   7.692   3.747   1.153
12344SOL    MW449697   7.610   3.738   1.129
12345SOL     OW49698   7.756   4.242   2.295
12345SOL    HW249699   7.788   4.330   2.277
12345SOL    HW349700   7.744   4.240   2.390
12345SOL    MW449701   7.759   4.254   2.307
12346SOL     OW49702   7.834   4.655   3.196
12346SOL    HW249703   7.897   4.602   3.147
12346SOL    HW349704   7.815   4.729   3.139
12346SOL    MW449705   7.840   4.657   3.183
12347SOL     OW49706   8.019   4.428   2.548
12347SOL    HW249707   8.004   4.348   2.599
12347SOL    HW349708   8.101   4.463   2.582
12347SOL    MW449709   8.027   4.420   2.560
12348SOL     OW49710   7.907   4.668   2.829
12348SOL    HW249711   7.862   4.675   2.745
12348SOL    HW349712   7.887   4.751   2.873
12348SOL    MW449713   7.899   4.680   2.823
12349SOL     OW49714   7.604   5.514   2.704
12349SOL    HW249715   7.693   5.506   2.739
12349SOL    HW349716   7.568   5.426   2.709
12349SOL    MW449717   7.611   5.501   2.709
12350SOL     OW49718   7.868   5.041   2.739
12350SOL    HW249719   7.844   5.094   2.815
12350SOL    HW349720   7.924   5.099   2.687
12350SOL    MW449721   7.872   5.056   2.742
12351SOL     OW49722   7.838   5.337   3.334
12351SOL    HW249723   7.746   5.313   3.319
12351SOL    HW349724   7.882   5.254   3.351
12351SOL    MW449725   7.832   5.322   3.333
12352SOL     OW49726   7.918   4.020   2.234
12352SOL    HW249727   7.892   3.982   2.150
12352SOL    HW349728   7.855   4.090   2.250
12352SOL    MW449729   7.907   4.023   2.225
12353SOL     OW49730   7.753   4.981   2.271
12353SOL    HW249731   7.701   5.049   2.227
12353SOL    HW349732   7.750   4.907   2.211
12353SOL    MW449733   7.745   4.980   2.258
12354SOL     OW49734   7.636   5.335   2.998
12354SOL    HW249735   7.619   5.281   3.075
12354SOL    HW349736   7.624   5.425   3.028
12354SOL    MW449737   7.633   5.339   3.012
12355SOL     OW49738   7.943   5.437   2.504
12355SOL    HW249739   7.975   5.525   2.482
12355SOL    HW349740   7.896   5.409   2.426
12355SOL    MW449741   7.942   5.445   2.491
12356SOL     OW49742   7.659   5.497   2.081
12356SOL    HW249743   7.688   5.587   2.073
12356SOL    HW349744   7.609   5.480   2.002
12356SOL    MW449745   7.657   5.505   2.070
12357SOL     OW49746   7.688   3.956   2.527
12357SOL    HW249747   7.679   3.896   2.453
12357SOL    HW349748   7.621   3.927   2.590
12357SOL    MW449749   7.678   3.943   2.525
12358SOL     OW49750   7.635   4.129   2.890
12358SOL    HW249751   7.607   4.220   2.899
12358SOL    HW349752   7.572   4.090   2.829
12358SOL    MW449753   7.622   4.135   2.884
12359SOL     OW49754   7.619   4.404   3.060
12359SOL    HW249755   7.681   4.434   3.126
12359SOL    HW349756   7.553   4.473   3.054
12359SOL    MW449757   7.618   4.417   3.067
12360SOL     OW49758   7.714   5.513   3.512
12360SOL    HW249759   7.688   5.581   3.450
12360SOL    HW349760   7.762   5.450   3.460
12360SOL    MW449761   7.716   5.513   3.498
12361SOL     OW49762   7.766   4.832   3.019
12361SOL    HW249763   7.819   4.907   3.044
12361SOL    HW349764   7.685   4.870   2.985
12361SOL    MW449765   7.762   4.847   3.019
12362SOL     OW49766   7.621   4.601   2.425
12362SOL    HW249767   7.712   4.616   2.452
12362SOL    HW349768   7.624   4.522   2.371
12362SOL    MW449769   7.633   4.593   2.423
12363SOL     OW49770   7.857   4.309   3.679
12363SOL    HW249771   7.804   4.389   3.686
12363SOL    HW349772   7.927   4.321   3.744
12363SOL    MW449773   7.859   4.322   3.687
12364SOL     OW49774   7.629   5.213   2.464
12364SOL    HW249775   7.601   5.252   2.546
12364SOL    HW349776   7.649   5.122   2.486
12364SOL    MW449777   7.627   5.205   2.477
12365SOL     OW49778   8.152   4.675   2.639
12365SOL    HW249779   8.063   4.666   2.672
12365SOL    HW349780   8.156   4.765   2.607
12365SOL    MW449781   8.141   4.686   2.639
12366SOL     OW49782   7.922   3.945   3.451
12366SOL    HW249783   7.843   3.963   3.503
12366SOL    HW349784   7.917   4.007   3.378
12366SOL    MW449785   7.912   3.955   3.448
12367SOL     OW49786   7.826   5.357   2.293
12367SOL    HW249787   7.787   5.404   2.219
12367SOL    HW349788   7.760   5.292   2.318
12367SOL    MW449789   7.813   5.355   2.287
12368SOL     OW49790   7.633   4.944   2.584
12368SOL    HW249791   7.697   4.976   2.647
12368SOL    HW349792   7.682   4.880   2.532
12368SOL    MW449793   7.648   4.940   2.585
12369SOL     OW49794   7.709   5.262   3.706
12369SOL    HW249795   7.765   5.186   3.721
12369SOL    HW349796   7.658   5.240   3.628
12369SOL    MW449797   7.709   5.249   3.697
12370SOL     OW49798   7.911   5.257   2.956
12370SOL    HW249799   7.956   5.319   3.013
12370SOL    HW349800   7.818   5.276   2.969
12370SOL    MW449801   7.904   5.267   2.963
12371SOL     OW49802   8.128   5.030   2.854
12371SOL    HW249803   8.121   5.009   2.948
12371SOL    HW349804   8.046   4.998   2.817
12371SOL    MW449805   8.116   5.024   2.861
12372SOL     OW49806   7.574   5.122   3.517
12372SOL    HW249807   7.618   5.055   3.463
12372SOL    HW349808   7.489   5.084   3.537
12372SOL    MW449809   7.569   5.108   3.513
12373SOL     OW49810   8.015   5.037   2.318
12373SOL    HW249811   8.008   5.069   2.408
12373SOL    HW349812   7.925   5.021   2.290
12373SOL    MW449813   8.003   5.039   2.325
12374SOL     OW49814   8.018   4.321   2.032
12374SOL    HW249815   7.984   4.377   2.102
12374SOL    HW349816   8.089   4.271   2.072
12374SOL    MW449817   8.024   4.322   2.046
12375SOL     OW49818   7.934   3.862   2.525
12375SOL    HW249819   7.984   3.905   2.456
12375SOL    HW349820   7.849   3.906   2.525
12375SOL    MW449821   7.931   3.875   2.516
12376SOL     OW49822   7.693   4.924   3.385
12376SOL    HW249823   7.721   4.877   3.463
12376SOL    HW349824   7.614   4.879   3.356
12376SOL    MW449825   7.686   4.913   3.391
12377SOL     OW49826   7.856   4.647   2.565
12377SOL    HW249827   7.914   4.703   2.513
12377SOL    HW349828   7.900   4.562   2.567
12377SOL    MW449829   7.869   4.644   2.558
12378SOL     OW49830   7.563   5.247   2.737
12378SOL    HW249831   7.595   5.251   2.828
12378SOL    HW349832   7.468   5.255   2.745
12378SOL    MW449833   7.555   5.250   2.750
12379SOL     OW49834   7.518   4.373   2.284
12379SOL    HW249835   7.458   4.345   2.354
12379SOL    HW349836   7.592   4.313   2.290
12379SOL    MW449837   7.520   4.362   2.293
12380SOL     OW49838   7.944   4.112   3.173
12380SOL    HW249839   7.977   4.193   3.213
12380SOL    HW349840   7.917   4.138   3.085
12380SOL    MW449841   7.943   4.126   3.167
12381SOL     OW49842   7.898   4.079   2.909
12381SOL    HW249843   7.928   3.993   2.880
12381SOL    HW349844   7.803   4.072   2.912
12381SOL    MW449845   7.890   4.068   2.907
12382SOL     OW49846   7.962   5.009   3.089
12382SOL    HW249847   7.974   5.036   3.180
12382SOL    HW349848   7.943   5.090   3.042
12382SOL    MW449849   7.961   5.024   3.094
12383SOL     OW49850   7.734   4.721   2.182
12383SOL    HW249851   7.671   4.737   2.111
12383SOL    HW349852   7.681   4.684   2.253
12383SOL    MW449853   7.719   4.718   2.182
12384SOL     OW49854   7.888   5.464   2.762
12384SOL    HW249855   7.892   5.375   2.797
12384SOL    HW349856   7.914   5.455   2.671
12384SOL    MW449857   7.891   5.452   2.754
12385SOL     OW49858   7.594   5.217   3.256
12385SOL    HW249859   7.584   5.175   3.342
12385SOL    HW349860   7.515   5.270   3.246
12385SOL    MW449861   7.583   5.218   3.267
12386SOL     OW49862   7.520   5.522   3.711
12386SOL    HW249863   7.570   5.500   3.633
12386SOL    HW349864   7.528   5.617   3.719
12386SOL    MW449865   7.528   5.531   3.702
12387SOL     OW49866   8.281   5.280   2.715
12387SOL    HW249867   8.209   5.217   2.728
12387SOL    HW349868   8.242   5.365   2.733
12387SOL    MW449869   8.265   5.283   2.718
12388SOL     OW49870   7.686   3.818   2.295
12388SOL    HW249871   7.757   3.839   2.234
12388SOL    HW349872   7.640   3.746   2.253
12388SOL    MW449873   7.690   3.812   2.281
12389SOL     OW49874   7.517   4.285   3.438
12389SOL    HW249875   7.581   4.351   3.413
12389SOL    HW349876   7.436   4.312   3.395
12389SOL    MW449877   7.515   4.297   3.430
12390SOL     OW49878   7.702   4.511   3.379
12390SOL    HW249879   7.723   4.580   3.317
12390SOL    HW349880   7.782   4.458   3.384
12390SOL    MW449881   7.715   4.512   3.373
12391SOL     OW49882   7.687   4.526   3.646
12391SOL    HW249883   7.613   4.470   3.672
12391SOL    HW349884   7.682   4.529   3.551
12391SOL    MW449885   7.676   4.519   3.636
12392SOL     OW49886   7.853   3.813   3.096
12392SOL    HW249887   7.896   3.897   3.116
12392SOL    HW349888   7.926   3.751   3.089
12392SOL    MW449889   7.868   3.816   3.097
12393SOL     OW49890   7.653   4.211   2.563
12393SOL    HW249891   7.715   4.218   2.636
12393SOL    HW349892   7.653   4.118   2.540
12393SOL    MW449893   7.661   4.200   2.570
12394SOL     OW49894   8.139   3.942   3.152
12394SOL    HW249895   8.070   4.005   3.173
12394SOL    HW349896   8.166   3.906   3.237
12394SOL    MW449897   8.133   3.945   3.165
12395SOL     OW49898   7.522   4.783   2.021
12395SOL    HW249899   7.491   4.848   2.084
12395SOL    HW349900   7.471   4.705   2.040
12395SOL    MW449901   7.512   4.780   2.031
12396SOL     OW49902   7.834   4.760   3.558
12396SOL    HW249903   7.788   4.676   3.560
12396SOL    HW349904   7.891   4.754   3.482
12396SOL    MW449905   7.836   4.748   3.550
12397SOL     OW49906   7.777   4.427   2.842
12397SOL    HW249907   7.727   4.426   2.923
12397SOL    HW349908   7.797   4.519   2.826
12397SOL    MW449909   7.773   4.439   2.850
12398SOL     OW49910   7.699   4.095   3.583
12398SOL    HW249911   7.656   4.154   3.520
12398SOL    HW349912   7.767   4.150   3.623
12398SOL    MW449913   7.703   4.110   3.580
12399SOL     OW49914   7.598   3.735   3.006
12399SOL    HW249915   7.589   3.736   2.911
12399SOL    HW349916   7.692   3.747   3.021
12399SOL    MW449917   7.610   3.738   2.997
12400SOL     OW49918   7.811   3.862   2.052
12400SOL    HW249919   7.740   3.917   2.020
12400SOL    HW349920   7.853   3.828   1.973
12400SOL    MW449921   7.807   3.864   2.038
12401SOL     OW49922   7.567   3.961   1.901
12401SOL    HW249923   7.534   4.040   1.945
12401SOL    HW349924   7.622   3.994   1.830
12401SOL    MW449925   7.570   3.975   1.898
12402SOL     OW49926   7.601   5.218   2.090
12402SOL    HW249927   7.618   5.302   2.132
12402SOL    HW349928   7.636   5.227   2.002
12402SOL    MW449929   7.606   5.231   2.084
12403SOL     OW49930   7.756   4.242   4.163
12403SOL    HW249931   7.788   4.330   4.145
12403SOL    HW349932   7.744   4.240   4.258
12403SOL    MW449933   7.759   4.254   4.175
12404SOL     OW49934   7.834   4.655   5.064
12404SOL    HW249935   7.897   4.602   5.015
12404SOL    HW349936   7.815   4.729   5.007
12404SOL    MW449937   7.840   4.657   5.051
12405SOL     OW49938   8.019   4.428   4.416
12405SOL    HW249939   8.004   4.348   4.467
12405SOL    HW349940   8.101   4.463   4.450
12405SOL    MW449941   8.027   4.420   4.428
12406SOL     OW49942   7.907   4.668   4.697
12406SOL    HW249943   7.862   4.675   4.613
12406SOL    HW349944   7.887   4.751   4.741
12406SOL    MW449945   7.899   4.680   4.691
12407SOL     OW49946   7.604   5.514   4.572
12407SOL    HW249947   7.693   5.506   4.607
12407SOL    HW349948   7.568   5.426   4.577
12407SOL    MW449949   7.611   5.501   4.577
12408SOL     OW49950   7.868   5.041   4.607
12408SOL    HW249951   7.844   5.094   4.683
12408SOL    HW349952   7.924   5.099   4.555
12408SOL    MW449953   7.872   5.056   4.610
12409SOL     OW49954   7.838   5.337   5.202
12409SOL    HW249955   7.746   5.313   5.187
12409SOL    HW349956   7.882   5.254   5.219
12409SOL    MW449957   7.832   5.322   5.201
12410SOL     OW49958   7.918   4.020   4.102
12410SOL    HW249959   7.892   3.982   4.018
12410SOL    HW349960   7.855   4.090   4.118
12410SOL    MW449961   7.907   4.023   4.093
12411SOL     OW49962   7.753   4.981   4.139
12411SOL    HW249963   7.701   5.049   4.095
12411SOL    HW349964   7.750   4.907   4.079
12411SOL    MW449965   7.745   4.980   4.126
12412SOL     OW49966   7.636   5.335   4.866
12412SOL    HW249967   7.619   5.281   4.943
12412SOL    HW349968   7.624   5.425   4.896
12412SOL    MW449969   7.633   5.339   4.880
12413SOL     OW49970   7.943   5.437   4.372
12413SOL    HW249971   7.975   5.525   4.350
12413SOL    HW349972   7.896   5.409   4.294
12413SOL    MW449973   7.942   5.445   4.359
12414SOL     OW49974   7.659   5.497   3.949
12414SOL    HW249975   7.688   5.587   3.941
12414SOL    HW349976   7.609   5.480   3.870
12414SOL    MW449977   7.657   5.505   3.938
12415SOL     OW49978   7.688   3.956   4.395
12415SOL    HW249979   7.679   3.896   4.321
12415SOL    HW349980   7.621   3.927   4.458
12415SOL    MW449981   7.678   3.943   4.393
12416SOL     OW49982   7.635   4.129   4.758
12416SOL    HW249983   7.607   4.220   4.767
12416SOL    HW349984   7.572   4.090   4.697
12416SOL    MW449985   7.622   4.135   4.752
12417SOL     OW49986   7.619   4.404   4.928
12417SOL    HW249987   7.681   4.434   4.994
12417SOL    HW349988   7.553   4.473   4.922
12417SOL    MW449989   7.618   4.417   4.935
12418SOL     OW49990   7.714   5.513   5.380
12418SOL    HW249991   7.688   5.581   5.318
12418SOL    HW349992   7.762   5.450   5.328
12418SOL    MW449993   7.716   5.513   5.366
12419SOL     OW49994   7.766   4.832   4.887
12419SOL    HW249995   7.819   4.907   4.912
12419SOL    HW349996   7.685   4.870   4.853
12419SOL    MW449997   7.762   4.847   4.887
12420SOL     OW49998   7.621   4.601   4.293
12420SOL    HW249999   7.712   4.616   4.320
12420SOL    HW350000   7.624   4.522   4.239
12420SOL    MW450001   7.633   4.593   4.291
12421SOL     OW50002   7.857   4.309   5.547
12421SOL    HW250003   7.804   4.389   5.554
12421SOL    HW350004   7.927   4.321   5.612
12421SOL    MW450005   7.859   4.322   5.555
12422SOL     OW50006   7.629   5.213   4.332
12422SOL    HW250007   7.601   5.252   4.414
12422SOL    HW350008   7.649   5.122   4.354
12422SOL    MW450009   7.627   5.205   4.345
12423SOL     OW50010   8.152   4.675   4.507
12423SOL    HW250011   8.063   4.666   4.540
12423SOL    HW350012   8.156   4.765   4.475
12423SOL    MW450013   8.141   4.686   4.507
12424SOL     OW50014   7.922   3.945   5.319
12424SOL    HW250015   7.843   3.963   5.371
12424SOL    HW350016   7.917   4.007   5.246
12424SOL    MW450017   7.912   3.955   5.316
12425SOL     OW50018   7.826   5.357   4.161
12425SOL    HW250019   7.787   5.404   4.087
12425SOL    HW350020   7.760   5.292   4.186
12425SOL    MW450021   7.813   5.355   4.155
12426SOL     OW50022   7.633   4.944   4.452
12426SOL    HW250023   7.697   4.976   4.515
12426SOL    HW350024   7.682   4.880   4.400
12426SOL    MW450025   7.648   4.940   4.453
12427SOL     OW50026   7.709   5.262   5.574
12427SOL    HW250027   7.765   5.186   5.589
12427SOL    HW350028   7.658   5.240   5.496
12427SOL    MW450029   7.709   5.249   5.565
12428SOL     OW50030   7.911   5.257   4.824
12428SOL    HW250031   7.956   5.319   4.881
12428SOL    HW350032   7.818   5.276   4.837
12428SOL    MW450033   7.904   5.267   4.831
12429SOL     OW50034   8.128   5.030   4.722
12429SOL    HW250035   8.121   5.009   4.816
12429SOL    HW350036   8.046   4.998   4.685
12429SOL    MW450037   8.116   5.024   4.729
12430SOL     OW50038   7.574   5.122   5.385
12430SOL    HW250039   7.618   5.055   5.331
12430SOL    HW350040   7.489   5.084   5.405
12430SOL    MW450041   7.569   5.108   5.381
12431SOL     OW50042   8.015   5.037   4.186
12431SOL    HW250043   8.008   5.069   4.276
12431SOL    HW350044   7.925   5.021   4.158
12431SOL    MW450045   8.003   5.039   4.193
12432SOL     OW50046   8.018   4.321   3.900
12432SOL    HW250047   7.984   4.377   3.970
12432SOL    HW350048   8.089   4.271   3.940
12432SOL    MW450049   8.024   4.322   3.914
12433SOL     OW50050   7.934   3.862   4.393
12433SOL    HW250051   7.984   3.905   4.324
12433SOL    HW350052   7.849   3.906   4.393
12433SOL    MW450053   7.931   3.875   4.384
12434SOL     OW50054   7.693   4.924   5.253
12434SOL    HW250055   7.721   4.877   5.331
12434SOL    HW350056   7.614   4.879   5.224
12434SOL    MW450057   7.686   4.913   5.259
12435SOL     OW50058   7.856   4.647   4.433
12435SOL    HW250059   7.914   4.703   4.381
12435SOL    HW350060   7.900   4.562   4.435
12435SOL    MW450061   7.869   4.644   4.426
12436SOL     OW50062   7.563   5.247   4.605
12436SOL    HW250063   7.595   5.251   4.696
12436SOL    HW350064   7.468   5.255   4.613
12436SOL    MW450065   7.555   5.250   4.618
12437SOL     OW50066   7.518   4.373   4.152
12437SOL    HW250067   7.458   4.345   4.222
12437SOL    HW350068   7.592   4.313   4.158
12437SOL    MW450069   7.520   4.362   4.161
12438SOL     OW50070   7.944   4.112   5.041
12438SOL    HW250071   7.977   4.193   5.081
12438SOL    HW350072   7.917   4.138   4.953
12438SOL    MW450073   7.943   4.126   5.035
12439SOL     OW50074   7.898   4.079   4.777
12439SOL    HW250075   7.928   3.993   4.748
12439SOL    HW350076   7.803   4.072   4.780
12439SOL    MW450077   7.890   4.068   4.775
12440SOL     OW50078   7.962   5.009   4.957
12440SOL    HW250079   7.974   5.036   5.048
12440SOL    HW350080   7.943   5.090   4.910
12440SOL    MW450081   7.961   5.024   4.962
12441SOL     OW50082   7.734   4.721   4.050
12441SOL    HW250083   7.671   4.737   3.979
12441SOL    HW350084   7.681   4.684   4.121
12441SOL    MW450085   7.719   4.718   4.050
12442SOL     OW50086   7.888   5.464   4.630
12442SOL    HW250087   7.892   5.375   4.665
12442SOL    HW350088   7.914   5.455   4.539
12442SOL    MW450089   7.891   5.452   4.622
12443SOL     OW50090   7.594   5.217   5.124
12443SOL    HW250091   7.584   5.175   5.210
12443SOL    HW350092   7.515   5.270   5.114
12443SOL    MW450093   7.583   5.218   5.135
12444SOL     OW50094   7.520   5.522   5.579
12444SOL    HW250095   7.570   5.500   5.501
12444SOL    HW350096   7.528   5.617   5.587
12444SOL    MW450097   7.528   5.531   5.570
12445SOL     OW50098   8.281   5.280   4.583
12445SOL    HW250099   8.209   5.217   4.596
12445SOL    HW350100   8.242   5.365   4.601
12445SOL    MW450101   8.265   5.283   4.586
12446SOL     OW50102   7.686   3.818   4.163
12446SOL    HW250103   7.757   3.839   4.102
12446SOL    HW350104   7.640   3.746   4.121
12446SOL    MW450105   7.690   3.812   4.149
12447SOL     OW50106   7.517   4.285   5.306
12447SOL    HW250107   7.581   4.351   5.281
12447SOL    HW350108   7.436   4.312   5.263
12447SOL    MW450109   7.515   4.297   5.298
12448SOL     OW50110   7.702   4.511   5.247
12448SOL    HW250111   7.723   4.580   5.185
12448SOL    HW350112   7.782   4.458   5.252
12448SOL    MW450113   7.715   4.512   5.241
12449SOL     OW50114   7.687   4.526   5.514
12449SOL    HW250115   7.613   4.470   5.540
12449SOL    HW350116   7.682   4.529   5.419
12449SOL    MW450117   7.676   4.519   5.504
12450SOL     OW50118   7.853   3.813   4.964
12450SOL    HW250119   7.896   3.897   4.984
12450SOL    HW350120   7.926   3.751   4.957
12450SOL    MW450121   7.868   3.816   4.965
12451SOL     OW50122   7.653   4.211   4.431
12451SOL    HW250123   7.715   4.218   4.504
12451SOL    HW350124   7.653   4.118   4.408
12451SOL    MW450125   7.661   4.200   4.438
12452SOL     OW50126   8.139   3.942   5.020
12452SOL    HW250127   8.070   4.005   5.041
12452SOL    HW350128   8.166   3.906   5.105
12452SOL    MW450129   8.133   3.945   5.033
12453SOL     OW50130   7.522   4.783   3.889
12453SOL    HW250131   7.491   4.848   3.952
12453SOL    HW350132   7.471   4.705   3.908
12453SOL    MW450133   7.512   4.780   3.899
12454SOL     OW50134   7.834   4.760   5.426
12454SOL    HW250135   7.788   4.676   5.428
12454SOL    HW350136   7.891   4.754   5.350
12454SOL    MW450137   7.836   4.748   5.418
12455SOL     OW50138   7.777   4.427   4.710
12455SOL    HW250139   7.727   4.426   4.791
12455SOL    HW350140   7.797   4.519   4.694
12455SOL    MW450141   7.773   4.439   4.718
12456SOL     OW50142   7.699   4.095   5.451
12456SOL    HW250143   7.656   4.154   5.388
12456SOL    HW350144   7.767   4.150   5.491
12456SOL    MW450145   7.703   4.110   5.448
12457SOL     OW50146   7.598   3.735   4.874
12457SOL    HW250147   7.589   3.736   4.779
12457SOL    HW350148   7.692   3.747   4.889
12457SOL    MW450149   7.610   3.738   4.865
12458SOL     OW50150   7.811   3.862   3.920
12458SOL    HW250151   7.740   3.917   3.888
12458SOL    HW350152   7.853   3.828   3.841
12458SOL    MW450153   7.807   3.864   3.906
12459SOL     OW50154   7.567   3.961   3.769
12459SOL    HW250155   7.534   4.040   3.813
12459SOL    HW350156   7.622   3.994   3.698
12459SOL    MW450157   7.570   3.975   3.766
12460SOL     OW50158   7.601   5.218   3.958
12460SOL    HW250159   7.618   5.302   4.000
12460SOL    HW350160   7.636   5.227   3.870
12460SOL    MW450161   7.606   5.231   3.952
12461SOL     OW50162   7.756   4.242   6.032
12461SOL    HW250163   7.788   4.330   6.014
12461SOL    HW350164   7.744   4.240   6.127
12461SOL    MW450165   7.759   4.254   6.044
12462SOL     OW50166   8.019   4.428   6.285
12462SOL    HW250167   8.004   4.348   6.336
12462SOL    HW350168   8.101   4.463   6.319
12462SOL    MW450169   8.027   4.420   6.297
12463SOL     OW50170   7.604   5.514   6.441
12463SOL    HW250171   7.693   5.506   6.476
12463SOL    HW350172   7.568   5.426   6.446
12463SOL    MW450173   7.611   5.501   6.446
12464SOL     OW50174   7.918   4.020   5.971
12464SOL    HW250175   7.892   3.982   5.887
12464SOL    HW350176   7.855   4.090   5.987
12464SOL    MW450177   7.907   4.023   5.962
12465SOL     OW50178   7.753   4.981   6.008
12465SOL    HW250179   7.701   5.049   5.964
12465SOL    HW350180   7.750   4.907   5.948
12465SOL    MW450181   7.745   4.980   5.995
12466SOL     OW50182   7.636   5.335   6.735
12466SOL    HW250183   7.619   5.281   6.812
12466SOL    HW350184   7.624   5.425   6.765
12466SOL    MW450185   7.633   5.339   6.749
12467SOL     OW50186   7.943   5.437   6.241
12467SOL    HW250187   7.975   5.525   6.219
12467SOL    HW350188   7.896   5.409   6.163
12467SOL    MW450189   7.942   5.445   6.228
12468SOL     OW50190   7.659   5.497   5.818
12468SOL    HW250191   7.688   5.587   5.810
12468SOL    HW350192   7.609   5.480   5.739
12468SOL    MW450193   7.657   5.505   5.807
12469SOL     OW50194   7.688   3.956   6.264
12469SOL    HW250195   7.679   3.896   6.190
12469SOL    HW350196   7.621   3.927   6.327
12469SOL    MW450197   7.678   3.943   6.262
12470SOL     OW50198   7.635   4.129   6.627
12470SOL    HW250199   7.607   4.220   6.636
12470SOL    HW350200   7.572   4.090   6.566
12470SOL    MW450201   7.622   4.135   6.621
12471SOL     OW50202   7.766   4.832   6.756
12471SOL    HW250203   7.819   4.907   6.781
12471SOL    HW350204   7.685   4.870   6.722
12471SOL    MW450205   7.762   4.847   6.756
12472SOL     OW50206   7.621   4.601   6.162
12472SOL    HW250207   7.712   4.616   6.189
12472SOL    HW350208   7.624   4.522   6.108
12472SOL    MW450209   7.633   4.593   6.160
12473SOL     OW50210   7.629   5.213   6.201
12473SOL    HW250211   7.601   5.252   6.283
12473SOL    HW350212   7.649   5.122   6.223
12473SOL    MW450213   7.627   5.205   6.214
12474SOL     OW50214   8.152   4.675   6.376
12474SOL    HW250215   8.063   4.666   6.409
12474SOL    HW350216   8.156   4.765   6.344
12474SOL    MW450217   8.141   4.686   6.376
12475SOL     OW50218   7.826   5.357   6.030
12475SOL    HW250219   7.787   5.404   5.956
12475SOL    HW350220   7.760   5.292   6.055
12475SOL    MW450221   7.813   5.355   6.024
12476SOL     OW50222   7.633   4.944   6.321
12476SOL    HW250223   7.697   4.976   6.384
12476SOL    HW350224   7.682   4.880   6.269
12476SOL    MW450225   7.648   4.940   6.322
12477SOL     OW50226   7.911   5.257   6.693
12477SOL    HW250227   7.956   5.319   6.750
12477SOL    HW350228   7.818   5.276   6.706
12477SOL    MW450229   7.904   5.267   6.700
12478SOL     OW50230   8.015   5.037   6.055
12478SOL    HW250231   8.008   5.069   6.145
12478SOL    HW350232   7.925   5.021   6.027
12478SOL    MW450233   8.003   5.039   6.062
12479SOL     OW50234   8.018   4.321   5.769
12479SOL    HW250235   7.984   4.377   5.839
12479SOL    HW350236   8.089   4.271   5.809
12479SOL    MW450237   8.024   4.322   5.783
12480SOL     OW50238   7.934   3.862   6.262
12480SOL    HW250239   7.984   3.905   6.193
12480SOL    HW350240   7.849   3.906   6.262
12480SOL    MW450241   7.931   3.875   6.253
12481SOL     OW50242   7.856   4.647   6.302
12481SOL    HW250243   7.914   4.703   6.250
12481SOL    HW350244   7.900   4.562   6.304
12481SOL    MW450245   7.869   4.644   6.295
12482SOL     OW50246   7.563   5.247   6.474
12482SOL    HW250247   7.595   5.251   6.565
12482SOL    HW350248   7.468   5.255   6.482
12482SOL    MW450249   7.555   5.250   6.487
12483SOL     OW50250   7.518   4.373   6.021
12483SOL    HW250251   7.458   4.345   6.091
12483SOL    HW350252   7.592   4.313   6.027
12483SOL    MW450253   7.520   4.362   6.030
12484SOL     OW50254   7.898   4.079   6.646
12484SOL    HW250255   7.928   3.993   6.617
12484SOL    HW350256   7.803   4.072   6.649
12484SOL    MW450257   7.890   4.068   6.644
12485SOL     OW50258   7.734   4.721   5.919
12485SOL    HW250259   7.671   4.737   5.848
12485SOL    HW350260   7.681   4.684   5.990
12485SOL    MW450261   7.719   4.718   5.919
12486SOL     OW50262   7.888   5.464   6.499
12486SOL    HW250263   7.892   5.375   6.534
12486SOL    HW350264   7.914   5.455   6.408
12486SOL    MW450265   7.891   5.452   6.491
12487SOL     OW50266   8.281   5.280   6.452
12487SOL    HW250267   8.209   5.217   6.465
12487SOL    HW350268   8.242   5.365   6.470
12487SOL    MW450269   8.265   5.283   6.455
12488SOL     OW50270   7.686   3.818   6.032
12488SOL    HW250271   7.757   3.839   5.971
12488SOL    HW350272   7.640   3.746   5.990
12488SOL    MW450273   7.690   3.812   6.018
12489SOL     OW50274   7.653   4.211   6.300
12489SOL    HW250275   7.715   4.218   6.373
12489SOL    HW350276   7.653   4.118   6.277
12489SOL    MW450277   7.661   4.200   6.307
12490SOL     OW50278   7.522   4.783   5.758
12490SOL    HW250279   7.491   4.848   5.821
12490SOL    HW350280   7.471   4.705   5.777
12490SOL    MW450281   7.512   4.780   5.768
12491SOL     OW50282   7.811   3.862   5.789
12491SOL    HW250283   7.740   3.917   5.757
12491SOL    HW350284   7.853   3.828   5.710
12491SOL    MW450285   7.807   3.864   5.775
12492SOL     OW50286   7.567   3.961   5.638
12492SOL    HW250287   7.534   4.040   5.682
12492SOL    HW350288   7.622   3.994   5.567
12492SOL    MW450289   7.570   3.975   5.635
12493SOL     OW50290   7.601   5.218   5.827
12493SOL    HW250291   7.618   5.302   5.869
12493SOL    HW350292   7.636   5.227   5.739
12493SOL    MW450293   7.606   5.231   5.821
12494SOL     OW50294   7.756   6.111   0.427
12494SOL    HW250295   7.788   6.199   0.409
12494SOL    HW350296   7.744   6.109   0.522
12494SOL    MW450297   7.759   6.123   0.439
12495SOL     OW50298   7.834   6.524   1.328
12495SOL    HW250299   7.897   6.471   1.279
12495SOL    HW350300   7.815   6.598   1.271
12495SOL    MW450301   7.840   6.526   1.315
12496SOL     OW50302   8.019   6.297   0.680
12496SOL    HW250303   8.004   6.217   0.731
12496SOL    HW350304   8.101   6.332   0.714
12496SOL    MW450305   8.027   6.289   0.692
12497SOL     OW50306   7.907   6.537   0.961
12497SOL    HW250307   7.862   6.544   0.877
12497SOL    HW350308   7.887   6.620   1.005
12497SOL    MW450309   7.899   6.549   0.955
12498SOL     OW50310   7.604   7.383   0.836
12498SOL    HW250311   7.693   7.375   0.871
12498SOL    HW350312   7.568   7.295   0.841
12498SOL    MW450313   7.611   7.370   0.841
12499SOL     OW50314   7.868   6.910   0.871
12499SOL    HW250315   7.844   6.963   0.947
12499SOL    HW350316   7.924   6.968   0.819
12499SOL    MW450317   7.872   6.925   0.874
12500SOL     OW50318   7.838   7.206   1.466
12500SOL    HW250319   7.746   7.182   1.451
12500SOL    HW350320   7.882   7.123   1.483
12500SOL    MW450321   7.832   7.191   1.465
12501SOL     OW50322   7.918   5.889   0.366
12501SOL    HW250323   7.892   5.851   0.282
12501SOL    HW350324   7.855   5.959   0.382
12501SOL    MW450325   7.907   5.892   0.357
12502SOL     OW50326   7.753   6.850   0.403
12502SOL    HW250327   7.701   6.918   0.359
12502SOL    HW350328   7.750   6.776   0.343
12502SOL    MW450329   7.745   6.849   0.390
12503SOL     OW50330   7.636   7.204   1.130
12503SOL    HW250331   7.619   7.150   1.207
12503SOL    HW350332   7.624   7.294   1.160
12503SOL    MW450333   7.633   7.208   1.144
12504SOL     OW50334   7.943   7.306   0.636
12504SOL    HW250335   7.975   7.394   0.614
12504SOL    HW350336   7.896   7.278   0.558
12504SOL    MW450337   7.942   7.314   0.623
12505SOL     OW50338   7.688   5.825   0.659
12505SOL    HW250339   7.679   5.765   0.585
12505SOL    HW350340   7.621   5.796   0.722
12505SOL    MW450341   7.678   5.812   0.657
12506SOL     OW50342   7.619   6.273   1.192
12506SOL    HW250343   7.681   6.303   1.258
12506SOL    HW350344   7.553   6.342   1.186
12506SOL    MW450345   7.618   6.286   1.199
12507SOL     OW50346   7.714   7.382   1.644
12507SOL    HW250347   7.688   7.450   1.582
12507SOL    HW350348   7.762   7.319   1.592
12507SOL    MW450349   7.716   7.382   1.630
12508SOL     OW50350   7.766   6.701   1.151
12508SOL    HW250351   7.819   6.776   1.176
12508SOL    HW350352   7.685   6.739   1.117
12508SOL    MW450353   7.762   6.716   1.151
12509SOL     OW50354   7.621   6.470   0.557
12509SOL    HW250355   7.712   6.485   0.584
12509SOL    HW350356   7.624   6.391   0.503
12509SOL    MW450357   7.633   6.462   0.555
12510SOL     OW50358   7.857   6.178   1.811
12510SOL    HW250359   7.804   6.258   1.818
12510SOL    HW350360   7.927   6.190   1.876
12510SOL    MW450361   7.859   6.191   1.819
12511SOL     OW50362   7.629   7.082   0.596
12511SOL    HW250363   7.601   7.121   0.678
12511SOL    HW350364   7.649   6.991   0.618
12511SOL    MW450365   7.627   7.074   0.609
12512SOL     OW50366   8.152   6.544   0.771
12512SOL    HW250367   8.063   6.535   0.804
12512SOL    HW350368   8.156   6.634   0.739
12512SOL    MW450369   8.141   6.555   0.771
12513SOL     OW50370   7.922   5.814   1.583
12513SOL    HW250371   7.843   5.832   1.635
12513SOL    HW350372   7.917   5.876   1.510
12513SOL    MW450373   7.912   5.824   1.580
12514SOL     OW50374   7.826   7.226   0.425
12514SOL    HW250375   7.787   7.273   0.351
12514SOL    HW350376   7.760   7.161   0.450
12514SOL    MW450377   7.813   7.224   0.419
12515SOL     OW50378   7.633   6.813   0.716
12515SOL    HW250379   7.697   6.845   0.779
12515SOL    HW350380   7.682   6.749   0.664
12515SOL    MW450381   7.648   6.809   0.717
12516SOL     OW50382   7.709   7.131   1.838
12516SOL    HW250383   7.765   7.055   1.853
12516SOL    HW350384   7.658   7.109   1.760
12516SOL    MW450385   7.709   7.118   1.829
12517SOL     OW50386   7.911   7.126   1.088
12517SOL    HW250387   7.956   7.188   1.145
12517SOL    HW350388   7.818   7.145   1.101
12517SOL    MW450389   7.904   7.136   1.095
12518SOL     OW50390   8.128   6.899   0.986
12518SOL    HW250391   8.121   6.878   1.080
12518SOL    HW350392   8.046   6.867   0.949
12518SOL    MW450393   8.116   6.893   0.993
12519SOL     OW50394   7.574   6.991   1.649
12519SOL    HW250395   7.618   6.924   1.595
12519SOL    HW350396   7.489   6.953   1.669
12519SOL    MW450397   7.569   6.977   1.645
12520SOL     OW50398   8.015   6.906   0.450
12520SOL    HW250399   8.008   6.938   0.540
12520SOL    HW350400   7.925   6.890   0.422
12520SOL    MW450401   8.003   6.908   0.457
12521SOL     OW50402   8.018   6.190   0.164
12521SOL    HW250403   7.984   6.246   0.234
12521SOL    HW350404   8.089   6.140   0.204
12521SOL    MW450405   8.024   6.191   0.178
12522SOL     OW50406   7.934   5.731   0.657
12522SOL    HW250407   7.984   5.774   0.588
12522SOL    HW350408   7.849   5.775   0.657
12522SOL    MW450409   7.931   5.744   0.648
12523SOL     OW50410   7.693   6.793   1.517
12523SOL    HW250411   7.721   6.746   1.595
12523SOL    HW350412   7.614   6.748   1.488
12523SOL    MW450413   7.686   6.782   1.523
12524SOL     OW50414   7.856   6.516   0.697
12524SOL    HW250415   7.914   6.572   0.645
12524SOL    HW350416   7.900   6.431   0.699
12524SOL    MW450417   7.869   6.513   0.690
12525SOL     OW50418   7.563   7.116   0.869
12525SOL    HW250419   7.595   7.120   0.960
12525SOL    HW350420   7.468   7.124   0.877
12525SOL    MW450421   7.555   7.119   0.882
12526SOL     OW50422   7.518   6.242   0.416
12526SOL    HW250423   7.458   6.214   0.486
12526SOL    HW350424   7.592   6.182   0.422
12526SOL    MW450425   7.520   6.231   0.425
12527SOL     OW50426   7.944   5.981   1.305
12527SOL    HW250427   7.977   6.062   1.345
12527SOL    HW350428   7.917   6.007   1.217
12527SOL    MW450429   7.943   5.995   1.299
12528SOL     OW50430   7.898   5.948   1.041
12528SOL    HW250431   7.928   5.862   1.012
12528SOL    HW350432   7.803   5.941   1.044
12528SOL    MW450433   7.890   5.937   1.039
12529SOL     OW50434   7.962   6.878   1.221
12529SOL    HW250435   7.974   6.905   1.312
12529SOL    HW350436   7.943   6.959   1.174
12529SOL    MW450437   7.961   6.893   1.226
12530SOL     OW50438   7.734   6.590   0.314
12530SOL    HW250439   7.671   6.606   0.243
12530SOL    HW350440   7.681   6.553   0.385
12530SOL    MW450441   7.719   6.587   0.314
12531SOL     OW50442   7.888   7.333   0.894
12531SOL    HW250443   7.892   7.244   0.929
12531SOL    HW350444   7.914   7.324   0.803
12531SOL    MW450445   7.891   7.321   0.886
12532SOL     OW50446   7.594   7.086   1.388
12532SOL    HW250447   7.584   7.044   1.474
12532SOL    HW350448   7.515   7.139   1.378
12532SOL    MW450449   7.583   7.087   1.399
12533SOL     OW50450   7.520   7.391   1.843
12533SOL    HW250451   7.570   7.369   1.765
12533SOL    HW350452   7.528   7.486   1.851
12533SOL    MW450453   7.528   7.400   1.834
12534SOL     OW50454   8.281   7.149   0.847
12534SOL    HW250455   8.209   7.086   0.860
12534SOL    HW350456   8.242   7.234   0.865
12534SOL    MW450457   8.265   7.152   0.850
12535SOL     OW50458   7.686   5.687   0.427
12535SOL    HW250459   7.757   5.708   0.366
12535SOL    HW350460   7.640   5.615   0.385
12535SOL    MW450461   7.690   5.681   0.413
12536SOL     OW50462   7.517   6.154   1.570
12536SOL    HW250463   7.581   6.220   1.545
12536SOL    HW350464   7.436   6.181   1.527
12536SOL    MW450465   7.515   6.166   1.562
12537SOL     OW50466   7.702   6.380   1.511
12537SOL    HW250467   7.723   6.449   1.449
12537SOL    HW350468   7.782   6.327   1.516
12537SOL    MW450469   7.715   6.381   1.505
12538SOL     OW50470   7.687   6.395   1.778
12538SOL    HW250471   7.613   6.339   1.804
12538SOL    HW350472   7.682   6.398   1.683
12538SOL    MW450473   7.676   6.388   1.768
12539SOL     OW50474   7.853   5.682   1.228
12539SOL    HW250475   7.896   5.766   1.248
12539SOL    HW350476   7.926   5.620   1.221
12539SOL    MW450477   7.868   5.685   1.229
12540SOL     OW50478   7.653   6.080   0.695
12540SOL    HW250479   7.715   6.087   0.768
12540SOL    HW350480   7.653   5.987   0.672
12540SOL    MW450481   7.661   6.069   0.702
12541SOL     OW50482   8.139   5.811   1.284
12541SOL    HW250483   8.070   5.874   1.305
12541SOL    HW350484   8.166   5.775   1.369
12541SOL    MW450485   8.133   5.814   1.297
12542SOL     OW50486   7.834   6.629   1.690
12542SOL    HW250487   7.788   6.545   1.692
12542SOL    HW350488   7.891   6.623   1.614
12542SOL    MW450489   7.836   6.617   1.682
12543SOL     OW50490   7.777   6.296   0.974
12543SOL    HW250491   7.727   6.295   1.055
12543SOL    HW350492   7.797   6.388   0.958
12543SOL    MW450493   7.773   6.308   0.982
12544SOL     OW50494   7.699   5.964   1.715
12544SOL    HW250495   7.656   6.023   1.652
12544SOL    HW350496   7.767   6.019   1.755
12544SOL    MW450497   7.703   5.979   1.712
12545SOL     OW50498   7.598   5.604   1.138
12545SOL    HW250499   7.589   5.605   1.043
12545SOL    HW350500   7.692   5.616   1.153
12545SOL    MW450501   7.610   5.607   1.129
12546SOL     OW50502   7.756   6.111   2.295
12546SOL    HW250503   7.788   6.199   2.277
12546SOL    HW350504   7.744   6.109   2.390
12546SOL    MW450505   7.759   6.123   2.307
12547SOL     OW50506   7.834   6.524   3.196
12547SOL    HW250507   7.897   6.471   3.147
12547SOL    HW350508   7.815   6.598   3.139
12547SOL    MW450509   7.840   6.526   3.183
12548SOL     OW50510   8.019   6.297   2.548
12548SOL    HW250511   8.004   6.217   2.599
12548SOL    HW350512   8.101   6.332   2.582
12548SOL    MW450513   8.027   6.289   2.560
12549SOL     OW50514   7.907   6.537   2.829
12549SOL    HW250515   7.862   6.544   2.745
12549SOL    HW350516   7.887   6.620   2.873
12549SOL    MW450517   7.899   6.549   2.823
12550SOL     OW50518   7.604   7.383   2.704
12550SOL    HW250519   7.693   7.375   2.739
12550SOL    HW350520   7.568   7.295   2.709
12550SOL    MW450521   7.611   7.370   2.709
12551SOL     OW50522   7.868   6.910   2.739
12551SOL    HW250523   7.844   6.963   2.815
12551SOL    HW350524   7.924   6.968   2.687
12551SOL    MW450525   7.872   6.925   2.742
12552SOL     OW50526   7.838   7.206   3.334
12552SOL    HW250527   7.746   7.182   3.319
12552SOL    HW350528   7.882   7.123   3.351
12552SOL    MW450529   7.832   7.191   3.333
12553SOL     OW50530   7.918   5.889   2.234
12553SOL    HW250531   7.892   5.851   2.150
12553SOL    HW350532   7.855   5.959   2.250
12553SOL    MW450533   7.907   5.892   2.225
12554SOL     OW50534   7.753   6.850   2.271
12554SOL    HW250535   7.701   6.918   2.227
12554SOL    HW350536   7.750   6.776   2.211
12554SOL    MW450537   7.745   6.849   2.258
12555SOL     OW50538   7.636   7.204   2.998
12555SOL    HW250539   7.619   7.150   3.075
12555SOL    HW350540   7.624   7.294   3.028
12555SOL    MW450541   7.633   7.208   3.012
12556SOL     OW50542   7.943   7.306   2.504
12556SOL    HW250543   7.975   7.394   2.482
12556SOL    HW350544   7.896   7.278   2.426
12556SOL    MW450545   7.942   7.314   2.491
12557SOL     OW50546   7.688   5.825   2.527
12557SOL    HW250547   7.679   5.765   2.453
12557SOL    HW350548   7.621   5.796   2.590
12557SOL    MW450549   7.678   5.812   2.525
12558SOL     OW50550   7.635   5.998   2.890
12558SOL    HW250551   7.607   6.089   2.899
12558SOL    HW350552   7.572   5.959   2.829
12558SOL    MW450553   7.622   6.004   2.884
12559SOL     OW50554   7.619   6.273   3.060
12559SOL    HW250555   7.681   6.303   3.126
12559SOL    HW350556   7.553   6.342   3.054
12559SOL    MW450557   7.618   6.286   3.067
12560SOL     OW50558   7.714   7.382   3.512
12560SOL    HW250559   7.688   7.450   3.450
12560SOL    HW350560   7.762   7.319   3.460
12560SOL    MW450561   7.716   7.382   3.498
12561SOL     OW50562   7.766   6.701   3.019
12561SOL    HW250563   7.819   6.776   3.044
12561SOL    HW350564   7.685   6.739   2.985
12561SOL    MW450565   7.762   6.716   3.019
12562SOL     OW50566   7.621   6.470   2.425
12562SOL    HW250567   7.712   6.485   2.452
12562SOL    HW350568   7.624   6.391   2.371
12562SOL    MW450569   7.633   6.462   2.423
12563SOL     OW50570   7.857   6.178   3.679
12563SOL    HW250571   7.804   6.258   3.686
12563SOL    HW350572   7.927   6.190   3.744
12563SOL    MW450573   7.859   6.191   3.687
12564SOL     OW50574   7.629   7.082   2.464
12564SOL    HW250575   7.601   7.121   2.546
12564SOL    HW350576   7.649   6.991   2.486
12564SOL    MW450577   7.627   7.074   2.477
12565SOL     OW50578   8.152   6.544   2.639
12565SOL    HW250579   8.063   6.535   2.672
12565SOL    HW350580   8.156   6.634   2.607
12565SOL    MW450581   8.141   6.555   2.639
12566SOL     OW50582   7.922   5.814   3.451
12566SOL    HW250583   7.843   5.832   3.503
12566SOL    HW350584   7.917   5.876   3.378
12566SOL    MW450585   7.912   5.824   3.448
12567SOL     OW50586   7.826   7.226   2.293
12567SOL    HW250587   7.787   7.273   2.219
12567SOL    HW350588   7.760   7.161   2.318
12567SOL    MW450589   7.813   7.224   2.287
12568SOL     OW50590   7.633   6.813   2.584
12568SOL    HW250591   7.697   6.845   2.647
12568SOL    HW350592   7.682   6.749   2.532
12568SOL    MW450593   7.648   6.809   2.585
12569SOL     OW50594   7.709   7.131   3.706
12569SOL    HW250595   7.765   7.055   3.721
12569SOL    HW350596   7.658   7.109   3.628
12569SOL    MW450597   7.709   7.118   3.697
12570SOL     OW50598   7.911   7.126   2.956
12570SOL    HW250599   7.956   7.188   3.013
12570SOL    HW350600   7.818   7.145   2.969
12570SOL    MW450601   7.904   7.136   2.963
12571SOL     OW50602   8.128   6.899   2.854
12571SOL    HW250603   8.121   6.878   2.948
12571SOL    HW350604   8.046   6.867   2.817
12571SOL    MW450605   8.116   6.893   2.861
12572SOL     OW50606   7.574   6.991   3.517
12572SOL    HW250607   7.618   6.924   3.463
12572SOL    HW350608   7.489   6.953   3.537
12572SOL    MW450609   7.569   6.977   3.513
12573SOL     OW50610   8.015   6.906   2.318
12573SOL    HW250611   8.008   6.938   2.408
12573SOL    HW350612   7.925   6.890   2.290
12573SOL    MW450613   8.003   6.908   2.325
12574SOL     OW50614   8.018   6.190   2.032
12574SOL    HW250615   7.984   6.246   2.102
12574SOL    HW350616   8.089   6.140   2.072
12574SOL    MW450617   8.024   6.191   2.046
12575SOL     OW50618   7.934   5.731   2.525
12575SOL    HW250619   7.984   5.774   2.456
12575SOL    HW350620   7.849   5.775   2.525
12575SOL    MW450621   7.931   5.744   2.516
12576SOL     OW50622   7.693   6.793   3.385
12576SOL    HW250623   7.721   6.746   3.463
12576SOL    HW350624   7.614   6.748   3.356
12576SOL    MW450625   7.686   6.782   3.391
12577SOL     OW50626   7.856   6.516   2.565
12577SOL    HW250627   7.914   6.572   2.513
12577SOL    HW350628   7.900   6.431   2.567
12577SOL    MW450629   7.869   6.513   2.558
12578SOL     OW50630   7.563   7.116   2.737
12578SOL    HW250631   7.595   7.120   2.828
12578SOL    HW350632   7.468   7.124   2.745
12578SOL    MW450633   7.555   7.119   2.750
12579SOL     OW50634   7.518   6.242   2.284
12579SOL    HW250635   7.458   6.214   2.354
12579SOL    HW350636   7.592   6.182   2.290
12579SOL    MW450637   7.520   6.231   2.293
12580SOL     OW50638   7.944   5.981   3.173
12580SOL    HW250639   7.977   6.062   3.213
12580SOL    HW350640   7.917   6.007   3.085
12580SOL    MW450641   7.943   5.995   3.167
12581SOL     OW50642   7.898   5.948   2.909
12581SOL    HW250643   7.928   5.862   2.880
12581SOL    HW350644   7.803   5.941   2.912
12581SOL    MW450645   7.890   5.937   2.907
12582SOL     OW50646   7.962   6.878   3.089
12582SOL    HW250647   7.974   6.905   3.180
12582SOL    HW350648   7.943   6.959   3.042
12582SOL    MW450649   7.961   6.893   3.094
12583SOL     OW50650   7.734   6.590   2.182
12583SOL    HW250651   7.671   6.606   2.111
12583SOL    HW350652   7.681   6.553   2.253
12583SOL    MW450653   7.719   6.587   2.182
12584SOL     OW50654   7.888   7.333   2.762
12584SOL    HW250655   7.892   7.244   2.797
12584SOL    HW350656   7.914   7.324   2.671
12584SOL    MW450657   7.891   7.321   2.754
12585SOL     OW50658   7.594   7.086   3.256
12585SOL    HW250659   7.584   7.044   3.342
12585SOL    HW350660   7.515   7.139   3.246
12585SOL    MW450661   7.583   7.087   3.267
12586SOL     OW50662   7.520   7.391   3.711
12586SOL    HW250663   7.570   7.369   3.633
12586SOL    HW350664   7.528   7.486   3.719
12586SOL    MW450665   7.528   7.400   3.702
12587SOL     OW50666   8.281   7.149   2.715
12587SOL    HW250667   8.209   7.086   2.728
12587SOL    HW350668   8.242   7.234   2.733
12587SOL    MW450669   8.265   7.152   2.718
12588SOL     OW50670   7.686   5.687   2.295
12588SOL    HW250671   7.757   5.708   2.234
12588SOL    HW350672   7.640   5.615   2.253
12588SOL    MW450673   7.690   5.681   2.281
12589SOL     OW50674   7.517   6.154   3.438
12589SOL    HW250675   7.581   6.220   3.413
12589SOL    HW350676   7.436   6.181   3.395
12589SOL    MW450677   7.515   6.166   3.430
12590SOL     OW50678   7.702   6.380   3.379
12590SOL    HW250679   7.723   6.449   3.317
12590SOL    HW350680   7.782   6.327   3.384
12590SOL    MW450681   7.715   6.381   3.373
12591SOL     OW50682   7.687   6.395   3.646
12591SOL    HW250683   7.613   6.339   3.672
12591SOL    HW350684   7.682   6.398   3.551
12591SOL    MW450685   7.676   6.388   3.636
12592SOL     OW50686   7.853   5.682   3.096
12592SOL    HW250687   7.896   5.766   3.116
12592SOL    HW350688   7.926   5.620   3.089
12592SOL    MW450689   7.868   5.685   3.097
12593SOL     OW50690   7.653   6.080   2.563
12593SOL    HW250691   7.715   6.087   2.636
12593SOL    HW350692   7.653   5.987   2.540
12593SOL    MW450693   7.661   6.069   2.570
12594SOL     OW50694   8.139   5.811   3.152
12594SOL    HW250695   8.070   5.874   3.173
12594SOL    HW350696   8.166   5.775   3.237
12594SOL    MW450697   8.133   5.814   3.165
12595SOL     OW50698   7.522   6.652   2.021
12595SOL    HW250699   7.491   6.717   2.084
12595SOL    HW350700   7.471   6.574   2.040
12595SOL    MW450701   7.512   6.649   2.031
12596SOL     OW50702   7.834   6.629   3.558
12596SOL    HW250703   7.788   6.545   3.560
12596SOL    HW350704   7.891   6.623   3.482
12596SOL    MW450705   7.836   6.617   3.550
12597SOL     OW50706   7.777   6.296   2.842
12597SOL    HW250707   7.727   6.295   2.923
12597SOL    HW350708   7.797   6.388   2.826
12597SOL    MW450709   7.773   6.308   2.850
12598SOL     OW50710   7.699   5.964   3.583
12598SOL    HW250711   7.656   6.023   3.520
12598SOL    HW350712   7.767   6.019   3.623
12598SOL    MW450713   7.703   5.979   3.580
12599SOL     OW50714   7.598   5.604   3.006
12599SOL    HW250715   7.589   5.605   2.911
12599SOL    HW350716   7.692   5.616   3.021
12599SOL    MW450717   7.610   5.607   2.997
12600SOL     OW50718   7.811   5.731   2.052
12600SOL    HW250719   7.740   5.786   2.020
12600SOL    HW350720   7.853   5.697   1.973
12600SOL    MW450721   7.807   5.733   2.038
12601SOL     OW50722   7.567   5.830   1.901
12601SOL    HW250723   7.534   5.909   1.945
12601SOL    HW350724   7.622   5.863   1.830
12601SOL    MW450725   7.570   5.844   1.898
12602SOL     OW50726   7.601   7.087   2.090
12602SOL    HW250727   7.618   7.171   2.132
12602SOL    HW350728   7.636   7.096   2.002
12602SOL    MW450729   7.606   7.100   2.084
12603SOL     OW50730   7.756   6.111   4.163
12603SOL    HW250731   7.788   6.199   4.145
12603SOL    HW350732   7.744   6.109   4.258
12603SOL    MW450733   7.759   6.123   4.175
12604SOL     OW50734   7.834   6.524   5.064
12604SOL    HW250735   7.897   6.471   5.015
12604SOL    HW350736   7.815   6.598   5.007
12604SOL    MW450737   7.840   6.526   5.051
12605SOL     OW50738   8.019   6.297   4.416
12605SOL    HW250739   8.004   6.217   4.467
12605SOL    HW350740   8.101   6.332   4.450
12605SOL    MW450741   8.027   6.289   4.428
12606SOL     OW50742   7.907   6.537   4.697
12606SOL    HW250743   7.862   6.544   4.613
12606SOL    HW350744   7.887   6.620   4.741
12606SOL    MW450745   7.899   6.549   4.691
12607SOL     OW50746   7.604   7.383   4.572
12607SOL    HW250747   7.693   7.375   4.607
12607SOL    HW350748   7.568   7.295   4.577
12607SOL    MW450749   7.611   7.370   4.577
12608SOL     OW50750   7.868   6.910   4.607
12608SOL    HW250751   7.844   6.963   4.683
12608SOL    HW350752   7.924   6.968   4.555
12608SOL    MW450753   7.872   6.925   4.610
12609SOL     OW50754   7.838   7.206   5.202
12609SOL    HW250755   7.746   7.182   5.187
12609SOL    HW350756   7.882   7.123   5.219
12609SOL    MW450757   7.832   7.191   5.201
12610SOL     OW50758   7.918   5.889   4.102
12610SOL    HW250759   7.892   5.851   4.018
12610SOL    HW350760   7.855   5.959   4.118
12610SOL    MW450761   7.907   5.892   4.093
12611SOL     OW50762   7.753   6.850   4.139
12611SOL    HW250763   7.701   6.918   4.095
12611SOL    HW350764   7.750   6.776   4.079
12611SOL    MW450765   7.745   6.849   4.126
12612SOL     OW50766   7.636   7.204   4.866
12612SOL    HW250767   7.619   7.150   4.943
12612SOL    HW350768   7.624   7.294   4.896
12612SOL    MW450769   7.633   7.208   4.880
12613SOL     OW50770   7.943   7.306   4.372
12613SOL    HW250771   7.975   7.394   4.350
12613SOL    HW350772   7.896   7.278   4.294
12613SOL    MW450773   7.942   7.314   4.359
12614SOL     OW50774   7.688   5.825   4.395
12614SOL    HW250775   7.679   5.765   4.321
12614SOL    HW350776   7.621   5.796   4.458
12614SOL    MW450777   7.678   5.812   4.393
12615SOL     OW50778   7.635   5.998   4.758
12615SOL    HW250779   7.607   6.089   4.767
12615SOL    HW350780   7.572   5.959   4.697
12615SOL    MW450781   7.622   6.004   4.752
12616SOL     OW50782   7.619   6.273   4.928
12616SOL    HW250783   7.681   6.303   4.994
12616SOL    HW350784   7.553   6.342   4.922
12616SOL    MW450785   7.618   6.286   4.935
12617SOL     OW50786   7.714   7.382   5.380
12617SOL    HW250787   7.688   7.450   5.318
12617SOL    HW350788   7.762   7.319   5.328
12617SOL    MW450789   7.716   7.382   5.366
12618SOL     OW50790   7.766   6.701   4.887
12618SOL    HW250791   7.819   6.776   4.912
12618SOL    HW350792   7.685   6.739   4.853
12618SOL    MW450793   7.762   6.716   4.887
12619SOL     OW50794   7.621   6.470   4.293
12619SOL    HW250795   7.712   6.485   4.320
12619SOL    HW350796   7.624   6.391   4.239
12619SOL    MW450797   7.633   6.462   4.291
12620SOL     OW50798   7.857   6.178   5.547
12620SOL    HW250799   7.804   6.258   5.554
12620SOL    HW350800   7.927   6.190   5.612
12620SOL    MW450801   7.859   6.191   5.555
12621SOL     OW50802   7.629   7.082   4.332
12621SOL    HW250803   7.601   7.121   4.414
12621SOL    HW350804   7.649   6.991   4.354
12621SOL    MW450805   7.627   7.074   4.345
12622SOL     OW50806   8.152   6.544   4.507
12622SOL    HW250807   8.063   6.535   4.540
12622SOL    HW350808   8.156   6.634   4.475
12622SOL    MW450809   8.141   6.555   4.507
12623SOL     OW50810   7.922   5.814   5.319
12623SOL    HW250811   7.843   5.832   5.371
12623SOL    HW350812   7.917   5.876   5.246
12623SOL    MW450813   7.912   5.824   5.316
12624SOL     OW50814   7.826   7.226   4.161
12624SOL    HW250815   7.787   7.273   4.087
12624SOL    HW350816   7.760   7.161   4.186
12624SOL    MW450817   7.813   7.224   4.155
12625SOL     OW50818   7.633   6.813   4.452
12625SOL    HW250819   7.697   6.845   4.515
12625SOL    HW350820   7.682   6.749   4.400
12625SOL    MW450821   7.648   6.809   4.453
12626SOL     OW50822   7.709   7.131   5.574
12626SOL    HW250823   7.765   7.055   5.589
12626SOL    HW350824   7.658   7.109   5.496
12626SOL    MW450825   7.709   7.118   5.565
12627SOL     OW50826   7.911   7.126   4.824
12627SOL    HW250827   7.956   7.188   4.881
12627SOL    HW350828   7.818   7.145   4.837
12627SOL    MW450829   7.904   7.136   4.831
12628SOL     OW50830   8.128   6.899   4.722
12628SOL    HW250831   8.121   6.878   4.816
12628SOL    HW350832   8.046   6.867   4.685
12628SOL    MW450833   8.116   6.893   4.729
12629SOL     OW50834   7.574   6.991   5.385
12629SOL    HW250835   7.618   6.924   5.331
12629SOL    HW350836   7.489   6.953   5.405
12629SOL    MW450837   7.569   6.977   5.381
12630SOL     OW50838   8.015   6.906   4.186
12630SOL    HW250839   8.008   6.938   4.276
12630SOL    HW350840   7.925   6.890   4.158
12630SOL    MW450841   8.003   6.908   4.193
12631SOL     OW50842   8.018   6.190   3.900
12631SOL    HW250843   7.984   6.246   3.970
12631SOL    HW350844   8.089   6.140   3.940
12631SOL    MW450845   8.024   6.191   3.914
12632SOL     OW50846   7.934   5.731   4.393
12632SOL    HW250847   7.984   5.774   4.324
12632SOL    HW350848   7.849   5.775   4.393
12632SOL    MW450849   7.931   5.744   4.384
12633SOL     OW50850   7.693   6.793   5.253
12633SOL    HW250851   7.721   6.746   5.331
12633SOL    HW350852   7.614   6.748   5.224
12633SOL    MW450853   7.686   6.782   5.259
12634SOL     OW50854   7.856   6.516   4.433
12634SOL    HW250855   7.914   6.572   4.381
12634SOL    HW350856   7.900   6.431   4.435
12634SOL    MW450857   7.869   6.513   4.426
12635SOL     OW50858   7.563   7.116   4.605
12635SOL    HW250859   7.595   7.120   4.696
12635SOL    HW350860   7.468   7.124   4.613
12635SOL    MW450861   7.555   7.119   4.618
12636SOL     OW50862   7.518   6.242   4.152
12636SOL    HW250863   7.458   6.214   4.222
12636SOL    HW350864   7.592   6.182   4.158
12636SOL    MW450865   7.520   6.231   4.161
12637SOL     OW50866   7.944   5.981   5.041
12637SOL    HW250867   7.977   6.062   5.081
12637SOL    HW350868   7.917   6.007   4.953
12637SOL    MW450869   7.943   5.995   5.035
12638SOL     OW50870   7.898   5.948   4.777
12638SOL    HW250871   7.928   5.862   4.748
12638SOL    HW350872   7.803   5.941   4.780
12638SOL    MW450873   7.890   5.937   4.775
12639SOL     OW50874   7.962   6.878   4.957
12639SOL    HW250875   7.974   6.905   5.048
12639SOL    HW350876   7.943   6.959   4.910
12639SOL    MW450877   7.961   6.893   4.962
12640SOL     OW50878   7.734   6.590   4.050
12640SOL    HW250879   7.671   6.606   3.979
12640SOL    HW350880   7.681   6.553   4.121
12640SOL    MW450881   7.719   6.587   4.050
12641SOL     OW50882   7.888   7.333   4.630
12641SOL    HW250883   7.892   7.244   4.665
12641SOL    HW350884   7.914   7.324   4.539
12641SOL    MW450885   7.891   7.321   4.622
12642SOL     OW50886   7.594   7.086   5.124
12642SOL    HW250887   7.584   7.044   5.210
12642SOL    HW350888   7.515   7.139   5.114
12642SOL    MW450889   7.583   7.087   5.135
12643SOL     OW50890   7.520   7.391   5.579
12643SOL    HW250891   7.570   7.369   5.501
12643SOL    HW350892   7.528   7.486   5.587
12643SOL    MW450893   7.528   7.400   5.570
12644SOL     OW50894   8.281   7.149   4.583
12644SOL    HW250895   8.209   7.086   4.596
12644SOL    HW350896   8.242   7.234   4.601
12644SOL    MW450897   8.265   7.152   4.586
12645SOL     OW50898   7.686   5.687   4.163
12645SOL    HW250899   7.757   5.708   4.102
12645SOL    HW350900   7.640   5.615   4.121
12645SOL    MW450901   7.690   5.681   4.149
12646SOL     OW50902   7.517   6.154   5.306
12646SOL    HW250903   7.581   6.220   5.281
12646SOL    HW350904   7.436   6.181   5.263
12646SOL    MW450905   7.515   6.166   5.298
12647SOL     OW50906   7.702   6.380   5.247
12647SOL    HW250907   7.723   6.449   5.185
12647SOL    HW350908   7.782   6.327   5.252
12647SOL    MW450909   7.715   6.381   5.241
12648SOL     OW50910   7.687   6.395   5.514
12648SOL    HW250911   7.613   6.339   5.540
12648SOL    HW350912   7.682   6.398   5.419
12648SOL    MW450913   7.676   6.388   5.504
12649SOL     OW50914   7.853   5.682   4.964
12649SOL    HW250915   7.896   5.766   4.984
12649SOL    HW350916   7.926   5.620   4.957
12649SOL    MW450917   7.868   5.685   4.965
12650SOL     OW50918   7.653   6.080   4.431
12650SOL    HW250919   7.715   6.087   4.504
12650SOL    HW350920   7.653   5.987   4.408
12650SOL    MW450921   7.661   6.069   4.438
12651SOL     OW50922   8.139   5.811   5.020
12651SOL    HW250923   8.070   5.874   5.041
12651SOL    HW350924   8.166   5.775   5.105
12651SOL    MW450925   8.133   5.814   5.033
12652SOL     OW50926   7.522   6.652   3.889
12652SOL    HW250927   7.491   6.717   3.952
12652SOL    HW350928   7.471   6.574   3.908
12652SOL    MW450929   7.512   6.649   3.899
12653SOL     OW50930   7.834   6.629   5.426
12653SOL    HW250931   7.788   6.545   5.428
12653SOL    HW350932   7.891   6.623   5.350
12653SOL    MW450933   7.836   6.617   5.418
12654SOL     OW50934   7.777   6.296   4.710
12654SOL    HW250935   7.727   6.295   4.791
12654SOL    HW350936   7.797   6.388   4.694
12654SOL    MW450937   7.773   6.308   4.718
12655SOL     OW50938   7.699   5.964   5.451
12655SOL    HW250939   7.656   6.023   5.388
12655SOL    HW350940   7.767   6.019   5.491
12655SOL    MW450941   7.703   5.979   5.448
12656SOL     OW50942   7.598   5.604   4.874
12656SOL    HW250943   7.589   5.605   4.779
12656SOL    HW350944   7.692   5.616   4.889
12656SOL    MW450945   7.610   5.607   4.865
12657SOL     OW50946   7.811   5.731   3.920
12657SOL    HW250947   7.740   5.786   3.888
12657SOL    HW350948   7.853   5.697   3.841
12657SOL    MW450949   7.807   5.733   3.906
12658SOL     OW50950   7.567   5.830   3.769
12658SOL    HW250951   7.534   5.909   3.813
12658SOL    HW350952   7.622   5.863   3.698
12658SOL    MW450953   7.570   5.844   3.766
12659SOL     OW50954   7.601   7.087   3.958
12659SOL    HW250955   7.618   7.171   4.000
12659SOL    HW350956   7.636   7.096   3.870
12659SOL    MW450957   7.606   7.100   3.952
12660SOL     OW50958   7.756   6.111   6.032
12660SOL    HW250959   7.788   6.199   6.014
12660SOL    HW350960   7.744   6.109   6.127
12660SOL    MW450961   7.759   6.123   6.044
12661SOL     OW50962   8.019   6.297   6.285
12661SOL    HW250963   8.004   6.217   6.336
12661SOL    HW350964   8.101   6.332   6.319
12661SOL    MW450965   8.027   6.289   6.297
12662SOL     OW50966   7.604   7.383   6.441
12662SOL    HW250967   7.693   7.375   6.476
12662SOL    HW350968   7.568   7.295   6.446
12662SOL    MW450969   7.611   7.370   6.446
12663SOL     OW50970   7.918   5.889   5.971
12663SOL    HW250971   7.892   5.851   5.887
12663SOL    HW350972   7.855   5.959   5.987
12663SOL    MW450973   7.907   5.892   5.962
12664SOL     OW50974   7.753   6.850   6.008
12664SOL    HW250975   7.701   6.918   5.964
12664SOL    HW350976   7.750   6.776   5.948
12664SOL    MW450977   7.745   6.849   5.995
12665SOL     OW50978   7.636   7.204   6.735
12665SOL    HW250979   7.619   7.150   6.812
12665SOL    HW350980   7.624   7.294   6.765
12665SOL    MW450981   7.633   7.208   6.749
12666SOL     OW50982   7.943   7.306   6.241
12666SOL    HW250983   7.975   7.394   6.219
12666SOL    HW350984   7.896   7.278   6.163
12666SOL    MW450985   7.942   7.314   6.228
12667SOL     OW50986   7.688   5.825   6.264
12667SOL    HW250987   7.679   5.765   6.190
12667SOL    HW350988   7.621   5.796   6.327
12667SOL    MW450989   7.678   5.812   6.262
12668SOL     OW50990   7.635   5.998   6.627
12668SOL    HW250991   7.607   6.089   6.636
12668SOL    HW350992   7.572   5.959   6.566
12668SOL    MW450993   7.622   6.004   6.621
12669SOL     OW50994   7.766   6.701   6.756
12669SOL    HW250995   7.819   6.776   6.781
12669SOL    HW350996   7.685   6.739   6.722
12669SOL    MW450997   7.762   6.716   6.756
12670SOL     OW50998   7.621   6.470   6.162
12670SOL    HW250999   7.712   6.485   6.189
12670SOL    HW351000   7.624   6.391   6.108
12670SOL    MW451001   7.633   6.462   6.160
12671SOL     OW51002   7.629   7.082   6.201
12671SOL    HW251003   7.601   7.121   6.283
12671SOL    HW351004   7.649   6.991   6.223
12671SOL    MW451005   7.627   7.074   6.214
12672SOL     OW51006   8.152   6.544   6.376
12672SOL    HW251007   8.063   6.535   6.409
12672SOL    HW351008   8.156   6.634   6.344
12672SOL    MW451009   8.141   6.555   6.376
12673SOL     OW51010   7.826   7.226   6.030
12673SOL    HW251011   7.787   7.273   5.956
12673SOL    HW351012   7.760   7.161   6.055
12673SOL    MW451013   7.813   7.224   6.024
12674SOL     OW51014   7.633   6.813   6.321
12674SOL    HW251015   7.697   6.845   6.384
12674SOL    HW351016   7.682   6.749   6.269
12674SOL    MW451017   7.648   6.809   6.322
12675SOL     OW51018   7.911   7.126   6.693
12675SOL    HW251019   7.956   7.188   6.750
12675SOL    HW351020   7.818   7.145   6.706
12675SOL    MW451021   7.904   7.136   6.700
12676SOL     OW51022   8.128   6.899   6.591
12676SOL    HW251023   8.121   6.878   6.685
12676SOL    HW351024   8.046   6.867   6.554
12676SOL    MW451025   8.116   6.893   6.598
12677SOL     OW51026   8.015   6.906   6.055
12677SOL    HW251027   8.008   6.938   6.145
12677SOL    HW351028   7.925   6.890   6.027
12677SOL    MW451029   8.003   6.908   6.062
12678SOL     OW51030   8.018   6.190   5.769
12678SOL    HW251031   7.984   6.246   5.839
12678SOL    HW351032   8.089   6.140   5.809
12678SOL    MW451033   8.024   6.191   5.783
12679SOL     OW51034   7.934   5.731   6.262
12679SOL    HW251035   7.984   5.774   6.193
12679SOL    HW351036   7.849   5.775   6.262
12679SOL    MW451037   7.931   5.744   6.253
12680SOL     OW51038   7.856   6.516   6.302
12680SOL    HW251039   7.914   6.572   6.250
12680SOL    HW351040   7.900   6.431   6.304
12680SOL    MW451041   7.869   6.513   6.295
12681SOL     OW51042   7.563   7.116   6.474
12681SOL    HW251043   7.595   7.120   6.565
12681SOL    HW351044   7.468   7.124   6.482
12681SOL    MW451045   7.555   7.119   6.487
12682SOL     OW51046   7.518   6.242   6.021
12682SOL    HW251047   7.458   6.214   6.091
12682SOL    HW351048   7.592   6.182   6.027
12682SOL    MW451049   7.520   6.231   6.030
12683SOL     OW51050   7.898   5.948   6.646
12683SOL    HW251051   7.928   5.862   6.617
12683SOL    HW351052   7.803   5.941   6.649
12683SOL    MW451053   7.890   5.937   6.644
12684SOL     OW51054   7.734   6.590   5.919
12684SOL    HW251055   7.671   6.606   5.848
12684SOL    HW351056   7.681   6.553   5.990
12684SOL    MW451057   7.719   6.587   5.919
12685SOL     OW51058   7.888   7.333   6.499
12685SOL    HW251059   7.892   7.244   6.534
12685SOL    HW351060   7.914   7.324   6.408
12685SOL    MW451061   7.891   7.321   6.491
12686SOL     OW51062   8.281   7.149   6.452
12686SOL    HW251063   8.209   7.086   6.465
12686SOL    HW351064   8.242   7.234   6.470
12686SOL    MW451065   8.265   7.152   6.455
12687SOL     OW51066   7.686   5.687   6.032
12687SOL    HW251067   7.757   5.708   5.971
12687SOL    HW351068   7.640   5.615   5.990
12687SOL    MW451069   7.690   5.681   6.018
12688SOL     OW51070   7.653   6.080   6.300
12688SOL    HW251071   7.715   6.087   6.373
12688SOL    HW351072   7.653   5.987   6.277
12688SOL    MW451073   7.661   6.069   6.307
12689SOL     OW51074   7.522   6.652   5.758
12689SOL    HW251075   7.491   6.717   5.821
12689SOL    HW351076   7.471   6.574   5.777
12689SOL    MW451077   7.512   6.649   5.768
12690SOL     OW51078   7.811   5.731   5.789
12690SOL    HW251079   7.740   5.786   5.757
12690SOL    HW351080   7.853   5.697   5.710
12690SOL    MW451081   7.807   5.733   5.775
12691SOL     OW51082   7.567   5.830   5.638
12691SOL    HW251083   7.534   5.909   5.682
12691SOL    HW351084   7.622   5.863   5.567
12691SOL    MW451085   7.570   5.844   5.635
12692SOL     OW51086   7.601   7.087   5.827
12692SOL    HW251087   7.618   7.171   5.869
12692SOL    HW351088   7.636   7.096   5.739
12692SOL    MW451089   7.606   7.100   5.821
12693SOL     OW51090   8.155   7.761   0.514
12693SOL    HW251091   8.213   7.837   0.516
12693SOL    HW351092   8.090   7.782   0.447
12693SOL    MW451093   8.154   7.773   0.505
12694SOL     OW51094   8.155   7.761   2.382
12694SOL    HW251095   8.213   7.837   2.384
12694SOL    HW351096   8.090   7.782   2.315
12694SOL    MW451097   8.154   7.773   2.373
12695SOL     OW51098   7.567   7.725   1.901
12695SOL    HW251099   7.534   7.804   1.945
12695SOL    HW351100   7.622   7.758   1.830
12695SOL    MW451101   7.570   7.739   1.898
12696SOL     OW51102   8.155   7.761   4.250
12696SOL    HW251103   8.213   7.837   4.252
12696SOL    HW351104   8.090   7.782   4.183
12696SOL    MW451105   8.154   7.773   4.241
12697SOL     OW51106   7.567   7.725   3.769
12697SOL    HW251107   7.534   7.804   3.813
12697SOL    HW351108   7.622   7.758   3.698
12697SOL    MW451109   7.570   7.739   3.766
12698SOL     OW51110   8.155   7.761   6.119
12698SOL    HW251111   8.213   7.837   6.121
12698SOL    HW351112   8.090   7.782   6.052
12698SOL    MW451113   8.154   7.773   6.110
12699SOL     OW51114   7.567   7.725   5.638
12699SOL    HW251115   7.534   7.804   5.682
12699SOL    HW351116   7.622   7.758   5.567
12699SOL    MW451117   7.570   7.739   5.635
12700NA      NA51118   1.375   0.949   3.731
12701NA      NA51119   1.654   1.589   3.655
12702NA      NA51120   1.128   4.681   2.162
12703NA      NA51121   0.353   3.813   3.096
12704NA      NA51122   0.594   5.467   4.064
12705NA      NA51123   1.466   4.534   6.350
12706NA      NA51124   1.794   6.270   0.945
12707NA      NA51125   1.227   6.157   5.468
12708NA      NA51126   3.623   1.456   0.527
12709NA      NA51127   2.873   1.206   3.005
12710NA      NA51128   2.674   1.000   4.875
12711NA      NA51129   2.841   0.053   4.246
12712NA      NA51130   2.846   1.475   5.630
12713NA      NA51131   3.243   3.666   0.651
12714NA      NA51132   2.468   3.613   4.942
12715NA      NA51133   2.398   4.758   2.354
12716NA      NA51134   2.145   4.427   4.710
12717NA      NA51135   4.312   2.929   3.423
12718NA      NA51136   5.592   2.754   4.963
12719NA      NA51137   4.002   4.832   1.151
12720NA      NA51138   4.837   4.128   0.495
12721NA      NA51139   5.992   0.031   1.789
12722NA      NA51140   6.312   0.334   3.589
12723NA      NA51141   6.347   1.188   4.425
12724NA      NA51142   6.848   2.601   2.071
12725NA      NA51143   6.832   2.420   5.468
12726NA      NA51144   7.433   4.387   3.680
12727NA      NA51145   5.792   4.526   3.646
12728NA      NA51146   6.676   4.883   6.445
12729NA      NA51147   5.791   5.687   0.427
12730NA      NA51148   6.535   6.554   2.549
12731NA      NA51149   6.832   5.677   2.998
12732NA      NA51150   5.622   6.154   5.306
12733NA      NA51151   2.575   7.834   5.457
12734NA      NA51152   7.635   5.998   1.022
12735CL      CL51153   1.646   1.725   0.628
12736CL      CL51154   0.418   0.284   0.366
12737CL      CL51155   1.645   2.712   3.693
12738CL      CL51156   0.443   3.569   4.372
12739CL      CL51157   0.946   1.884   4.834
12740CL      CL51158   0.927   4.266   3.639
12741CL      CL51159   0.394   4.480   2.274
12742CL      CL51160   1.435   4.359   4.756
12743CL      CL51161   0.067   3.961   5.638
12744CL      CL51162   2.703   0.736   1.179
12745CL      CL51163   2.714   0.564   6.426
12746CL      CL51164   3.237   3.038   3.941
12747CL      CL51165   2.055   6.395   1.778
12748CL      CL51166   2.732   6.572   3.931
12749CL      CL51167   2.398   6.627   6.091
12750CL      CL51168   3.872   1.599   1.130
12751CL      CL51169   4.453   0.718   1.831
12752CL      CL51170   4.867   1.106   3.438
12753CL      CL51171   3.872   3.467   4.866
12754CL      CL51172   4.251   3.169   6.055
12755CL      CL51173   5.564   3.964   3.129
12756CL      CL51174   4.657   5.047   6.003
12757CL      CL51175   3.989   6.850   0.403
12758CL      CL51176   4.865   7.175   2.193
12759CL      CL51177   5.586   6.086   3.892
12760CL      CL51178   4.104   6.910   6.476
12761CL      CL51179   7.000   0.719   5.314
12762CL      CL51180   7.191   1.849   5.586
12763CL      CL51181   6.477   2.604   0.411
12764CL      CL51182   7.172   3.461   5.275
12765CL      CL51183   5.703   1.867   4.874
12766CL      CL51184   5.672   3.961   1.901
12767CL      CL51185   6.916   5.398   3.839
12768CL      CL51186   6.630   7.215   5.365
12769CL      CL51187   7.255   5.761   4.775
12770CL      CL51188   5.741   7.204   6.735
12771CL      CL51189   7.360   7.061   6.132
12772CL      CL51190   0.541   7.621   2.800
12773CL      CL51191   7.636   3.467   2.998
12774CL      CL51192   7.601   3.350   3.958
   7.98234   7.52582   6.51756   0.00000   0.00000   2.66078   0.00000  -2.66078   3.76291
