Gravel Rubs Often Many Awfully Cauterized Sores
51417
    1ASP      N    1   5.236   5.720   1.393
    1ASP     H1    2   5.279   5.717   1.483
    1ASP     H2    3   5.237   5.629   1.352
    1ASP     H3    4   5.286   5.784   1.335
    1ASP     CA    5   5.096   5.766   1.407
    1ASP     HA    6   5.105   5.858   1.445
    1ASP     CB    7   5.030   5.771   1.270
    1ASP    HB1    8   4.985   5.684   1.250
    1ASP    HB2    9   5.099   5.789   1.199
    1ASP     CG   10   4.929   5.884   1.273
    1ASP    OD1   11   4.977   5.996   1.298
    1ASP    OD2   12   4.808   5.852   1.266
    1ASP      C   13   5.012   5.690   1.511
    1ASP      O   14   4.925   5.748   1.575
    2SER      N   15   5.037   5.561   1.539
    2SER      H   16   5.119   5.519   1.500
    2SER     CA   17   4.948   5.479   1.625
    2SER     HA   18   4.860   5.528   1.616
    2SER     CB   19   4.941   5.336   1.570
    2SER    HB1   20   4.871   5.283   1.618
    2SER    HB2   21   5.030   5.290   1.578
    2SER     OG   22   4.907   5.342   1.433
    2SER     HG   23   4.902   5.249   1.396
    2SER      C   24   4.977   5.479   1.776
    2SER      O   25   4.909   5.408   1.850
    3HIS      N   26   5.074   5.556   1.826
    3HIS      H   27   5.126   5.615   1.764
    3HIS     CA   28   5.107   5.557   1.970
    3HIS     HA   29   5.090   5.464   2.001
    3HIS     CB   30   5.256   5.590   1.989
    3HIS    HB1   31   5.269   5.688   1.979
    3HIS    HB2   32   5.309   5.542   1.920
    3HIS     CG   33   5.307   5.549   2.125
    3HIS    ND1   34   5.305   5.421   2.178
    3HIS    CE1   35   5.359   5.425   2.301
    3HIS    HE1   36   5.370   5.346   2.361
    3HIS    NE2   37   5.396   5.550   2.330
    3HIS    HE2   38   5.438   5.581   2.416
    3HIS    CD2   39   5.365   5.629   2.220
    3HIS    HD2   40   5.382   5.727   2.211
    3HIS      C   41   5.014   5.648   2.053
    3HIS      O   42   4.981   5.615   2.167
    4ALA      N   43   4.959   5.755   1.993
    4ALA      H   44   4.982   5.772   1.897
    4ALA     CA   45   4.869   5.849   2.061
    4ALA     HA   46   4.912   5.869   2.149
    4ALA     CB   47   4.859   5.975   1.974
    4ALA    HB1   48   4.798   6.041   2.018
    4ALA    HB2   49   4.950   6.015   1.963
    4ALA    HB3   50   4.822   5.950   1.884
    4ALA      C   51   4.730   5.790   2.092
    4ALA      O   52   4.668   5.824   2.192
    5LYS      N   53   4.683   5.694   2.011
    5LYS      H   54   4.741   5.664   1.935
    5LYS     CA   55   4.551   5.630   2.029
    5LYS     HA   56   4.488   5.706   2.044
    5LYS     CB   57   4.513   5.553   1.901
    5LYS    HB1   58   4.431   5.498   1.919
    5LYS    HB2   59   4.589   5.492   1.876
    5LYS     CG   60   4.484   5.648   1.784
    5LYS    HG1   61   4.568   5.700   1.764
    5LYS    HG2   62   4.412   5.711   1.812
    5LYS     CD   63   4.440   5.574   1.657
    5LYS    HD1   64   4.357   5.522   1.676
    5LYS    HD2   65   4.513   5.512   1.628
    5LYS     CE   66   4.413   5.677   1.546
    5LYS    HE1   67   4.494   5.734   1.533
    5LYS    HE2   68   4.336   5.736   1.573
    5LYS     NZ   69   4.379   5.615   1.416
    5LYS    HZ1   70   4.362   5.686   1.348
    5LYS    HZ2   71   4.455   5.557   1.386
    5LYS    HZ3   72   4.297   5.559   1.426
    5LYS      C   73   4.543   5.540   2.152
    5LYS      O   74   4.437   5.526   2.212
    6ARG      N   75   4.657   5.485   2.196
    6ARG      H   76   4.742   5.504   2.147
    6ARG     CA   77   4.662   5.399   2.315
    6ARG     HA   78   4.582   5.339   2.312
    6ARG     CB   79   4.789   5.312   2.308
    6ARG    HB1   80   4.863   5.361   2.355
    6ARG    HB2   81   4.813   5.298   2.212
    6ARG     CG   82   4.772   5.174   2.375
    6ARG    HG1   83   4.685   5.134   2.346
    6ARG    HG2   84   4.772   5.185   2.474
    6ARG     CD   85   4.887   5.081   2.334
    6ARG    HD1   86   4.975   5.128   2.349
    6ARG    HD2   87   4.879   5.057   2.238
    6ARG     NE   88   4.889   4.956   2.413
    6ARG     HE   89   4.853   4.962   2.506
    6ARG     CZ   90   4.931   4.837   2.373
    6ARG    NH1   91   4.971   4.813   2.251
    6ARG   HH11   92   4.971   4.887   2.184
    6ARG   HH12   93   5.002   4.722   2.226
    6ARG    NH2   94   4.934   4.737   2.457
    6ARG   HH21   95   4.905   4.751   2.552
    6ARG   HH22   96   4.966   4.648   2.427
    6ARG      C   97   4.646   5.479   2.444
    6ARG      O   98   4.598   5.423   2.542
    7HIS      N   99   4.675   5.610   2.443
    7HIS      H  100   4.701   5.651   2.355
    7HIS     CA  101   4.672   5.696   2.561
    7HIS     HA  102   4.701   5.636   2.635
    7HIS     CB  103   4.773   5.812   2.544
    7HIS    HB1  104   4.723   5.898   2.546
    7HIS    HB2  105   4.818   5.802   2.455
    7HIS     CG  106   4.879   5.817   2.651
    7HIS    ND1  107   4.895   5.917   2.744
    7HIS    CE1  108   5.009   5.893   2.812
    7HIS    HE1  109   5.048   5.953   2.882
    7HIS    NE2  110   5.061   5.776   2.773
    7HIS    HE2  111   5.140   5.729   2.814
    7HIS    CD2  112   4.985   5.731   2.665
    7HIS    HD2  113   5.004   5.651   2.609
    7HIS      C  114   4.532   5.744   2.603
    7HIS      O  115   4.505   5.761   2.722
    8HIS      N  116   4.441   5.760   2.507
    8HIS      H  117   4.467   5.740   2.413
    8HIS     CA  118   4.304   5.804   2.535
    8HIS     HA  119   4.311   5.866   2.612
    8HIS     CB  120   4.249   5.877   2.412
    8HIS    HB1  121   4.149   5.880   2.417
    8HIS    HB2  122   4.277   5.828   2.329
    8HIS     CG  123   4.301   6.018   2.404
    8HIS    ND1  124   4.254   6.125   2.476
    8HIS    CE1  125   4.327   6.233   2.444
    8HIS    HE1  126   4.313   6.325   2.481
    8HIS    NE2  127   4.421   6.200   2.355
    8HIS    HE2  128   4.490   6.261   2.315
    8HIS    CD2  129   4.405   6.064   2.327
    8HIS    HD2  130   4.460   6.010   2.263
    8HIS      C  131   4.211   5.691   2.582
    8HIS      O  132   4.115   5.716   2.655
    9GLY      N  133   4.240   5.565   2.546
    9GLY      H  134   4.321   5.549   2.490
    9GLY     CA  135   4.160   5.449   2.586
    9GLY    HA1  136   4.185   5.373   2.526
    9GLY    HA2  137   4.064   5.473   2.570
    9GLY      C  138   4.178   5.408   2.732
    9GLY      O  139   4.081   5.375   2.800
   10TYR      N  140   4.301   5.412   2.785
   10TYR      H  141   4.377   5.448   2.730
   10TYR     CA  142   4.329   5.366   2.922
   10TYR     HA  143   4.266   5.289   2.934
   10TYR     CB  144   4.474   5.317   2.934
   10TYR    HB1  145   4.495   5.260   2.855
   10TYR    HB2  146   4.481   5.261   3.017
   10TYR     CG  147   4.578   5.426   2.943
   10TYR    CD1  148   4.670   5.445   2.838
   10TYR    HD1  149   4.666   5.386   2.757
   10TYR    CE1  150   4.768   5.545   2.849
   10TYR    HE1  151   4.837   5.555   2.777
   10TYR     CZ  152   4.768   5.632   2.959
   10TYR     OH  153   4.855   5.734   2.971
   10TYR     HH  154   4.837   5.783   3.057
   10TYR    CE2  155   4.682   5.607   3.067
   10TYR    HE2  156   4.687   5.664   3.149
   10TYR    CD2  157   4.590   5.503   3.060
   10TYR    HD2  158   4.532   5.482   3.139
   10TYR      C  159   4.292   5.470   3.029
   10TYR      O  160   4.252   5.432   3.139
   11LYS      N  161   4.303   5.601   2.999
   11LYS      H  162   4.332   5.627   2.907
   11LYS     CA  163   4.272   5.708   3.097
   11LYS     HA  164   4.322   5.680   3.179
   11LYS     CB  165   4.323   5.844   3.047
   11LYS    HB1  166   4.277   5.917   3.098
   11LYS    HB2  167   4.302   5.853   2.949
   11LYS     CG  168   4.475   5.860   3.066
   11LYS    HG1  169   4.522   5.803   2.998
   11LYS    HG2  170   4.499   5.828   3.158
   11LYS     CD  171   4.521   6.005   3.051
   11LYS    HD1  172   4.462   6.065   3.105
   11LYS    HD2  173   4.516   6.031   2.954
   11LYS     CE  174   4.666   6.019   3.100
   11LYS    HE1  175   4.727   5.967   3.040
   11LYS    HE2  176   4.673   5.984   3.193
   11LYS     NZ  177   4.711   6.161   3.099
   11LYS    HZ1  178   4.806   6.166   3.132
   11LYS    HZ2  179   4.706   6.197   3.007
   11LYS    HZ3  180   4.653   6.214   3.160
   11LYS      C  181   4.124   5.717   3.131
   11LYS      O  182   4.090   5.754   3.244
   12ARG      N  183   4.037   5.678   3.037
   12ARG      H  184   4.074   5.650   2.949
   12ARG     CA  185   3.891   5.674   3.055
   12ARG     HA  186   3.865   5.764   3.090
   12ARG     CB  187   3.825   5.647   2.919
   12ARG    HB1  188   3.763   5.569   2.929
   12ARG    HB2  189   3.896   5.625   2.852
   12ARG     CG  190   3.744   5.768   2.869
   12ARG    HG1  191   3.804   5.848   2.869
   12ARG    HG2  192   3.667   5.783   2.931
   12ARG     CD  193   3.690   5.746   2.727
   12ARG    HD1  194   3.765   5.750   2.661
   12ARG    HD2  195   3.623   5.816   2.705
   12ARG     NE  196   3.624   5.614   2.714
   12ARG     HE  197   3.673   5.537   2.756
   12ARG     CZ  198   3.511   5.584   2.654
   12ARG    NH1  199   3.439   5.673   2.590
   12ARG   HH11  200   3.470   5.768   2.586
   12ARG   HH12  201   3.354   5.646   2.546
   12ARG    NH2  202   3.466   5.462   2.658
   12ARG   HH21  203   3.517   5.391   2.706
   12ARG   HH22  204   3.379   5.439   2.612
   12ARG      C  205   3.848   5.572   3.160
   12ARG      O  206   3.768   5.604   3.247
   13LYS      N  207   3.908   5.452   3.159
   13LYS      H  208   3.979   5.436   3.090
   13LYS     CA  209   3.876   5.345   3.254
   13LYS     HA  210   3.777   5.337   3.254
   13LYS     CB  211   3.941   5.214   3.204
   13LYS    HB1  212   4.040   5.219   3.218
   13LYS    HB2  213   3.921   5.203   3.107
   13LYS     CG  214   3.887   5.091   3.280
   13LYS    HG1  215   3.787   5.091   3.275
   13LYS    HG2  216   3.915   5.097   3.375
   13LYS     CD  217   3.939   4.960   3.220
   13LYS    HD1  218   4.039   4.956   3.230
   13LYS    HD2  219   3.915   4.955   3.123
   13LYS     CE  220   3.876   4.842   3.295
   13LYS    HE1  221   3.776   4.847   3.287
   13LYS    HE2  222   3.902   4.846   3.392
   13LYS     NZ  223   3.920   4.711   3.242
   13LYS    HZ1  224   3.877   4.637   3.294
   13LYS    HZ2  225   3.895   4.703   3.145
   13LYS    HZ3  226   4.020   4.703   3.250
   13LYS      C  227   3.916   5.378   3.398
   13LYS      O  228   3.854   5.330   3.492
   14PHE      N  229   4.019   5.462   3.417
   14PHE      H  230   4.068   5.496   3.336
   14PHE     CA  231   4.064   5.504   3.550
   14PHE     HA  232   4.056   5.423   3.608
   14PHE     CB  233   4.211   5.548   3.543
   14PHE    HB1  234   4.217   5.631   3.488
   14PHE    HB2  235   4.264   5.475   3.500
   14PHE     CG  236   4.271   5.578   3.679
   14PHE    CD1  237   4.286   5.711   3.722
   14PHE    HD1  238   4.259   5.786   3.662
   14PHE    CE1  239   4.340   5.738   3.850
   14PHE    HE1  240   4.351   5.833   3.880
   14PHE     CZ  241   4.377   5.632   3.934
   14PHE     HZ  242   4.415   5.652   4.025
   14PHE    CE2  243   4.362   5.499   3.892
   14PHE    HE2  244   4.388   5.424   3.952
   14PHE    CD2  245   4.308   5.472   3.765
   14PHE    HD2  246   4.297   5.377   3.735
   14PHE      C  247   3.973   5.611   3.611
   14PHE      O  248   3.941   5.602   3.728
   15HIS      N  249   3.924   5.708   3.532
   15HIS      H  250   3.950   5.709   3.436
   15HIS     CA  251   3.834   5.813   3.583
   15HIS     HA  252   3.873   5.840   3.671
   15HIS     CB  253   3.833   5.932   3.485
   15HIS    HB1  254   3.756   5.992   3.508
   15HIS    HB2  255   3.821   5.897   3.392
   15HIS     CG  256   3.960   6.012   3.491
   15HIS    ND1  257   4.079   5.980   3.430
   15HIS    HD1  258   4.096   5.901   3.371
   15HIS    CE1  259   4.169   6.073   3.464
   15HIS    HE1  260   4.265   6.074   3.435
   15HIS    NE2  261   4.113   6.166   3.543
   15HIS    CD2  262   3.980   6.128   3.561
   15HIS    HD2  263   3.912   6.176   3.616
   15HIS      C  264   3.692   5.762   3.610
   15HIS      O  265   3.625   5.811   3.701
   16GLU      N  266   3.647   5.660   3.538
   16GLU      H  267   3.707   5.621   3.468
   16GLU     CA  268   3.514   5.600   3.556
   16GLU     HA  269   3.448   5.676   3.558
   16GLU     CB  270   3.488   5.508   3.436
   16GLU    HB1  271   3.540   5.423   3.451
   16GLU    HB2  272   3.522   5.553   3.354
   16GLU     CG  273   3.342   5.471   3.414
   16GLU    HG1  274   3.285   5.553   3.416
   16GLU    HG2  275   3.311   5.408   3.486
   16GLU     CD  276   3.328   5.402   3.278
   16GLU    OE1  277   3.338   5.278   3.273
   16GLU    OE2  278   3.319   5.475   3.176
   16GLU      C  279   3.498   5.528   3.692
   16GLU      O  280   3.388   5.518   3.745
   17LYS      N  281   3.608   5.485   3.754
   17LYS      H  282   3.697   5.504   3.712
   17LYS     CA  283   3.606   5.410   3.881
   17LYS     HA  284   3.528   5.349   3.874
   17LYS     CB  285   3.737   5.331   3.894
   17LYS    HB1  286   3.812   5.394   3.917
   17LYS    HB2  287   3.757   5.286   3.807
   17LYS     CG  288   3.730   5.222   4.003
   17LYS    HG1  289   3.649   5.165   3.986
   17LYS    HG2  290   3.720   5.267   4.092
   17LYS     CD  291   3.853   5.132   4.006
   17LYS    HD1  292   3.935   5.187   4.023
   17LYS    HD2  293   3.863   5.085   3.919
   17LYS     CE  294   3.835   5.030   4.120
   17LYS    HE1  295   3.756   4.972   4.099
   17LYS    HE2  296   3.819   5.078   4.206
   17LYS     NZ  297   3.954   4.943   4.137
   17LYS    HZ1  298   3.937   4.878   4.212
   17LYS    HZ2  299   3.971   4.892   4.053
   17LYS    HZ3  300   4.033   4.999   4.159
   17LYS      C  301   3.576   5.498   4.005
   17LYS      O  302   3.548   5.444   4.111
   18HIS      N  303   3.581   5.631   3.994
   18HIS      H  304   3.588   5.671   3.902
   18HIS     CA  305   3.575   5.721   4.110
   18HIS     HA  306   3.581   5.661   4.189
   18HIS     CB  307   3.696   5.816   4.106
   18HIS    HB1  308   3.683   5.889   4.173
   18HIS    HB2  309   3.704   5.855   4.014
   18HIS     CG  310   3.825   5.744   4.139
   18HIS    ND1  311   3.875   5.722   4.265
   18HIS    CE1  312   3.988   5.651   4.253
   18HIS    HE1  313   4.046   5.623   4.330
   18HIS    NE2  314   4.013   5.624   4.125
   18HIS    HE2  315   4.090   5.571   4.088
   18HIS    CD2  316   3.910   5.684   4.051
   18HIS    HD2  317   3.901   5.683   3.952
   18HIS      C  318   3.441   5.794   4.129
   18HIS      O  319   3.430   5.877   4.219
   19HIS      N  320   3.337   5.762   4.051
   19HIS      H  321   3.347   5.685   3.987
   19HIS     CA  322   3.209   5.834   4.055
   19HIS     HA  323   3.228   5.911   4.116
   19HIS     CB  324   3.175   5.883   3.913
   19HIS    HB1  325   3.079   5.913   3.911
   19HIS    HB2  326   3.188   5.808   3.848
   19HIS     CG  327   3.262   5.999   3.871
   19HIS    ND1  328   3.264   6.123   3.930
   19HIS    CE1  329   3.355   6.198   3.866
   19HIS    HE1  330   3.377   6.293   3.889
   19HIS    NE2  331   3.412   6.128   3.767
   19HIS    HE2  332   3.483   6.160   3.704
   19HIS    CD2  333   3.354   6.001   3.770
   19HIS    HD2  334   3.375   5.925   3.708
   19HIS      C  335   3.092   5.761   4.124
   19HIS      O  336   2.983   5.817   4.129
   20SER      N  337   3.111   5.642   4.183
   20SER      H  338   3.205   5.608   4.194
   20SER     CA  339   2.999   5.560   4.231
   20SER     HA  340   2.920   5.619   4.215
   20SER     CB  341   2.990   5.431   4.148
   20SER    HB1  342   2.986   5.452   4.051
   20SER    HB2  343   2.910   5.377   4.175
   20SER     OG  344   3.104   5.352   4.170
   20SER     HG  345   3.098   5.268   4.116
   20SER      C  346   2.993   5.533   4.382
   20SER      O  347   2.920   5.443   4.423
   21HIS      N  348   3.064   5.607   4.468
   21HIS      H  349   3.125   5.679   4.432
   21HIS     CA  350   3.055   5.585   4.614
   21HIS     HA  351   2.963   5.551   4.627
   21HIS     CB  352   3.155   5.478   4.659
   21HIS    HB1  353   3.243   5.521   4.682
   21HIS    HB2  354   3.169   5.412   4.584
   21HIS     CG  355   3.106   5.403   4.780
   21HIS    ND1  356   2.998   5.317   4.782
   21HIS    CE1  357   2.984   5.270   4.907
   21HIS    HE1  358   2.913   5.206   4.937
   21HIS    NE2  359   3.080   5.320   4.986
   21HIS    HE2  360   3.095   5.300   5.083
   21HIS    CD2  361   3.157   5.406   4.907
   21HIS    HD2  362   3.235   5.461   4.937
   21HIS      C  363   3.062   5.713   4.698
   21HIS      O  364   3.141   5.726   4.791
   22ARG      N  365   2.978   5.812   4.664
   22ARG      H  366   2.937   5.811   4.573
   22ARG     CA  367   2.946   5.922   4.756
   22ARG     HA  368   2.953   5.887   4.849
   22ARG     CB  369   3.051   6.035   4.744
   22ARG    HB1  370   3.020   6.102   4.677
   22ARG    HB2  371   3.138   5.996   4.715
   22ARG     CG  372   3.071   6.105   4.879
   22ARG    HG1  373   3.094   6.036   4.949
   22ARG    HG2  374   2.986   6.151   4.905
   22ARG     CD  375   3.183   6.208   4.871
   22ARG    HD1  376   3.163   6.274   4.798
   22ARG    HD2  377   3.270   6.162   4.851
   22ARG     NE  378   3.198   6.282   4.998
   22ARG     HE  379   3.136   6.256   5.072
   22ARG     CZ  380   3.285   6.378   5.023
   22ARG    NH1  381   3.373   6.416   4.934
   22ARG   HH11  382   3.376   6.372   4.845
   22ARG   HH12  383   3.437   6.489   4.956
   22ARG    NH2  384   3.284   6.439   5.138
   22ARG   HH21  385   3.218   6.413   5.208
   22ARG   HH22  386   3.350   6.512   5.156
   22ARG      C  387   2.801   5.964   4.738
   22ARG      O  388   2.771   6.079   4.705
   23GLY      N  389   2.711   5.867   4.751
   23GLY      H  390   2.743   5.772   4.747
   23GLY     CA  391   2.569   5.891   4.771
   23GLY    HA1  392   2.517   5.826   4.717
   23GLY    HA2  393   2.547   5.984   4.741
   23GLY      C  394   2.538   5.874   4.920
   23GLY      O  395   2.568   5.768   4.972
   24TYR      N  396   2.481   5.980   4.978
   24TYR      H  397   2.495   6.067   4.931
   24TYR     CA  398   2.403   5.989   5.103
   24TYR     HA  399   2.409   6.086   5.123
   24TYR     CB  400   2.259   5.944   5.073
   24TYR    HB1  401   2.211   5.931   5.160
   24TYR    HB2  402   2.261   5.858   5.023
   24TYR     CG  403   2.184   6.048   4.991
   24TYR    CD1  404   2.114   6.150   5.057
   24TYR    HD1  405   2.111   6.152   5.157
   24TYR    CE1  406   2.047   6.249   4.983
   24TYR    HE1  407   1.996   6.321   5.031
   24TYR     CZ  408   2.052   6.247   4.842
   24TYR     OH  409   1.988   6.343   4.770
   24TYR     HH  410   2.002   6.326   4.673
   24TYR    CE2  411   2.125   6.146   4.776
   24TYR    HE2  412   2.129   6.145   4.676
   24TYR    CD2  413   2.190   6.046   4.850
   24TYR    HD2  414   2.241   5.974   4.803
   24TYR      C  415   2.460   5.931   5.233
   24TYR    OC1  416   2.481   6.017   5.321
   24TYR    OC2  417   2.478   5.809   5.245
   25SOL     OW  418   1.736   0.839   0.257
   25SOL    HW2  419   1.777   0.781   0.322
   25SOL    HW3  420   1.643   0.831   0.274
   25SOL    MW4  421   1.730   0.831   0.267
   26SOL     OW  422   1.602   0.771   1.252
   26SOL    HW2  423   1.557   0.838   1.303
   26SOL    HW3  424   1.690   0.807   1.238
   26SOL    MW4  425   1.608   0.784   1.256
   27SOL     OW  426   0.530   1.022   0.486
   27SOL    HW2  427   0.620   0.997   0.470
   27SOL    HW3  428   0.526   1.115   0.463
   27SOL    MW4  429   0.542   1.031   0.481
   28SOL     OW  430   1.646   1.725   0.628
   28SOL    HW2  431   1.658   1.671   0.706
   28SOL    HW3  432   1.683   1.673   0.557
   28SOL    MW4  433   1.652   1.710   0.629
   29SOL     OW  434   1.025   1.610   1.629
   29SOL    HW2  435   1.066   1.646   1.550
   29SOL    HW3  436   1.060   1.521   1.636
   29SOL    MW4  437   1.036   1.603   1.620
   30SOL     OW  438   1.582   1.165   1.233
   30SOL    HW2  439   1.503   1.130   1.191
   30SOL    HW3  440   1.609   1.237   1.177
   30SOL    MW4  441   1.575   1.170   1.220
   31SOL     OW  442   0.814   0.478   0.499
   31SOL    HW2  443   0.789   0.566   0.527
   31SOL    HW3  444   0.811   0.481   0.403
   31SOL    MW4  445   0.810   0.490   0.491
   32SOL     OW  446   0.256   0.506   0.427
   32SOL    HW2  447   0.288   0.594   0.409
   32SOL    HW3  448   0.244   0.504   0.522
   32SOL    MW4  449   0.259   0.518   0.439
   33SOL     OW  450   0.334   0.919   1.328
   33SOL    HW2  451   0.397   0.866   1.279
   33SOL    HW3  452   0.315   0.993   1.271
   33SOL    MW4  453   0.340   0.921   1.315
   34SOL     OW  454   0.655   0.261   0.514
   34SOL    HW2  455   0.713   0.337   0.516
   34SOL    HW3  456   0.590   0.282   0.447
   34SOL    MW4  457   0.654   0.273   0.505
   35SOL     OW  458   0.742   1.188   0.689
   35SOL    HW2  459   0.822   1.191   0.741
   35SOL    HW3  460   0.770   1.155   0.603
   35SOL    MW4  461   0.756   1.184   0.684
   36SOL     OW  462   0.767   1.529   1.592
   36SOL    HW2  463   0.851   1.555   1.631
   36SOL    HW3  464   0.791   1.473   1.518
   36SOL    MW4  465   0.781   1.525   1.587
   37SOL     OW  466   0.519   0.692   0.680
   37SOL    HW2  467   0.504   0.612   0.731
   37SOL    HW3  468   0.601   0.727   0.714
   37SOL    MW4  469   0.527   0.684   0.692
   38SOL     OW  470   0.856   1.378   1.365
   38SOL    HW2  471   0.820   1.444   1.305
   38SOL    HW3  472   0.784   1.316   1.378
   38SOL    MW4  473   0.842   1.378   1.359
   39SOL     OW  474   0.661   0.518   1.057
   39SOL    HW2  475   0.567   0.514   1.075
   39SOL    HW3  476   0.691   0.427   1.066
   39SOL    MW4  477   0.652   0.506   1.060
   40SOL     OW  478   0.407   0.932   0.961
   40SOL    HW2  479   0.362   0.939   0.877
   40SOL    HW3  480   0.387   1.015   1.005
   40SOL    MW4  481   0.399   0.944   0.955
   41SOL     OW  482   0.104   1.778   0.836
   41SOL    HW2  483   0.193   1.770   0.871
   41SOL    HW3  484   0.068   1.690   0.841
   41SOL    MW4  485   0.111   1.765   0.841
   42SOL     OW  486   1.369   1.170   0.205
   42SOL    HW2  487   1.287   1.206   0.171
   42SOL    HW3  488   1.437   1.213   0.154
   42SOL    MW4  489   1.367   1.180   0.193
   43SOL     OW  490   0.368   1.305   0.871
   43SOL    HW2  491   0.344   1.358   0.947
   43SOL    HW3  492   0.424   1.363   0.819
   43SOL    MW4  493   0.372   1.320   0.874
   44SOL     OW  494   0.930   0.949   0.681
   44SOL    HW2  495   0.844   0.936   0.721
   44SOL    HW3  496   0.983   0.876   0.713
   44SOL    MW4  497   0.926   0.938   0.690
   45SOL     OW  498   0.338   1.601   1.466
   45SOL    HW2  499   0.246   1.577   1.451
   45SOL    HW3  500   0.382   1.518   1.483
   45SOL    MW4  501   0.332   1.586   1.465
   46SOL     OW  502   0.921   1.311   0.398
   46SOL    HW2  503   0.898   1.373   0.466
   46SOL    HW3  504   0.878   1.229   0.424
   46SOL    MW4  505   0.913   1.307   0.409
   47SOL     OW  506   1.794   0.312   0.854
   47SOL    HW2  507   1.731   0.292   0.923
   47SOL    HW3  508   1.784   0.241   0.791
   47SOL    MW4  509   1.784   0.299   0.855
   48SOL     OW  510   0.418   0.284   0.366
   48SOL    HW2  511   0.392   0.246   0.282
   48SOL    HW3  512   0.355   0.354   0.382
   48SOL    MW4  513   0.407   0.287   0.357
   49SOL     OW  514   0.253   1.245   0.403
   49SOL    HW2  515   0.201   1.313   0.359
   49SOL    HW3  516   0.250   1.171   0.343
   49SOL    MW4  517   0.245   1.244   0.390
   50SOL     OW  518   0.915   1.708   0.181
   50SOL    HW2  519   0.870   1.724   0.264
   50SOL    HW3  520   0.846   1.673   0.123
   50SOL    MW4  521   0.901   1.705   0.183
   51SOL     OW  522   1.850   0.481   0.156
   51SOL    HW2  523   1.759   0.483   0.184
   51SOL    HW3  524   1.895   0.543   0.214
   51SOL    MW4  525   1.843   0.489   0.166
   52SOL     OW  526   1.595   1.084   0.506
   52SOL    HW2  527   1.505   1.084   0.541
   52SOL    HW3  528   1.588   1.130   0.423
   52SOL    MW4  529   1.582   1.090   0.500
   53SOL     OW  530   1.395   0.719   1.578
   53SOL    HW2  531   1.464   0.657   1.555
   53SOL    HW3  532   1.320   0.693   1.525
   53SOL    MW4  533   1.395   0.706   1.569
   54SOL     OW  534   0.136   1.599   1.130
   54SOL    HW2  535   0.119   1.545   1.207
   54SOL    HW3  536   0.124   1.689   1.160
   54SOL    MW4  537   0.133   1.603   1.144
   55SOL     OW  538   1.131   1.106   1.570
   55SOL    HW2  539   1.116   1.199   1.555
   55SOL    HW3  540   1.226   1.096   1.570
   55SOL    MW4  541   1.140   1.116   1.567
   56SOL     OW  542   0.927   0.530   1.771
   56SOL    HW2  543   1.017   0.531   1.738
   56SOL    HW3  544   0.886   0.455   1.729
   56SOL    MW4  545   0.933   0.520   1.762
   57SOL     OW  546   1.502   1.062   0.898
   57SOL    HW2  547   1.505   0.996   0.829
   57SOL    HW3  548   1.587   1.105   0.894
   57SOL    MW4  549   1.514   1.058   0.889
   58SOL     OW  550   1.122   0.665   0.467
   58SOL    HW2  551   1.148   0.689   0.378
   58SOL    HW3  552   1.104   0.572   0.463
   58SOL    MW4  553   1.124   0.657   0.454
   59SOL     OW  554   1.787   1.285   0.318
   59SOL    HW2  555   1.743   1.326   0.393
   59SOL    HW3  556   1.844   1.353   0.283
   59SOL    MW4  557   1.789   1.299   0.323
   60SOL     OW  558   0.707   0.334   1.721
   60SOL    HW2  559   0.717   0.260   1.661
   60SOL    HW3  560   0.743   0.303   1.804
   60SOL    MW4  561   0.713   0.320   1.723
   61SOL     OW  562   0.443   1.701   0.636
   61SOL    HW2  563   0.475   1.789   0.614
   61SOL    HW3  564   0.396   1.673   0.558
   61SOL    MW4  565   0.442   1.709   0.623
   62SOL     OW  566   1.827   0.063   0.685
   62SOL    HW2  567   1.881   0.014   0.747
   62SOL    HW3  568   1.770  -0.003   0.646
   62SOL    MW4  569   1.827   0.047   0.687
   63SOL     OW  570   0.159   1.761   0.213
   63SOL    HW2  571   0.188   1.851   0.205
   63SOL    HW3  572   0.109   1.744   0.134
   63SOL    MW4  573   0.157   1.769   0.202
   64SOL     OW  574   0.946   0.016   1.098
   64SOL    HW2  575   0.905   0.094   1.060
   64SOL    HW3  576   1.040   0.034   1.093
   64SOL    MW4  577   0.952   0.028   1.093
   65SOL     OW  578   1.563   1.569   0.184
   65SOL    HW2  579   1.611   1.638   0.230
   65SOL    HW3  580   1.484   1.613   0.153
   65SOL    MW4  581   1.558   1.583   0.187
   66SOL     OW  582   0.961   0.694   0.128
   66SOL    HW2  583   0.963   0.641   0.049
   66SOL    HW3  584   1.049   0.731   0.134
   66SOL    MW4  585   0.973   0.693   0.117
   67SOL     OW  586   1.575   0.620   0.464
   67SOL    HW2  587   1.614   0.620   0.551
   67SOL    HW3  588   1.516   0.696   0.464
   67SOL    MW4  589   1.572   0.631   0.475
   68SOL     OW  590   0.892   0.987   1.593
   68SOL    HW2  591   0.869   0.967   1.683
   68SOL    HW3  592   0.977   1.031   1.598
   68SOL    MW4  593   0.899   0.990   1.605
   69SOL     OW  594   0.972   0.124   1.353
   69SOL    HW2  595   0.978   0.086   1.266
   69SOL    HW3  596   0.961   0.218   1.338
   69SOL    MW4  597   0.973   0.132   1.341
   70SOL     OW  598   1.061   0.613   1.187
   70SOL    HW2  599   1.136   0.642   1.134
   70SOL    HW3  600   0.993   0.678   1.171
   70SOL    MW4  601   1.062   0.625   1.177
   71SOL     OW  602   1.611   0.581   1.464
   71SOL    HW2  603   1.592   0.490   1.443
   71SOL    HW3  604   1.589   0.630   1.385
   71SOL    MW4  605   1.606   0.574   1.451
   72SOL     OW  606   1.753   1.675   1.368
   72SOL    HW2  607   1.681   1.637   1.419
   72SOL    HW3  608   1.770   1.760   1.409
   72SOL    MW4  609   1.747   1.680   1.380
   73SOL     OW  610   1.058   0.319   1.570
   73SOL    HW2  611   1.024   0.358   1.489
   73SOL    HW3  612   1.036   0.227   1.563
   73SOL    MW4  613   1.051   0.312   1.560
   74SOL     OW  614   1.467   1.133   1.646
   74SOL    HW2  615   1.549   1.174   1.676
   74SOL    HW3  616   1.430   1.095   1.726
   74SOL    MW4  617   1.473   1.134   1.661
   75SOL     OW  618   1.762   0.506   0.630
   75SOL    HW2  619   1.851   0.475   0.647
   75SOL    HW3  620   1.705   0.446   0.678
   75SOL    MW4  621   1.765   0.494   0.639
   76SOL     OW  622   0.188   0.220   0.659
   76SOL    HW2  623   0.179   0.160   0.585
   76SOL    HW3  624   0.121   0.191   0.722
   76SOL    MW4  625   0.178   0.207   0.657
   77SOL     OW  626   1.131   1.313   0.220
   77SOL    HW2  627   1.081   1.315   0.302
   77SOL    HW3  628   1.065   1.331   0.152
   77SOL    MW4  629   1.117   1.315   0.222
   78SOL     OW  630   0.135   0.393   1.022
   78SOL    HW2  631   0.107   0.484   1.031
   78SOL    HW3  632   0.072   0.354   0.961
   78SOL    MW4  633   0.122   0.399   1.016
   79SOL     OW  634   0.594   1.731   0.328
   79SOL    HW2  635   0.515   1.689   0.361
   79SOL    HW3  636   0.660   1.714   0.395
   79SOL    MW4  637   0.593   1.723   0.341
   80SOL     OW  638   1.722   1.251   1.725
   80SOL    HW2  639   1.772   1.177   1.757
   80SOL    HW3  640   1.668   1.278   1.800
   80SOL    MW4  641   1.722   1.245   1.738
   81SOL     OW  642   0.730   1.146   0.035
   81SOL    HW2  643   0.652   1.092   0.022
   81SOL    HW3  644   0.701   1.219   0.088
   81SOL    MW4  645   0.716   1.148   0.040
   82SOL     OW  646   1.856   0.886   1.227
   82SOL    HW2  647   1.872   0.924   1.140
   82SOL    HW3  648   1.890   0.952   1.288
   82SOL    MW4  649   1.863   0.899   1.223
   83SOL     OW  650   1.648   1.595   0.896
   83SOL    HW2  651   1.677   1.662   0.957
   83SOL    HW3  652   1.629   1.519   0.951
   83SOL    MW4  653   1.650   1.595   0.911
   84SOL     OW  654   1.311   1.662   0.103
   84SOL    HW2  655   1.237   1.625   0.153
   84SOL    HW3  656   1.319   1.752   0.136
   84SOL    MW4  657   1.302   1.669   0.115
   85SOL     OW  658   0.119   0.668   1.192
   85SOL    HW2  659   0.181   0.698   1.258
   85SOL    HW3  660   0.053   0.737   1.186
   85SOL    MW4  661   0.118   0.681   1.199
   86SOL     OW  662   1.535   1.336   0.045
   86SOL    HW2  663   1.482   1.385  -0.019
   86SOL    HW3  664   1.566   1.402   0.106
   86SOL    MW4  665   1.533   1.350   0.043
   87SOL     OW  666   0.760   0.225   0.100
   87SOL    HW2  667   0.708   0.145   0.088
   87SOL    HW3  668   0.847   0.202   0.068
   87SOL    MW4  669   0.763   0.211   0.094
   88SOL     OW  670   0.214   1.777   1.644
   88SOL    HW2  671   0.188   1.845   1.582
   88SOL    HW3  672   0.262   1.714   1.592
   88SOL    MW4  673   0.216   1.777   1.630
   89SOL     OW  674   0.266   1.096   1.151
   89SOL    HW2  675   0.319   1.171   1.176
   89SOL    HW3  676   0.185   1.134   1.117
   89SOL    MW4  677   0.262   1.111   1.151
   90SOL     OW  678   0.806   1.000   1.139
   90SOL    HW2  679   0.834   0.909   1.151
   90SOL    HW3  680   0.735   0.994   1.075
   90SOL    MW4  681   0.799   0.988   1.134
   91SOL     OW  682   0.121   0.865   0.557
   91SOL    HW2  683   0.212   0.880   0.584
   91SOL    HW3  684   0.124   0.786   0.503
   91SOL    MW4  685   0.133   0.857   0.555
   92SOL     OW  686   0.357   0.573   1.811
   92SOL    HW2  687   0.304   0.653   1.818
   92SOL    HW3  688   0.427   0.585   1.876
   92SOL    MW4  689   0.359   0.586   1.819
   93SOL     OW  690   0.743   0.123   1.518
   93SOL    HW2  691   0.720   0.031   1.520
   93SOL    HW3  692   0.829   0.125   1.475
   93SOL    MW4  693   0.750   0.113   1.514
   94SOL     OW  694   0.427   0.647   1.557
   94SOL    HW2  695   0.507   0.697   1.543
   94SOL    HW3  696   0.418   0.641   1.652
   94SOL    MW4  697   0.436   0.653   1.567
   95SOL     OW  698   0.748   1.797   0.931
   95SOL    HW2  699   0.837   1.812   0.961
   95SOL    HW3  700   0.743   1.844   0.847
   95SOL    MW4  701   0.758   1.805   0.924
   96SOL     OW  702   1.404   0.172   1.828
   96SOL    HW2  703   1.460   0.099   1.854
   96SOL    HW3  704   1.374   0.210   1.910
   96SOL    MW4  705   1.408   0.167   1.841
   97SOL     OW  706   0.129   1.477   0.596
   97SOL    HW2  707   0.101   1.516   0.678
   97SOL    HW3  708   0.149   1.386   0.618
   97SOL    MW4  709   0.127   1.469   0.609
   98SOL     OW  710   0.962   1.520   0.631
   98SOL    HW2  711   1.045   1.474   0.615
   98SOL    HW3  712   0.952   1.519   0.727
   98SOL    MW4  713   0.972   1.513   0.641
   99SOL     OW  714   1.794   0.665   0.945
   99SOL    HW2  715   1.883   0.695   0.927
   99SOL    HW3  716   1.774   0.605   0.874
   99SOL    MW4  717   1.803   0.662   0.934
  100SOL     OW  718   1.645   0.844   1.825
  100SOL    HW2  719   1.700   0.768   1.806
  100SOL    HW3  720   1.647   0.852   1.920
  100SOL    MW4  721   1.653   0.835   1.833
  101SOL     OW  722   0.695   1.577   0.036
  101SOL    HW2  723   0.635   1.646   0.006
  101SOL    HW3  724   0.640   1.519   0.089
  101SOL    MW4  725   0.679   1.579   0.038
  102SOL     OW  726   1.133   0.222   0.259
  102SOL    HW2  727   1.066   0.198   0.196
  102SOL    HW3  728   1.198   0.271   0.208
  102SOL    MW4  729   1.133   0.224   0.244
  103SOL     OW  730   0.940   0.406   1.344
  103SOL    HW2  731   0.859   0.447   1.372
  103SOL    HW3  732   0.987   0.474   1.296
  103SOL    MW4  733   0.935   0.421   1.342
  104SOL     OW  734   1.200   0.744   0.967
  104SOL    HW2  735   1.213   0.838   0.977
  104SOL    HW3  736   1.161   0.734   0.881
  104SOL    MW4  737   1.196   0.755   0.957
  105SOL     OW  738   0.652   0.939   0.771
  105SOL    HW2  739   0.563   0.930   0.804
  105SOL    HW3  740   0.656   1.029   0.739
  105SOL    MW4  741   0.641   0.950   0.771
  106SOL     OW  742   1.451   0.522   0.766
  106SOL    HW2  743   1.396   0.443   0.765
  106SOL    HW3  744   1.433   0.563   0.850
  106SOL    MW4  745   1.441   0.517   0.775
  107SOL     OW  746   0.422   0.209   1.583
  107SOL    HW2  747   0.343   0.227   1.635
  107SOL    HW3  748   0.417   0.271   1.510
  107SOL    MW4  749   0.412   0.219   1.580
  108SOL     OW  750   1.070   0.726   0.723
  108SOL    HW2  751   1.007   0.658   0.747
  108SOL    HW3  752   1.090   0.707   0.631
  108SOL    MW4  753   1.064   0.713   0.715
  109SOL     OW  754   0.326   1.621   0.425
  109SOL    HW2  755   0.287   1.668   0.351
  109SOL    HW3  756   0.260   1.556   0.450
  109SOL    MW4  757   0.313   1.619   0.419
  110SOL     OW  758   0.818   1.030   0.449
  110SOL    HW2  759   0.820   1.004   0.356
  110SOL    HW3  760   0.876   0.967   0.492
  110SOL    MW4  761   0.826   1.019   0.443
  111SOL     OW  762   1.371   1.590   1.221
  111SOL    HW2  763   1.296   1.636   1.259
  111SOL    HW3  764   1.353   1.497   1.238
  111SOL    MW4  765   1.360   1.584   1.229
  112SOL     OW  766   1.375   1.798   0.651
  112SOL    HW2  767   1.318   1.751   0.590
  112SOL    HW3  768   1.461   1.759   0.638
  112SOL    MW4  769   1.378   1.789   0.641
  113SOL     OW  770   1.328   0.274   0.782
  113SOL    HW2  771   1.356   0.206   0.843
  113SOL    HW3  772   1.242   0.245   0.752
  113SOL    MW4  773   1.321   0.261   0.786
  114SOL     OW  774   0.133   1.208   0.716
  114SOL    HW2  775   0.197   1.240   0.779
  114SOL    HW3  776   0.182   1.144   0.664
  114SOL    MW4  777   0.148   1.204   0.717
  115SOL     OW  778   0.633   1.284   1.698
  115SOL    HW2  779   0.681   1.367   1.685
  115SOL    HW3  780   0.690   1.232   1.754
  115SOL    MW4  781   0.647   1.288   1.704
  116SOL     OW  782   0.209   1.526   1.838
  116SOL    HW2  783   0.265   1.450   1.853
  116SOL    HW3  784   0.158   1.504   1.760
  116SOL    MW4  785   0.209   1.513   1.829
  117SOL     OW  786   1.308   0.378   0.117
  117SOL    HW2  787   1.281   0.444   0.053
  117SOL    HW3  788   1.378   0.421   0.167
  117SOL    MW4  789   1.313   0.391   0.114
  118SOL     OW  790   0.976   0.083   0.054
  118SOL    HW2  791   1.032   0.075  -0.024
  118SOL    HW3  792   0.953  -0.007   0.076
  118SOL    MW4  793   0.981   0.070   0.047
  119SOL     OW  794   1.481   0.934   0.259
  119SOL    HW2  795   1.448   1.023   0.249
  119SOL    HW3  796   1.446   0.905   0.344
  119SOL    MW4  797   1.471   0.943   0.270
  120SOL     OW  798   1.094   1.363   1.447
  120SOL    HW2  799   1.005   1.369   1.415
  120SOL    HW3  800   1.138   1.442   1.415
  120SOL    MW4  801   1.089   1.373   1.439
  121SOL     OW  802   0.387   0.031   1.789
  121SOL    HW2  803   0.315  -0.004   1.737
  121SOL    HW3  804   0.445   0.072   1.724
  121SOL    MW4  805   0.385   0.032   1.774
  122SOL     OW  806   0.411   1.521   1.088
  122SOL    HW2  807   0.456   1.583   1.145
  122SOL    HW3  808   0.318   1.540   1.101
  122SOL    MW4  809   0.404   1.531   1.095
  123SOL     OW  810   1.851   1.050   1.442
  123SOL    HW2  811   1.766   1.063   1.401
  123SOL    HW3  812   1.831   1.014   1.529
  123SOL    MW4  813   1.838   1.046   1.447
  124SOL     OW  814   0.833   1.589   1.196
  124SOL    HW2  815   0.857   1.578   1.105
  124SOL    HW3  816   0.756   1.646   1.194
  124SOL    MW4  817   0.825   1.594   1.185
  125SOL     OW  818   0.475   0.972   0.051
  125SOL    HW2  819   0.398   0.985   0.107
  125SOL    HW3  820   0.439   0.936  -0.030
  125SOL    MW4  821   0.461   0.968   0.048
  126SOL     OW  822   1.128   0.945   0.294
  126SOL    HW2  823   1.038   0.966   0.269
  126SOL    HW3  824   1.155   1.018   0.350
  126SOL    MW4  825   1.120   0.957   0.297
  127SOL     OW  826   0.628   1.294   0.986
  127SOL    HW2  827   0.621   1.273   1.080
  127SOL    HW3  828   0.546   1.262   0.949
  127SOL    MW4  829   0.616   1.288   0.993
  128SOL     OW  830   1.492   0.304   1.388
  128SOL    HW2  831   1.439   0.306   1.468
  128SOL    HW3  832   1.477   0.217   1.351
  128SOL    MW4  833   1.484   0.294   1.393
  129SOL     OW  834   1.828   0.228   1.261
  129SOL    HW2  835   1.809   0.295   1.196
  129SOL    HW3  836   1.885   0.166   1.216
  129SOL    MW4  837   1.832   0.229   1.247
  130SOL     OW  838   0.074   1.386   1.649
  130SOL    HW2  839   0.118   1.319   1.595
  130SOL    HW3  840  -0.011   1.348   1.669
  130SOL    MW4  841   0.069   1.372   1.645
  131SOL     OW  842   0.757   0.061   0.701
  131SOL    HW2  843   0.686   0.122   0.683
  131SOL    HW3  844   0.808   0.058   0.620
  131SOL    MW4  845   0.753   0.067   0.688
  132SOL     OW  846   0.515   1.301   0.450
  132SOL    HW2  847   0.508   1.333   0.540
  132SOL    HW3  848   0.425   1.285   0.422
  132SOL    MW4  849   0.503   1.303   0.457
  133SOL     OW  850   1.110   1.694   1.359
  133SOL    HW2  851   1.030   1.679   1.309
  133SOL    HW3  852   1.117   1.789   1.366
  133SOL    MW4  853   1.101   1.705   1.353
  134SOL     OW  854   1.224   1.659   0.849
  134SOL    HW2  855   1.271   1.732   0.808
  134SOL    HW3  856   1.145   1.698   0.885
  134SOL    MW4  857   1.219   1.674   0.848
  135SOL     OW  858   1.632   1.754   1.124
  135SOL    HW2  859   1.675   1.724   1.204
  135SOL    HW3  860   1.551   1.702   1.121
  135SOL    MW4  861   1.627   1.743   1.134
  136SOL     OW  862   0.717   0.718   1.831
  136SOL    HW2  863   0.787   0.660   1.803
  136SOL    HW3  864   0.660   0.663   1.886
  136SOL    MW4  865   0.719   0.705   1.835
  137SOL     OW  866   1.504   0.930   1.464
  137SOL    HW2  867   1.509   0.983   1.544
  137SOL    HW3  868   1.466   0.847   1.492
  137SOL    MW4  869   1.500   0.925   1.479
  138SOL     OW  870   1.144   0.065   1.710
  138SOL    HW2  871   1.139  -0.028   1.691
  138SOL    HW3  872   1.227   0.076   1.756
  138SOL    MW4  873   1.152   0.054   1.714
  139SOL     OW  874   0.518   0.585   0.164
  139SOL    HW2  875   0.484   0.641   0.234
  139SOL    HW3  876   0.589   0.535   0.204
  139SOL    MW4  877   0.524   0.586   0.178
  140SOL     OW  878   1.614   1.336   0.986
  140SOL    HW2  879   1.649   1.318   0.899
  140SOL    HW3  880   1.519   1.337   0.973
  140SOL    MW4  881   1.606   1.333   0.973
  141SOL     OW  882   1.043   0.984   1.355
  141SOL    HW2  883   1.086   1.019   1.433
  141SOL    HW3  884   1.026   1.061   1.301
  141SOL    MW4  885   1.046   0.999   1.358
  142SOL     OW  886   1.574   0.471   0.228
  142SOL    HW2  887   1.566   0.542   0.165
  142SOL    HW3  888   1.592   0.515   0.311
  142SOL    MW4  889   1.575   0.485   0.230
  143SOL     OW  890   0.434   0.126   0.657
  143SOL    HW2  891   0.484   0.169   0.588
  143SOL    HW3  892   0.349   0.170   0.657
  143SOL    MW4  893   0.431   0.139   0.648
  144SOL     OW  894   0.193   1.188   1.517
  144SOL    HW2  895   0.221   1.141   1.595
  144SOL    HW3  896   0.114   1.143   1.488
  144SOL    MW4  897   0.186   1.177   1.523
  145SOL     OW  898   0.701   0.515   1.484
  145SOL    HW2  899   0.673   0.603   1.508
  145SOL    HW3  900   0.670   0.459   1.555
  145SOL    MW4  901   0.693   0.518   1.496
  146SOL     OW  902   1.243   0.733   0.203
  146SOL    HW2  903   1.290   0.751   0.122
  146SOL    HW3  904   1.209   0.817   0.231
  146SOL    MW4  905   1.245   0.747   0.196
  147SOL     OW  906   0.356   0.911   0.697
  147SOL    HW2  907   0.414   0.967   0.645
  147SOL    HW3  908   0.400   0.826   0.699
  147SOL    MW4  909   0.369   0.908   0.690
  148SOL     OW  910   1.496   0.263   0.534
  148SOL    HW2  911   1.418   0.213   0.559
  148SOL    HW3  912   1.467   0.354   0.534
  148SOL    MW4  913   1.482   0.267   0.537
  149SOL     OW  914   1.082   0.225   0.693
  149SOL    HW2  915   1.102   0.300   0.637
  149SOL    HW3  916   1.062   0.264   0.778
  149SOL    MW4  917   1.083   0.241   0.697
  150SOL     OW  918   0.978   1.475   0.025
  150SOL    HW2  919   1.005   1.553  -0.023
  150SOL    HW3  920   0.885   1.490   0.044
  150SOL    MW4  921   0.969   1.488   0.021
  151SOL     OW  922   1.842   0.998   1.712
  151SOL    HW2  923   1.755   0.978   1.748
  151SOL    HW3  924   1.896   0.924   1.737
  151SOL    MW4  925   1.837   0.987   1.720
  152SOL     OW  926   0.063   1.511   0.869
  152SOL    HW2  927   0.095   1.515   0.960
  152SOL    HW3  928  -0.032   1.519   0.877
  152SOL    MW4  929   0.055   1.514   0.882
  153SOL     OW  930   0.018   0.637   0.416
  153SOL    HW2  931  -0.042   0.609   0.486
  153SOL    HW3  932   0.092   0.577   0.422
  153SOL    MW4  933   0.020   0.626   0.425
  154SOL     OW  934   1.586   1.849   1.850
  154SOL    HW2  935   1.631   1.773   1.815
  154SOL    HW3  936   1.624   1.862   1.937
  154SOL    MW4  937   1.596   1.842   1.856
  155SOL     OW  938   1.186   1.368   0.576
  155SOL    HW2  939   1.209   1.319   0.654
  155SOL    HW3  940   1.267   1.410   0.548
  155SOL    MW4  941   1.199   1.368   0.583
  156SOL     OW  942   0.444   0.376   1.305
  156SOL    HW2  943   0.477   0.457   1.345
  156SOL    HW3  944   0.417   0.402   1.217
  156SOL    MW4  945   0.443   0.390   1.299
  157SOL     OW  946   0.398   0.343   1.041
  157SOL    HW2  947   0.428   0.257   1.012
  157SOL    HW3  948   0.303   0.336   1.044
  157SOL    MW4  949   0.390   0.332   1.039
  158SOL     OW  950   1.227   0.552   1.732
  158SOL    HW2  951   1.279   0.487   1.685
  158SOL    HW3  952   1.185   0.603   1.662
  158SOL    MW4  953   1.228   0.549   1.715
  159SOL     OW  954   1.326   0.347   1.593
  159SOL    HW2  955   1.233   0.331   1.580
  159SOL    HW3  956   1.352   0.285   1.661
  159SOL    MW4  957   1.316   0.337   1.600
  160SOL     OW  958   0.541   0.121   0.932
  160SOL    HW2  959   0.551   0.030   0.958
  160SOL    HW3  960   0.497   0.117   0.847
  160SOL    MW4  961   0.537   0.109   0.924
  161SOL     OW  962   0.635   1.736   1.478
  161SOL    HW2  963   0.552   1.721   1.523
  161SOL    HW3  964   0.694   1.669   1.513
  161SOL    MW4  965   0.633   1.726   1.488
  162SOL     OW  966   1.692   0.443   1.103
  162SOL    HW2  967   1.625   0.476   1.163
  162SOL    HW3  968   1.735   0.521   1.069
  162SOL    MW4  969   1.690   0.458   1.107
  163SOL     OW  970   1.870   1.163   1.073
  163SOL    HW2  971   1.863   1.103   0.998
  163SOL    HW3  972   1.796   1.223   1.062
  163SOL    MW4  973   1.860   1.163   1.062
  164SOL     OW  974   1.252   1.025   0.991
  164SOL    HW2  975   1.266   0.997   1.082
  164SOL    HW3  976   1.338   1.056   0.963
  164SOL    MW4  977   1.265   1.026   1.000
  165SOL     OW  978   1.335   0.520   1.270
  165SOL    HW2  979   1.356   0.521   1.177
  165SOL    HW3  980   1.380   0.442   1.303
  165SOL    MW4  981   1.342   0.510   1.262
  166SOL     OW  982   1.828   0.651   1.812
  166SOL    HW2  983   1.865   0.596   1.881
  166SOL    HW3  984   1.853   0.608   1.730
  166SOL    MW4  985   1.835   0.639   1.811
  167SOL     OW  986   1.375   0.949   1.863
  167SOL    HW2  987   1.441   0.897   1.817
  167SOL    HW3  988   1.395   0.936   1.956
  167SOL    MW4  989   1.386   0.940   1.870
  168SOL     OW  990   1.326   0.035   0.212
  168SOL    HW2  991   1.400   0.079   0.255
  168SOL    HW3  992   1.250   0.089   0.234
  168SOL    MW4  993   1.326   0.047   0.220
  169SOL     OW  994   1.386   0.810   0.490
  169SOL    HW2  995   1.301   0.780   0.460
  169SOL    HW3  996   1.378   0.817   0.585
  169SOL    MW4  997   1.374   0.808   0.499
  170SOL     OW  998   0.462   1.273   1.221
  170SOL    HW2  999   0.474   1.300   1.312
  170SOL    HW3 1000   0.443   1.354   1.174
  170SOL    MW4 1001   0.461   1.288   1.226
  171SOL     OW 1002   0.746   0.253   1.044
  171SOL    HW2 1003   0.719   0.255   1.135
  171SOL    HW3 1004   0.676   0.205   0.999
  171SOL    MW4 1005   0.734   0.249   1.051
  172SOL     OW 1006   0.600   1.745   1.206
  172SOL    HW2 1007   0.652   1.822   1.183
  172SOL    HW3 1008   0.609   1.737   1.301
  172SOL    MW4 1009   0.609   1.752   1.217
  173SOL     OW 1010   1.502   1.330   1.438
  173SOL    HW2 1011   1.487   1.259   1.501
  173SOL    HW3 1012   1.548   1.288   1.366
  173SOL    MW4 1013   1.508   1.314   1.438
  174SOL     OW 1014   0.576   1.061   1.555
  174SOL    HW2 1015   0.613   1.066   1.467
  174SOL    HW3 1016   0.615   1.134   1.602
  174SOL    MW4 1017   0.586   1.071   1.550
  175SOL     OW 1018   0.756   1.104   1.367
  175SOL    HW2 1019   0.815   1.050   1.420
  175SOL    HW3 1020   0.771   1.076   1.277
  175SOL    MW4 1021   0.766   1.093   1.363
  176SOL     OW 1022   0.759   0.476   0.216
  176SOL    HW2 1023   0.832   0.525   0.179
  176SOL    HW3 1024   0.775   0.385   0.190
  176SOL    MW4 1025   0.771   0.471   0.209
  177SOL     OW 1026   1.567   1.593   1.539
  177SOL    HW2 1027   1.609   1.578   1.624
  177SOL    HW3 1028   1.558   1.506   1.501
  177SOL    MW4 1029   1.571   1.581   1.546
  178SOL     OW 1030   1.227   0.072   1.130
  178SOL    HW2 1031   1.282   0.081   1.052
  178SOL    HW3 1032   1.282   0.106   1.201
  178SOL    MW4 1033   1.241   0.077   1.129
  179SOL     OW 1034   0.234   0.985   0.314
  179SOL    HW2 1035   0.171   1.001   0.243
  179SOL    HW3 1036   0.181   0.948   0.385
  179SOL    MW4 1037   0.219   0.982   0.314
  180SOL     OW 1038   0.590   1.339   0.173
  180SOL    HW2 1039   0.605   1.315   0.265
  180SOL    HW3 1040   0.498   1.317   0.157
  180SOL    MW4 1041   0.580   1.332   0.183
  181SOL     OW 1042   1.129   1.570   0.325
  181SOL    HW2 1043   1.137   1.488   0.276
  181SOL    HW3 1044   1.048   1.609   0.292
  181SOL    MW4 1045   1.119   1.565   0.315
  182SOL     OW 1046   0.388   1.728   0.894
  182SOL    HW2 1047   0.392   1.639   0.929
  182SOL    HW3 1048   0.414   1.719   0.803
  182SOL    MW4 1049   0.391   1.716   0.886
  183SOL     OW 1050   1.005   1.206   1.137
  183SOL    HW2 1051   0.937   1.140   1.153
  183SOL    HW3 1052   1.023   1.200   1.044
  183SOL    MW4 1053   0.998   1.197   1.128
  184SOL     OW 1054   0.094   1.481   1.388
  184SOL    HW2 1055   0.084   1.439   1.474
  184SOL    HW3 1056   0.015   1.534   1.378
  184SOL    MW4 1057   0.083   1.482   1.399
  185SOL     OW 1058   0.998   0.345   0.958
  185SOL    HW2 1059   0.928   0.297   1.003
  185SOL    HW3 1060   1.030   0.408   1.022
  185SOL    MW4 1061   0.993   0.347   0.972
  186SOL     OW 1062   0.649   0.781   1.578
  186SOL    HW2 1063   0.642   0.876   1.566
  186SOL    HW3 1064   0.658   0.770   1.673
  186SOL    MW4 1065   0.650   0.793   1.588
  187SOL     OW 1066   0.370   1.296   1.836
  187SOL    HW2 1067   0.442   1.298   1.773
  187SOL    HW3 1068   0.340   1.205   1.835
  187SOL    MW4 1069   0.375   1.285   1.828
  188SOL     OW 1070   1.454   0.059   1.303
  188SOL    HW2 1071   1.525   0.005   1.267
  188SOL    HW3 1072   1.453   0.038   1.396
  188SOL    MW4 1073   1.463   0.050   1.311
  189SOL     OW 1074   1.654   1.589   1.787
  189SOL    HW2 1075   1.627   1.586   1.878
  189SOL    HW3 1076   1.750   1.593   1.790
  189SOL    MW4 1077   1.664   1.589   1.799
  190SOL     OW 1078   0.465   0.451   0.771
  190SOL    HW2 1079   0.536   0.399   0.734
  190SOL    HW3 1080   0.451   0.416   0.858
  190SOL    MW4 1081   0.473   0.440   0.778
  191SOL     OW 1082   0.020   1.786   1.843
  191SOL    HW2 1083   0.070   1.764   1.765
  191SOL    HW3 1084   0.028   1.881   1.851
  191SOL    MW4 1085   0.028   1.795   1.834
  192SOL     OW 1086   0.781   1.544   0.847
  192SOL    HW2 1087   0.709   1.481   0.860
  192SOL    HW3 1088   0.742   1.629   0.865
  192SOL    MW4 1089   0.765   1.547   0.850
  193SOL     OW 1090   1.101   0.392   0.495
  193SOL    HW2 1091   1.123   0.329   0.427
  193SOL    HW3 1092   1.006   0.384   0.506
  193SOL    MW4 1093   1.091   0.383   0.487
  194SOL     OW 1094   0.186   0.082   0.427
  194SOL    HW2 1095   0.257   0.103   0.366
  194SOL    HW3 1096   0.140   0.010   0.385
  194SOL    MW4 1097   0.190   0.076   0.413
  195SOL     OW 1098   0.017   0.549   1.570
  195SOL    HW2 1099   0.081   0.615   1.545
  195SOL    HW3 1100  -0.064   0.576   1.527
  195SOL    MW4 1101   0.015   0.561   1.562
  196SOL     OW 1102   1.755   1.456   0.527
  196SOL    HW2 1103   1.725   1.389   0.588
  196SOL    HW3 1104   1.849   1.462   0.541
  196SOL    MW4 1105   1.763   1.448   0.537
  197SOL     OW 1106   1.311   1.133   0.457
  197SOL    HW2 1107   1.283   1.219   0.490
  197SOL    HW3 1108   1.339   1.149   0.367
  197SOL    MW4 1109   1.311   1.147   0.449
  198SOL     OW 1110   0.973   0.053   0.510
  198SOL    HW2 1111   1.010   0.112   0.575
  198SOL    HW3 1112   0.950   0.109   0.436
  198SOL    MW4 1113   0.974   0.068   0.509
  199SOL     OW 1114   1.826   0.935   0.932
  199SOL    HW2 1115   1.817   0.967   0.843
  199SOL    HW3 1116   1.779   0.851   0.932
  199SOL    MW4 1117   1.819   0.928   0.922
  200SOL     OW 1118   0.202   0.775   1.511
  200SOL    HW2 1119   0.223   0.844   1.449
  200SOL    HW3 1120   0.282   0.722   1.516
  200SOL    MW4 1121   0.215   0.776   1.505
  201SOL     OW 1122   1.738   0.866   0.633
  201SOL    HW2 1123   1.832   0.855   0.621
  201SOL    HW3 1124   1.714   0.938   0.574
  201SOL    MW4 1125   1.748   0.874   0.624
  202SOL     OW 1126   0.187   0.790   1.778
  202SOL    HW2 1127   0.113   0.734   1.804
  202SOL    HW3 1128   0.182   0.793   1.683
  202SOL    MW4 1129   0.176   0.783   1.768
  203SOL     OW 1130   0.353   0.077   1.228
  203SOL    HW2 1131   0.396   0.161   1.248
  203SOL    HW3 1132   0.426   0.015   1.221
  203SOL    MW4 1133   0.368   0.080   1.229
  204SOL     OW 1134   0.394   0.744   0.406
  204SOL    HW2 1135   0.394   0.839   0.391
  204SOL    HW3 1136   0.471   0.728   0.460
  204SOL    MW4 1137   0.404   0.755   0.411
  205SOL     OW 1138   1.170   0.603   1.470
  205SOL    HW2 1139   1.206   0.576   1.386
  205SOL    HW3 1140   1.083   0.637   1.449
  205SOL    MW4 1141   1.164   0.604   1.457
  206SOL     OW 1142   0.153   0.475   0.695
  206SOL    HW2 1143   0.215   0.482   0.768
  206SOL    HW3 1144   0.153   0.382   0.672
  206SOL    MW4 1145   0.161   0.464   0.702
  207SOL     OW 1146   1.700   1.815   0.227
  207SOL    HW2 1147   1.767   1.848   0.167
  207SOL    HW3 1148   1.657   1.894   0.261
  207SOL    MW4 1149   1.702   1.830   0.223
  208SOL     OW 1150   0.835   0.736   1.179
  208SOL    HW2 1151   0.793   0.654   1.155
  208SOL    HW3 1152   0.836   0.735   1.275
  208SOL    MW4 1153   0.828   0.725   1.188
  209SOL     OW 1154   1.506   1.869   1.578
  209SOL    HW2 1155   1.509   1.775   1.561
  209SOL    HW3 1156   1.529   1.877   1.670
  209SOL    MW4 1157   1.509   1.857   1.588
  210SOL     OW 1158   0.639   0.206   1.284
  210SOL    HW2 1159   0.570   0.269   1.305
  210SOL    HW3 1160   0.666   0.170   1.369
  210SOL    MW4 1161   0.633   0.209   1.297
  211SOL     OW 1162   0.022   1.047   0.153
  211SOL    HW2 1163  -0.009   1.112   0.216
  211SOL    HW3 1164  -0.029   0.969   0.172
  211SOL    MW4 1165   0.012   1.044   0.163
  212SOL     OW 1166   1.434   0.059   0.901
  212SOL    HW2 1167   1.522   0.068   0.938
  212SOL    HW3 1168   1.444   0.000   0.827
  212SOL    MW4 1169   1.448   0.053   0.895
  213SOL     OW 1170   1.466   0.798   0.745
  213SOL    HW2 1171   1.546   0.813   0.694
  213SOL    HW3 1172   1.459   0.703   0.751
  213SOL    MW4 1173   1.475   0.787   0.740
  214SOL     OW 1174   0.606   1.847   0.095
  214SOL    HW2 1175   0.511   1.847   0.087
  214SOL    HW3 1176   0.622   1.793   0.173
  214SOL    MW4 1177   0.596   1.841   0.104
  215SOL     OW 1178   0.916   0.724   1.442
  215SOL    HW2 1179   0.985   0.791   1.439
  215SOL    HW3 1180   0.849   0.762   1.498
  215SOL    MW4 1181   0.917   0.737   1.449
  216SOL     OW 1182   0.334   1.024   1.690
  216SOL    HW2 1183   0.288   0.940   1.692
  216SOL    HW3 1184   0.391   1.018   1.614
  216SOL    MW4 1185   0.336   1.012   1.682
  217SOL     OW 1186   1.451   0.667   0.011
  217SOL    HW2 1187   1.379   0.643  -0.047
  217SOL    HW3 1188   1.517   0.704  -0.047
  217SOL    MW4 1189   1.450   0.669  -0.004
  218SOL     OW 1190   0.585   1.399   0.691
  218SOL    HW2 1191   0.650   1.332   0.712
  218SOL    HW3 1192   0.637   1.476   0.668
  218SOL    MW4 1193   0.600   1.401   0.690
  219SOL     OW 1194   0.846   0.564   0.821
  219SOL    HW2 1195   0.786   0.582   0.893
  219SOL    HW3 1196   0.880   0.476   0.840
  219SOL    MW4 1197   0.842   0.554   0.834
  220SOL     OW 1198   1.787   0.063   1.490
  220SOL    HW2 1199   1.708   0.109   1.518
  220SOL    HW3 1200   1.822   0.117   1.419
  220SOL    MW4 1201   1.781   0.076   1.484
  221SOL     OW 1202   1.071   1.147   0.840
  221SOL    HW2 1203   1.163   1.128   0.858
  221SOL    HW3 1204   1.044   1.077   0.780
  221SOL    MW4 1205   1.079   1.135   0.834
  222SOL     OW 1206   0.864   0.967   0.195
  222SOL    HW2 1207   0.850   0.879   0.160
  222SOL    HW3 1208   0.815   1.024   0.136
  222SOL    MW4 1209   0.856   0.962   0.183
  223SOL     OW 1210   1.345   1.385   0.936
  223SOL    HW2 1211   1.318   1.469   0.901
  223SOL    HW3 1212   1.305   1.380   1.023
  223SOL    MW4 1213   1.338   1.394   0.942
  224SOL     OW 1214   1.264   1.333   1.204
  224SOL    HW2 1215   1.275   1.300   1.293
  224SOL    HW3 1216   1.183   1.292   1.173
  224SOL    MW4 1217   1.254   1.325   1.210
  225SOL     OW 1218   0.277   0.691   0.974
  225SOL    HW2 1219   0.227   0.690   1.055
  225SOL    HW3 1220   0.297   0.783   0.958
  225SOL    MW4 1221   0.273   0.703   0.982
  226SOL     OW 1222   1.344   1.455   1.736
  226SOL    HW2 1223   1.344   1.549   1.752
  226SOL    HW3 1224   1.389   1.445   1.652
  226SOL    MW4 1225   1.350   1.465   1.727
  227SOL     OW 1226   1.583   0.173   0.297
  227SOL    HW2 1227   1.576   0.177   0.392
  227SOL    HW3 1228   1.595   0.264   0.270
  227SOL    MW4 1229   1.584   0.186   0.305
  228SOL     OW 1230   0.872   0.736   0.411
  228SOL    HW2 1231   0.852   0.722   0.318
  228SOL    HW3 1232   0.965   0.715   0.418
  228SOL    MW4 1233   0.882   0.731   0.400
  229SOL     OW 1234   0.199   0.359   1.715
  229SOL    HW2 1235   0.156   0.418   1.652
  229SOL    HW3 1236   0.267   0.414   1.755
  229SOL    MW4 1237   0.203   0.374   1.712
  230SOL     OW 1238   1.311   0.979   1.260
  230SOL    HW2 1239   1.374   0.976   1.333
  230SOL    HW3 1240   1.227   0.997   1.302
  230SOL    MW4 1241   1.307   0.981   1.275
  231SOL     OW 1242   0.855   1.694   0.449
  231SOL    HW2 1243   0.913   1.765   0.476
  231SOL    HW3 1244   0.878   1.622   0.507
  231SOL    MW4 1245   0.866   1.694   0.460
  232SOL     OW 1246   1.650   0.156   1.039
  232SOL    HW2 1247   1.695   0.074   1.058
  232SOL    HW3 1248   1.670   0.212   1.115
  232SOL    MW4 1249   1.660   0.152   1.051
  233SOL     OW 1250   0.098  -0.001   1.138
  233SOL    HW2 1251   0.089   0.000   1.043
  233SOL    HW3 1252   0.192   0.011   1.153
  233SOL    MW4 1253   0.110   0.002   1.129
  234SOL     OW 1254   1.735   1.192   0.758
  234SOL    HW2 1255   1.714   1.138   0.681
  234SOL    HW3 1256   1.831   1.190   0.762
  234SOL    MW4 1257   1.744   1.185   0.747
  235SOL     OW 1258   0.427   1.337   1.501
  235SOL    HW2 1259   0.348   1.287   1.524
  235SOL    HW3 1260   0.497   1.296   1.551
  235SOL    MW4 1261   0.425   1.325   1.511
  236SOL     OW 1262   0.311   0.126   0.184
  236SOL    HW2 1263   0.240   0.181   0.152
  236SOL    HW3 1264   0.353   0.092   0.105
  236SOL    MW4 1265   0.307   0.128   0.170
  237SOL     OW 1266   1.435   0.623   1.020
  237SOL    HW2 1267   1.358   0.669   0.986
  237SOL    HW3 1268   1.492   0.692   1.054
  237SOL    MW4 1269   1.432   0.638   1.020
  238SOL     OW 1270   0.067   0.225   0.033
  238SOL    HW2 1271   0.034   0.304   0.077
  238SOL    HW3 1272   0.122   0.258  -0.038
  238SOL    MW4 1273   0.070   0.239   0.030
  239SOL     OW 1274   0.101   1.482   0.222
  239SOL    HW2 1275   0.118   1.566   0.264
  239SOL    HW3 1276   0.136   1.491   0.134
  239SOL    MW4 1277   0.106   1.495   0.216
  240SOL     OW 1278   1.373   1.571   0.439
  240SOL    HW2 1279   1.436   1.561   0.368
  240SOL    HW3 1280   1.290   1.591   0.394
  240SOL    MW4 1281   1.370   1.572   0.424
  241SOL     OW 1282   1.736   0.839   2.125
  241SOL    HW2 1283   1.777   0.781   2.190
  241SOL    HW3 1284   1.643   0.831   2.142
  241SOL    MW4 1285   1.730   0.831   2.135
  242SOL     OW 1286   1.602   0.771   3.120
  242SOL    HW2 1287   1.557   0.838   3.171
  242SOL    HW3 1288   1.690   0.807   3.106
  242SOL    MW4 1289   1.608   0.784   3.124
  243SOL     OW 1290   0.530   1.022   2.354
  243SOL    HW2 1291   0.620   0.997   2.338
  243SOL    HW3 1292   0.526   1.115   2.331
  243SOL    MW4 1293   0.542   1.031   2.349
  244SOL     OW 1294   1.646   1.725   2.496
  244SOL    HW2 1295   1.658   1.671   2.574
  244SOL    HW3 1296   1.683   1.673   2.425
  244SOL    MW4 1297   1.652   1.710   2.497
  245SOL     OW 1298   1.025   1.610   3.497
  245SOL    HW2 1299   1.066   1.646   3.418
  245SOL    HW3 1300   1.060   1.521   3.504
  245SOL    MW4 1301   1.036   1.603   3.488
  246SOL     OW 1302   1.582   1.165   3.101
  246SOL    HW2 1303   1.503   1.130   3.059
  246SOL    HW3 1304   1.609   1.237   3.045
  246SOL    MW4 1305   1.575   1.170   3.088
  247SOL     OW 1306   0.814   0.478   2.367
  247SOL    HW2 1307   0.789   0.566   2.395
  247SOL    HW3 1308   0.811   0.481   2.271
  247SOL    MW4 1309   0.810   0.490   2.359
  248SOL     OW 1310   0.256   0.506   2.295
  248SOL    HW2 1311   0.288   0.594   2.277
  248SOL    HW3 1312   0.244   0.504   2.390
  248SOL    MW4 1313   0.259   0.518   2.307
  249SOL     OW 1314   0.334   0.919   3.196
  249SOL    HW2 1315   0.397   0.866   3.147
  249SOL    HW3 1316   0.315   0.993   3.139
  249SOL    MW4 1317   0.340   0.921   3.183
  250SOL     OW 1318   0.655   0.261   2.382
  250SOL    HW2 1319   0.713   0.337   2.384
  250SOL    HW3 1320   0.590   0.282   2.315
  250SOL    MW4 1321   0.654   0.273   2.373
  251SOL     OW 1322   0.742   1.188   2.557
  251SOL    HW2 1323   0.822   1.191   2.609
  251SOL    HW3 1324   0.770   1.155   2.471
  251SOL    MW4 1325   0.756   1.184   2.552
  252SOL     OW 1326   0.767   1.529   3.460
  252SOL    HW2 1327   0.851   1.555   3.499
  252SOL    HW3 1328   0.791   1.473   3.386
  252SOL    MW4 1329   0.781   1.525   3.455
  253SOL     OW 1330   0.519   0.692   2.548
  253SOL    HW2 1331   0.504   0.612   2.599
  253SOL    HW3 1332   0.601   0.727   2.582
  253SOL    MW4 1333   0.527   0.684   2.560
  254SOL     OW 1334   0.856   1.378   3.233
  254SOL    HW2 1335   0.820   1.444   3.173
  254SOL    HW3 1336   0.784   1.316   3.246
  254SOL    MW4 1337   0.842   1.378   3.227
  255SOL     OW 1338   0.661   0.518   2.925
  255SOL    HW2 1339   0.567   0.514   2.943
  255SOL    HW3 1340   0.691   0.427   2.934
  255SOL    MW4 1341   0.652   0.506   2.928
  256SOL     OW 1342   0.407   0.932   2.829
  256SOL    HW2 1343   0.362   0.939   2.745
  256SOL    HW3 1344   0.387   1.015   2.873
  256SOL    MW4 1345   0.399   0.944   2.823
  257SOL     OW 1346   0.104   1.778   2.704
  257SOL    HW2 1347   0.193   1.770   2.739
  257SOL    HW3 1348   0.068   1.690   2.709
  257SOL    MW4 1349   0.111   1.765   2.709
  258SOL     OW 1350   1.369   1.170   2.073
  258SOL    HW2 1351   1.287   1.206   2.039
  258SOL    HW3 1352   1.437   1.213   2.022
  258SOL    MW4 1353   1.367   1.180   2.061
  259SOL     OW 1354   0.368   1.305   2.739
  259SOL    HW2 1355   0.344   1.358   2.815
  259SOL    HW3 1356   0.424   1.363   2.687
  259SOL    MW4 1357   0.372   1.320   2.742
  260SOL     OW 1358   0.930   0.949   2.549
  260SOL    HW2 1359   0.844   0.936   2.589
  260SOL    HW3 1360   0.983   0.876   2.581
  260SOL    MW4 1361   0.926   0.938   2.558
  261SOL     OW 1362   0.338   1.601   3.334
  261SOL    HW2 1363   0.246   1.577   3.319
  261SOL    HW3 1364   0.382   1.518   3.351
  261SOL    MW4 1365   0.332   1.586   3.333
  262SOL     OW 1366   0.921   1.311   2.266
  262SOL    HW2 1367   0.898   1.373   2.334
  262SOL    HW3 1368   0.878   1.229   2.292
  262SOL    MW4 1369   0.913   1.307   2.277
  263SOL     OW 1370   1.794   0.312   2.722
  263SOL    HW2 1371   1.731   0.292   2.791
  263SOL    HW3 1372   1.784   0.241   2.659
  263SOL    MW4 1373   1.784   0.299   2.723
  264SOL     OW 1374   0.418   0.284   2.234
  264SOL    HW2 1375   0.392   0.246   2.150
  264SOL    HW3 1376   0.355   0.354   2.250
  264SOL    MW4 1377   0.407   0.287   2.225
  265SOL     OW 1378   0.253   1.245   2.271
  265SOL    HW2 1379   0.201   1.313   2.227
  265SOL    HW3 1380   0.250   1.171   2.211
  265SOL    MW4 1381   0.245   1.244   2.258
  266SOL     OW 1382   0.915   1.708   2.049
  266SOL    HW2 1383   0.870   1.724   2.132
  266SOL    HW3 1384   0.846   1.673   1.991
  266SOL    MW4 1385   0.901   1.705   2.051
  267SOL     OW 1386   1.850   0.481   2.024
  267SOL    HW2 1387   1.759   0.483   2.052
  267SOL    HW3 1388   1.895   0.543   2.082
  267SOL    MW4 1389   1.843   0.489   2.034
  268SOL     OW 1390   1.595   1.084   2.374
  268SOL    HW2 1391   1.505   1.084   2.409
  268SOL    HW3 1392   1.588   1.130   2.291
  268SOL    MW4 1393   1.582   1.090   2.368
  269SOL     OW 1394   1.395   0.719   3.446
  269SOL    HW2 1395   1.464   0.657   3.423
  269SOL    HW3 1396   1.320   0.693   3.393
  269SOL    MW4 1397   1.395   0.706   3.437
  270SOL     OW 1398   0.136   1.599   2.998
  270SOL    HW2 1399   0.119   1.545   3.075
  270SOL    HW3 1400   0.124   1.689   3.028
  270SOL    MW4 1401   0.133   1.603   3.012
  271SOL     OW 1402   1.131   1.106   3.438
  271SOL    HW2 1403   1.116   1.199   3.423
  271SOL    HW3 1404   1.226   1.096   3.438
  271SOL    MW4 1405   1.140   1.116   3.435
  272SOL     OW 1406   0.927   0.530   3.639
  272SOL    HW2 1407   1.017   0.531   3.606
  272SOL    HW3 1408   0.886   0.455   3.597
  272SOL    MW4 1409   0.933   0.520   3.630
  273SOL     OW 1410   1.502   1.062   2.766
  273SOL    HW2 1411   1.505   0.996   2.697
  273SOL    HW3 1412   1.587   1.105   2.762
  273SOL    MW4 1413   1.514   1.058   2.757
  274SOL     OW 1414   1.122   0.665   2.335
  274SOL    HW2 1415   1.148   0.689   2.246
  274SOL    HW3 1416   1.104   0.572   2.331
  274SOL    MW4 1417   1.124   0.657   2.322
  275SOL     OW 1418   1.787   1.285   2.186
  275SOL    HW2 1419   1.743   1.326   2.261
  275SOL    HW3 1420   1.844   1.353   2.151
  275SOL    MW4 1421   1.789   1.299   2.191
  276SOL     OW 1422   0.707   0.334   3.589
  276SOL    HW2 1423   0.717   0.260   3.529
  276SOL    HW3 1424   0.743   0.303   3.672
  276SOL    MW4 1425   0.713   0.320   3.591
  277SOL     OW 1426   0.443   1.701   2.504
  277SOL    HW2 1427   0.475   1.789   2.482
  277SOL    HW3 1428   0.396   1.673   2.426
  277SOL    MW4 1429   0.442   1.709   2.491
  278SOL     OW 1430   1.827   0.063   2.553
  278SOL    HW2 1431   1.881   0.014   2.615
  278SOL    HW3 1432   1.770  -0.003   2.514
  278SOL    MW4 1433   1.827   0.047   2.555
  279SOL     OW 1434   0.159   1.761   2.081
  279SOL    HW2 1435   0.188   1.851   2.073
  279SOL    HW3 1436   0.109   1.744   2.002
  279SOL    MW4 1437   0.157   1.769   2.070
  280SOL     OW 1438   0.946   0.016   2.966
  280SOL    HW2 1439   0.905   0.094   2.928
  280SOL    HW3 1440   1.040   0.034   2.961
  280SOL    MW4 1441   0.952   0.028   2.961
  281SOL     OW 1442   1.563   1.569   2.052
  281SOL    HW2 1443   1.611   1.638   2.098
  281SOL    HW3 1444   1.484   1.613   2.021
  281SOL    MW4 1445   1.558   1.583   2.055
  282SOL     OW 1446   0.961   0.694   1.996
  282SOL    HW2 1447   0.963   0.641   1.917
  282SOL    HW3 1448   1.049   0.731   2.002
  282SOL    MW4 1449   0.973   0.693   1.985
  283SOL     OW 1450   1.575   0.620   2.332
  283SOL    HW2 1451   1.614   0.620   2.419
  283SOL    HW3 1452   1.516   0.696   2.332
  283SOL    MW4 1453   1.572   0.631   2.343
  284SOL     OW 1454   0.892   0.987   3.461
  284SOL    HW2 1455   0.869   0.967   3.551
  284SOL    HW3 1456   0.977   1.031   3.466
  284SOL    MW4 1457   0.899   0.990   3.473
  285SOL     OW 1458   0.972   0.124   3.221
  285SOL    HW2 1459   0.978   0.086   3.134
  285SOL    HW3 1460   0.961   0.218   3.206
  285SOL    MW4 1461   0.973   0.132   3.209
  286SOL     OW 1462   1.061   0.613   3.055
  286SOL    HW2 1463   1.136   0.642   3.002
  286SOL    HW3 1464   0.993   0.678   3.039
  286SOL    MW4 1465   1.062   0.625   3.045
  287SOL     OW 1466   1.611   0.581   3.332
  287SOL    HW2 1467   1.592   0.490   3.311
  287SOL    HW3 1468   1.589   0.630   3.253
  287SOL    MW4 1469   1.606   0.574   3.319
  288SOL     OW 1470   1.753   1.675   3.236
  288SOL    HW2 1471   1.681   1.637   3.287
  288SOL    HW3 1472   1.770   1.760   3.277
  288SOL    MW4 1473   1.747   1.680   3.248
  289SOL     OW 1474   1.058   0.319   3.438
  289SOL    HW2 1475   1.024   0.358   3.357
  289SOL    HW3 1476   1.036   0.227   3.431
  289SOL    MW4 1477   1.051   0.312   3.428
  290SOL     OW 1478   1.467   1.133   3.514
  290SOL    HW2 1479   1.549   1.174   3.544
  290SOL    HW3 1480   1.430   1.095   3.594
  290SOL    MW4 1481   1.473   1.134   3.529
  291SOL     OW 1482   1.762   0.506   2.498
  291SOL    HW2 1483   1.851   0.475   2.515
  291SOL    HW3 1484   1.705   0.446   2.546
  291SOL    MW4 1485   1.765   0.494   2.507
  292SOL     OW 1486   0.188   0.220   2.527
  292SOL    HW2 1487   0.179   0.160   2.453
  292SOL    HW3 1488   0.121   0.191   2.590
  292SOL    MW4 1489   0.178   0.207   2.525
  293SOL     OW 1490   1.131   1.313   2.088
  293SOL    HW2 1491   1.081   1.315   2.170
  293SOL    HW3 1492   1.065   1.331   2.020
  293SOL    MW4 1493   1.117   1.315   2.090
  294SOL     OW 1494   0.135   0.393   2.890
  294SOL    HW2 1495   0.107   0.484   2.899
  294SOL    HW3 1496   0.072   0.354   2.829
  294SOL    MW4 1497   0.122   0.399   2.884
  295SOL     OW 1498   0.594   1.731   2.196
  295SOL    HW2 1499   0.515   1.689   2.229
  295SOL    HW3 1500   0.660   1.714   2.263
  295SOL    MW4 1501   0.593   1.723   2.209
  296SOL     OW 1502   1.722   1.251   3.593
  296SOL    HW2 1503   1.772   1.177   3.625
  296SOL    HW3 1504   1.668   1.278   3.668
  296SOL    MW4 1505   1.722   1.245   3.606
  297SOL     OW 1506   0.730   1.146   1.903
  297SOL    HW2 1507   0.652   1.092   1.890
  297SOL    HW3 1508   0.701   1.219   1.956
  297SOL    MW4 1509   0.716   1.148   1.908
  298SOL     OW 1510   1.856   0.886   3.095
  298SOL    HW2 1511   1.872   0.924   3.008
  298SOL    HW3 1512   1.890   0.952   3.156
  298SOL    MW4 1513   1.863   0.899   3.091
  299SOL     OW 1514   1.648   1.595   2.764
  299SOL    HW2 1515   1.677   1.662   2.825
  299SOL    HW3 1516   1.629   1.519   2.819
  299SOL    MW4 1517   1.650   1.595   2.779
  300SOL     OW 1518   1.311   1.662   1.971
  300SOL    HW2 1519   1.237   1.625   2.021
  300SOL    HW3 1520   1.319   1.752   2.004
  300SOL    MW4 1521   1.302   1.669   1.983
  301SOL     OW 1522   0.119   0.668   3.060
  301SOL    HW2 1523   0.181   0.698   3.126
  301SOL    HW3 1524   0.053   0.737   3.054
  301SOL    MW4 1525   0.118   0.681   3.067
  302SOL     OW 1526   1.535   1.336   1.913
  302SOL    HW2 1527   1.482   1.385   1.849
  302SOL    HW3 1528   1.566   1.402   1.974
  302SOL    MW4 1529   1.533   1.350   1.911
  303SOL     OW 1530   0.760   0.225   1.968
  303SOL    HW2 1531   0.708   0.145   1.956
  303SOL    HW3 1532   0.847   0.202   1.936
  303SOL    MW4 1533   0.763   0.211   1.962
  304SOL     OW 1534   0.214   1.777   3.512
  304SOL    HW2 1535   0.188   1.845   3.450
  304SOL    HW3 1536   0.262   1.714   3.460
  304SOL    MW4 1537   0.216   1.777   3.498
  305SOL     OW 1538   0.266   1.096   3.019
  305SOL    HW2 1539   0.319   1.171   3.044
  305SOL    HW3 1540   0.185   1.134   2.985
  305SOL    MW4 1541   0.262   1.111   3.019
  306SOL     OW 1542   0.806   1.000   3.007
  306SOL    HW2 1543   0.834   0.909   3.019
  306SOL    HW3 1544   0.735   0.994   2.943
  306SOL    MW4 1545   0.799   0.988   3.002
  307SOL     OW 1546   0.121   0.865   2.425
  307SOL    HW2 1547   0.212   0.880   2.452
  307SOL    HW3 1548   0.124   0.786   2.371
  307SOL    MW4 1549   0.133   0.857   2.423
  308SOL     OW 1550   0.357   0.573   3.679
  308SOL    HW2 1551   0.304   0.653   3.686
  308SOL    HW3 1552   0.427   0.585   3.744
  308SOL    MW4 1553   0.359   0.586   3.687
  309SOL     OW 1554   0.743   0.123   3.386
  309SOL    HW2 1555   0.720   0.031   3.388
  309SOL    HW3 1556   0.829   0.125   3.343
  309SOL    MW4 1557   0.750   0.113   3.382
  310SOL     OW 1558   0.427   0.647   3.425
  310SOL    HW2 1559   0.507   0.697   3.411
  310SOL    HW3 1560   0.418   0.641   3.520
  310SOL    MW4 1561   0.436   0.653   3.435
  311SOL     OW 1562   0.748   1.797   2.799
  311SOL    HW2 1563   0.837   1.812   2.829
  311SOL    HW3 1564   0.743   1.844   2.715
  311SOL    MW4 1565   0.758   1.805   2.792
  312SOL     OW 1566   1.404   0.172   3.696
  312SOL    HW2 1567   1.460   0.099   3.722
  312SOL    HW3 1568   1.374   0.210   3.778
  312SOL    MW4 1569   1.408   0.167   3.709
  313SOL     OW 1570   0.129   1.477   2.464
  313SOL    HW2 1571   0.101   1.516   2.546
  313SOL    HW3 1572   0.149   1.386   2.486
  313SOL    MW4 1573   0.127   1.469   2.477
  314SOL     OW 1574   0.962   1.520   2.499
  314SOL    HW2 1575   1.045   1.474   2.483
  314SOL    HW3 1576   0.952   1.519   2.595
  314SOL    MW4 1577   0.972   1.513   2.509
  315SOL     OW 1578   1.794   0.665   2.813
  315SOL    HW2 1579   1.883   0.695   2.795
  315SOL    HW3 1580   1.774   0.605   2.742
  315SOL    MW4 1581   1.803   0.662   2.802
  316SOL     OW 1582   1.645   0.844   3.693
  316SOL    HW2 1583   1.700   0.768   3.674
  316SOL    HW3 1584   1.647   0.852   3.788
  316SOL    MW4 1585   1.653   0.835   3.701
  317SOL     OW 1586   0.695   1.577   1.904
  317SOL    HW2 1587   0.635   1.646   1.874
  317SOL    HW3 1588   0.640   1.519   1.957
  317SOL    MW4 1589   0.679   1.579   1.906
  318SOL     OW 1590   1.133   0.222   2.127
  318SOL    HW2 1591   1.066   0.198   2.064
  318SOL    HW3 1592   1.198   0.271   2.076
  318SOL    MW4 1593   1.133   0.224   2.112
  319SOL     OW 1594   0.940   0.406   3.212
  319SOL    HW2 1595   0.859   0.447   3.240
  319SOL    HW3 1596   0.987   0.474   3.164
  319SOL    MW4 1597   0.935   0.421   3.210
  320SOL     OW 1598   1.200   0.744   2.835
  320SOL    HW2 1599   1.213   0.838   2.845
  320SOL    HW3 1600   1.161   0.734   2.749
  320SOL    MW4 1601   1.196   0.755   2.825
  321SOL     OW 1602   0.652   0.939   2.639
  321SOL    HW2 1603   0.563   0.930   2.672
  321SOL    HW3 1604   0.656   1.029   2.607
  321SOL    MW4 1605   0.641   0.950   2.639
  322SOL     OW 1606   1.451   0.522   2.634
  322SOL    HW2 1607   1.396   0.443   2.633
  322SOL    HW3 1608   1.433   0.563   2.718
  322SOL    MW4 1609   1.441   0.517   2.643
  323SOL     OW 1610   0.422   0.209   3.451
  323SOL    HW2 1611   0.343   0.227   3.503
  323SOL    HW3 1612   0.417   0.271   3.378
  323SOL    MW4 1613   0.412   0.219   3.448
  324SOL     OW 1614   1.070   0.726   2.591
  324SOL    HW2 1615   1.007   0.658   2.615
  324SOL    HW3 1616   1.090   0.707   2.499
  324SOL    MW4 1617   1.064   0.713   2.583
  325SOL     OW 1618   0.326   1.621   2.293
  325SOL    HW2 1619   0.287   1.668   2.219
  325SOL    HW3 1620   0.260   1.556   2.318
  325SOL    MW4 1621   0.313   1.619   2.287
  326SOL     OW 1622   0.818   1.030   2.317
  326SOL    HW2 1623   0.820   1.004   2.224
  326SOL    HW3 1624   0.876   0.967   2.360
  326SOL    MW4 1625   0.826   1.019   2.311
  327SOL     OW 1626   1.371   1.590   3.089
  327SOL    HW2 1627   1.296   1.636   3.127
  327SOL    HW3 1628   1.353   1.497   3.106
  327SOL    MW4 1629   1.360   1.584   3.097
  328SOL     OW 1630   1.375   1.798   2.519
  328SOL    HW2 1631   1.318   1.751   2.458
  328SOL    HW3 1632   1.461   1.759   2.506
  328SOL    MW4 1633   1.378   1.789   2.509
  329SOL     OW 1634   1.328   0.274   2.650
  329SOL    HW2 1635   1.356   0.206   2.711
  329SOL    HW3 1636   1.242   0.245   2.620
  329SOL    MW4 1637   1.321   0.261   2.654
  330SOL     OW 1638   0.133   1.208   2.584
  330SOL    HW2 1639   0.197   1.240   2.647
  330SOL    HW3 1640   0.182   1.144   2.532
  330SOL    MW4 1641   0.148   1.204   2.585
  331SOL     OW 1642   0.633   1.284   3.566
  331SOL    HW2 1643   0.681   1.367   3.553
  331SOL    HW3 1644   0.690   1.232   3.622
  331SOL    MW4 1645   0.647   1.288   3.572
  332SOL     OW 1646   0.209   1.526   3.706
  332SOL    HW2 1647   0.265   1.450   3.721
  332SOL    HW3 1648   0.158   1.504   3.628
  332SOL    MW4 1649   0.209   1.513   3.697
  333SOL     OW 1650   1.308   0.378   1.985
  333SOL    HW2 1651   1.281   0.444   1.921
  333SOL    HW3 1652   1.378   0.421   2.035
  333SOL    MW4 1653   1.313   0.391   1.982
  334SOL     OW 1654   0.976   0.083   1.922
  334SOL    HW2 1655   1.032   0.075   1.844
  334SOL    HW3 1656   0.953  -0.007   1.944
  334SOL    MW4 1657   0.981   0.070   1.915
  335SOL     OW 1658   1.481   0.934   2.127
  335SOL    HW2 1659   1.448   1.023   2.117
  335SOL    HW3 1660   1.446   0.905   2.212
  335SOL    MW4 1661   1.471   0.943   2.138
  336SOL     OW 1662   1.094   1.363   3.315
  336SOL    HW2 1663   1.005   1.369   3.283
  336SOL    HW3 1664   1.138   1.442   3.283
  336SOL    MW4 1665   1.089   1.373   3.307
  337SOL     OW 1666   0.387   0.031   3.657
  337SOL    HW2 1667   0.315  -0.004   3.605
  337SOL    HW3 1668   0.445   0.072   3.592
  337SOL    MW4 1669   0.385   0.032   3.642
  338SOL     OW 1670   0.411   1.521   2.956
  338SOL    HW2 1671   0.456   1.583   3.013
  338SOL    HW3 1672   0.318   1.540   2.969
  338SOL    MW4 1673   0.404   1.531   2.963
  339SOL     OW 1674   1.851   1.050   3.310
  339SOL    HW2 1675   1.766   1.063   3.269
  339SOL    HW3 1676   1.831   1.014   3.397
  339SOL    MW4 1677   1.838   1.046   3.315
  340SOL     OW 1678   0.833   1.589   3.064
  340SOL    HW2 1679   0.857   1.578   2.973
  340SOL    HW3 1680   0.756   1.646   3.062
  340SOL    MW4 1681   0.825   1.594   3.053
  341SOL     OW 1682   0.475   0.972   1.919
  341SOL    HW2 1683   0.398   0.985   1.975
  341SOL    HW3 1684   0.439   0.936   1.838
  341SOL    MW4 1685   0.461   0.968   1.916
  342SOL     OW 1686   1.128   0.945   2.162
  342SOL    HW2 1687   1.038   0.966   2.137
  342SOL    HW3 1688   1.155   1.018   2.218
  342SOL    MW4 1689   1.120   0.957   2.165
  343SOL     OW 1690   0.628   1.294   2.854
  343SOL    HW2 1691   0.621   1.273   2.948
  343SOL    HW3 1692   0.546   1.262   2.817
  343SOL    MW4 1693   0.616   1.288   2.861
  344SOL     OW 1694   1.492   0.304   3.256
  344SOL    HW2 1695   1.439   0.306   3.336
  344SOL    HW3 1696   1.477   0.217   3.219
  344SOL    MW4 1697   1.484   0.294   3.261
  345SOL     OW 1698   1.828   0.228   3.129
  345SOL    HW2 1699   1.809   0.295   3.064
  345SOL    HW3 1700   1.885   0.166   3.084
  345SOL    MW4 1701   1.832   0.229   3.115
  346SOL     OW 1702   0.074   1.386   3.517
  346SOL    HW2 1703   0.118   1.319   3.463
  346SOL    HW3 1704  -0.011   1.348   3.537
  346SOL    MW4 1705   0.069   1.372   3.513
  347SOL     OW 1706   0.757   0.061   2.569
  347SOL    HW2 1707   0.686   0.122   2.551
  347SOL    HW3 1708   0.808   0.058   2.488
  347SOL    MW4 1709   0.753   0.067   2.556
  348SOL     OW 1710   0.515   1.301   2.318
  348SOL    HW2 1711   0.508   1.333   2.408
  348SOL    HW3 1712   0.425   1.285   2.290
  348SOL    MW4 1713   0.503   1.303   2.325
  349SOL     OW 1714   1.110   1.694   3.227
  349SOL    HW2 1715   1.030   1.679   3.177
  349SOL    HW3 1716   1.117   1.789   3.234
  349SOL    MW4 1717   1.101   1.705   3.221
  350SOL     OW 1718   1.224   1.659   2.717
  350SOL    HW2 1719   1.271   1.732   2.676
  350SOL    HW3 1720   1.145   1.698   2.753
  350SOL    MW4 1721   1.219   1.674   2.716
  351SOL     OW 1722   1.632   1.754   2.992
  351SOL    HW2 1723   1.675   1.724   3.072
  351SOL    HW3 1724   1.551   1.702   2.989
  351SOL    MW4 1725   1.627   1.743   3.002
  352SOL     OW 1726   0.717   0.718   3.699
  352SOL    HW2 1727   0.787   0.660   3.671
  352SOL    HW3 1728   0.660   0.663   3.754
  352SOL    MW4 1729   0.719   0.705   3.703
  353SOL     OW 1730   1.504   0.930   3.332
  353SOL    HW2 1731   1.509   0.983   3.412
  353SOL    HW3 1732   1.466   0.847   3.360
  353SOL    MW4 1733   1.500   0.925   3.347
  354SOL     OW 1734   1.144   0.065   3.578
  354SOL    HW2 1735   1.139  -0.028   3.559
  354SOL    HW3 1736   1.227   0.076   3.624
  354SOL    MW4 1737   1.152   0.054   3.582
  355SOL     OW 1738   0.518   0.585   2.032
  355SOL    HW2 1739   0.484   0.641   2.102
  355SOL    HW3 1740   0.589   0.535   2.072
  355SOL    MW4 1741   0.524   0.586   2.046
  356SOL     OW 1742   1.614   1.336   2.854
  356SOL    HW2 1743   1.649   1.318   2.767
  356SOL    HW3 1744   1.519   1.337   2.841
  356SOL    MW4 1745   1.606   1.333   2.841
  357SOL     OW 1746   1.043   0.984   3.223
  357SOL    HW2 1747   1.086   1.019   3.301
  357SOL    HW3 1748   1.026   1.061   3.169
  357SOL    MW4 1749   1.046   0.999   3.226
  358SOL     OW 1750   1.574   0.471   2.096
  358SOL    HW2 1751   1.566   0.542   2.033
  358SOL    HW3 1752   1.592   0.515   2.179
  358SOL    MW4 1753   1.575   0.485   2.098
  359SOL     OW 1754   0.434   0.126   2.525
  359SOL    HW2 1755   0.484   0.169   2.456
  359SOL    HW3 1756   0.349   0.170   2.525
  359SOL    MW4 1757   0.431   0.139   2.516
  360SOL     OW 1758   0.193   1.188   3.385
  360SOL    HW2 1759   0.221   1.141   3.463
  360SOL    HW3 1760   0.114   1.143   3.356
  360SOL    MW4 1761   0.186   1.177   3.391
  361SOL     OW 1762   0.701   0.515   3.352
  361SOL    HW2 1763   0.673   0.603   3.376
  361SOL    HW3 1764   0.670   0.459   3.423
  361SOL    MW4 1765   0.693   0.518   3.364
  362SOL     OW 1766   1.243   0.733   2.071
  362SOL    HW2 1767   1.290   0.751   1.990
  362SOL    HW3 1768   1.209   0.817   2.099
  362SOL    MW4 1769   1.245   0.747   2.064
  363SOL     OW 1770   0.356   0.911   2.565
  363SOL    HW2 1771   0.414   0.967   2.513
  363SOL    HW3 1772   0.400   0.826   2.567
  363SOL    MW4 1773   0.369   0.908   2.558
  364SOL     OW 1774   1.496   0.263   2.402
  364SOL    HW2 1775   1.418   0.213   2.427
  364SOL    HW3 1776   1.467   0.354   2.402
  364SOL    MW4 1777   1.482   0.267   2.405
  365SOL     OW 1778   1.082   0.225   2.561
  365SOL    HW2 1779   1.102   0.300   2.505
  365SOL    HW3 1780   1.062   0.264   2.646
  365SOL    MW4 1781   1.083   0.241   2.565
  366SOL     OW 1782   0.978   1.475   1.893
  366SOL    HW2 1783   1.005   1.553   1.845
  366SOL    HW3 1784   0.885   1.490   1.912
  366SOL    MW4 1785   0.969   1.488   1.889
  367SOL     OW 1786   1.842   0.998   3.580
  367SOL    HW2 1787   1.755   0.978   3.616
  367SOL    HW3 1788   1.896   0.924   3.605
  367SOL    MW4 1789   1.837   0.987   3.588
  368SOL     OW 1790   0.063   1.511   2.737
  368SOL    HW2 1791   0.095   1.515   2.828
  368SOL    HW3 1792  -0.032   1.519   2.745
  368SOL    MW4 1793   0.055   1.514   2.750
  369SOL     OW 1794   0.018   0.637   2.284
  369SOL    HW2 1795  -0.042   0.609   2.354
  369SOL    HW3 1796   0.092   0.577   2.290
  369SOL    MW4 1797   0.020   0.626   2.293
  370SOL     OW 1798   1.586   1.849   3.718
  370SOL    HW2 1799   1.631   1.773   3.683
  370SOL    HW3 1800   1.624   1.862   3.805
  370SOL    MW4 1801   1.596   1.842   3.724
  371SOL     OW 1802   1.186   1.368   2.444
  371SOL    HW2 1803   1.209   1.319   2.522
  371SOL    HW3 1804   1.267   1.410   2.416
  371SOL    MW4 1805   1.199   1.368   2.451
  372SOL     OW 1806   0.444   0.376   3.173
  372SOL    HW2 1807   0.477   0.457   3.213
  372SOL    HW3 1808   0.417   0.402   3.085
  372SOL    MW4 1809   0.443   0.390   3.167
  373SOL     OW 1810   0.398   0.343   2.909
  373SOL    HW2 1811   0.428   0.257   2.880
  373SOL    HW3 1812   0.303   0.336   2.912
  373SOL    MW4 1813   0.390   0.332   2.907
  374SOL     OW 1814   1.227   0.552   3.600
  374SOL    HW2 1815   1.279   0.487   3.553
  374SOL    HW3 1816   1.185   0.603   3.530
  374SOL    MW4 1817   1.228   0.549   3.583
  375SOL     OW 1818   1.326   0.347   3.461
  375SOL    HW2 1819   1.233   0.331   3.448
  375SOL    HW3 1820   1.352   0.285   3.529
  375SOL    MW4 1821   1.316   0.337   3.468
  376SOL     OW 1822   0.541   0.121   2.800
  376SOL    HW2 1823   0.551   0.030   2.826
  376SOL    HW3 1824   0.497   0.117   2.715
  376SOL    MW4 1825   0.537   0.109   2.792
  377SOL     OW 1826   0.635   1.736   3.346
  377SOL    HW2 1827   0.552   1.721   3.391
  377SOL    HW3 1828   0.694   1.669   3.381
  377SOL    MW4 1829   0.633   1.726   3.356
  378SOL     OW 1830   1.692   0.443   2.971
  378SOL    HW2 1831   1.625   0.476   3.031
  378SOL    HW3 1832   1.735   0.521   2.937
  378SOL    MW4 1833   1.690   0.458   2.975
  379SOL     OW 1834   1.870   1.163   2.941
  379SOL    HW2 1835   1.863   1.103   2.866
  379SOL    HW3 1836   1.796   1.223   2.930
  379SOL    MW4 1837   1.860   1.163   2.930
  380SOL     OW 1838   1.252   1.025   2.859
  380SOL    HW2 1839   1.266   0.997   2.950
  380SOL    HW3 1840   1.338   1.056   2.831
  380SOL    MW4 1841   1.265   1.026   2.868
  381SOL     OW 1842   1.335   0.520   3.138
  381SOL    HW2 1843   1.356   0.521   3.045
  381SOL    HW3 1844   1.380   0.442   3.171
  381SOL    MW4 1845   1.342   0.510   3.130
  382SOL     OW 1846   1.828   0.651   3.680
  382SOL    HW2 1847   1.865   0.596   3.749
  382SOL    HW3 1848   1.853   0.608   3.598
  382SOL    MW4 1849   1.835   0.639   3.679
  383SOL     OW 1850   1.375   0.949   3.731
  383SOL    HW2 1851   1.441   0.897   3.685
  383SOL    HW3 1852   1.395   0.936   3.824
  383SOL    MW4 1853   1.386   0.940   3.738
  384SOL     OW 1854   1.326   0.035   2.080
  384SOL    HW2 1855   1.400   0.079   2.123
  384SOL    HW3 1856   1.250   0.089   2.102
  384SOL    MW4 1857   1.326   0.047   2.088
  385SOL     OW 1858   1.386   0.810   2.358
  385SOL    HW2 1859   1.301   0.780   2.328
  385SOL    HW3 1860   1.378   0.817   2.453
  385SOL    MW4 1861   1.374   0.808   2.367
  386SOL     OW 1862   0.462   1.273   3.089
  386SOL    HW2 1863   0.474   1.300   3.180
  386SOL    HW3 1864   0.443   1.354   3.042
  386SOL    MW4 1865   0.461   1.288   3.094
  387SOL     OW 1866   0.746   0.253   2.912
  387SOL    HW2 1867   0.719   0.255   3.003
  387SOL    HW3 1868   0.676   0.205   2.867
  387SOL    MW4 1869   0.734   0.249   2.919
  388SOL     OW 1870   0.600   1.745   3.074
  388SOL    HW2 1871   0.652   1.822   3.051
  388SOL    HW3 1872   0.609   1.737   3.169
  388SOL    MW4 1873   0.609   1.752   3.085
  389SOL     OW 1874   1.502   1.330   3.306
  389SOL    HW2 1875   1.487   1.259   3.369
  389SOL    HW3 1876   1.548   1.288   3.234
  389SOL    MW4 1877   1.508   1.314   3.306
  390SOL     OW 1878   0.576   1.061   3.423
  390SOL    HW2 1879   0.613   1.066   3.335
  390SOL    HW3 1880   0.615   1.134   3.470
  390SOL    MW4 1881   0.586   1.071   3.418
  391SOL     OW 1882   0.756   1.104   3.235
  391SOL    HW2 1883   0.815   1.050   3.288
  391SOL    HW3 1884   0.771   1.076   3.145
  391SOL    MW4 1885   0.766   1.093   3.231
  392SOL     OW 1886   0.759   0.476   2.084
  392SOL    HW2 1887   0.832   0.525   2.047
  392SOL    HW3 1888   0.775   0.385   2.058
  392SOL    MW4 1889   0.771   0.471   2.077
  393SOL     OW 1890   1.567   1.593   3.407
  393SOL    HW2 1891   1.609   1.578   3.492
  393SOL    HW3 1892   1.558   1.506   3.369
  393SOL    MW4 1893   1.571   1.581   3.414
  394SOL     OW 1894   1.227   0.072   2.998
  394SOL    HW2 1895   1.282   0.081   2.920
  394SOL    HW3 1896   1.282   0.106   3.069
  394SOL    MW4 1897   1.241   0.077   2.997
  395SOL     OW 1898   0.234   0.985   2.182
  395SOL    HW2 1899   0.171   1.001   2.111
  395SOL    HW3 1900   0.181   0.948   2.253
  395SOL    MW4 1901   0.219   0.982   2.182
  396SOL     OW 1902   0.590   1.339   2.041
  396SOL    HW2 1903   0.605   1.315   2.133
  396SOL    HW3 1904   0.498   1.317   2.025
  396SOL    MW4 1905   0.580   1.332   2.051
  397SOL     OW 1906   1.129   1.570   2.193
  397SOL    HW2 1907   1.137   1.488   2.144
  397SOL    HW3 1908   1.048   1.609   2.160
  397SOL    MW4 1909   1.119   1.565   2.183
  398SOL     OW 1910   0.388   1.728   2.762
  398SOL    HW2 1911   0.392   1.639   2.797
  398SOL    HW3 1912   0.414   1.719   2.671
  398SOL    MW4 1913   0.391   1.716   2.754
  399SOL     OW 1914   1.005   1.206   3.005
  399SOL    HW2 1915   0.937   1.140   3.021
  399SOL    HW3 1916   1.023   1.200   2.912
  399SOL    MW4 1917   0.998   1.197   2.996
  400SOL     OW 1918   0.094   1.481   3.256
  400SOL    HW2 1919   0.084   1.439   3.342
  400SOL    HW3 1920   0.015   1.534   3.246
  400SOL    MW4 1921   0.083   1.482   3.267
  401SOL     OW 1922   0.998   0.345   2.826
  401SOL    HW2 1923   0.928   0.297   2.871
  401SOL    HW3 1924   1.030   0.408   2.890
  401SOL    MW4 1925   0.993   0.347   2.840
  402SOL     OW 1926   0.649   0.781   3.446
  402SOL    HW2 1927   0.642   0.876   3.434
  402SOL    HW3 1928   0.658   0.770   3.541
  402SOL    MW4 1929   0.650   0.793   3.456
  403SOL     OW 1930   0.370   1.296   3.704
  403SOL    HW2 1931   0.442   1.298   3.641
  403SOL    HW3 1932   0.340   1.205   3.703
  403SOL    MW4 1933   0.375   1.285   3.696
  404SOL     OW 1934   1.454   0.059   3.171
  404SOL    HW2 1935   1.525   0.005   3.135
  404SOL    HW3 1936   1.453   0.038   3.264
  404SOL    MW4 1937   1.463   0.050   3.179
  405SOL     OW 1938   1.654   1.589   3.655
  405SOL    HW2 1939   1.627   1.586   3.746
  405SOL    HW3 1940   1.750   1.593   3.658
  405SOL    MW4 1941   1.664   1.589   3.667
  406SOL     OW 1942   0.465   0.451   2.639
  406SOL    HW2 1943   0.536   0.399   2.602
  406SOL    HW3 1944   0.451   0.416   2.726
  406SOL    MW4 1945   0.473   0.440   2.646
  407SOL     OW 1946   0.020   1.786   3.711
  407SOL    HW2 1947   0.070   1.764   3.633
  407SOL    HW3 1948   0.028   1.881   3.719
  407SOL    MW4 1949   0.028   1.795   3.702
  408SOL     OW 1950   0.781   1.544   2.715
  408SOL    HW2 1951   0.709   1.481   2.728
  408SOL    HW3 1952   0.742   1.629   2.733
  408SOL    MW4 1953   0.765   1.547   2.718
  409SOL     OW 1954   1.101   0.392   2.363
  409SOL    HW2 1955   1.123   0.329   2.295
  409SOL    HW3 1956   1.006   0.384   2.374
  409SOL    MW4 1957   1.091   0.383   2.355
  410SOL     OW 1958   0.186   0.082   2.295
  410SOL    HW2 1959   0.257   0.103   2.234
  410SOL    HW3 1960   0.140   0.010   2.253
  410SOL    MW4 1961   0.190   0.076   2.281
  411SOL     OW 1962   0.017   0.549   3.438
  411SOL    HW2 1963   0.081   0.615   3.413
  411SOL    HW3 1964  -0.064   0.576   3.395
  411SOL    MW4 1965   0.015   0.561   3.430
  412SOL     OW 1966   1.755   1.456   2.395
  412SOL    HW2 1967   1.725   1.389   2.456
  412SOL    HW3 1968   1.849   1.462   2.409
  412SOL    MW4 1969   1.763   1.448   2.405
  413SOL     OW 1970   1.311   1.133   2.325
  413SOL    HW2 1971   1.283   1.219   2.358
  413SOL    HW3 1972   1.339   1.149   2.235
  413SOL    MW4 1973   1.311   1.147   2.317
  414SOL     OW 1974   0.973   0.053   2.378
  414SOL    HW2 1975   1.010   0.112   2.443
  414SOL    HW3 1976   0.950   0.109   2.304
  414SOL    MW4 1977   0.974   0.068   2.377
  415SOL     OW 1978   1.826   0.935   2.800
  415SOL    HW2 1979   1.817   0.967   2.711
  415SOL    HW3 1980   1.779   0.851   2.800
  415SOL    MW4 1981   1.819   0.928   2.790
  416SOL     OW 1982   0.202   0.775   3.379
  416SOL    HW2 1983   0.223   0.844   3.317
  416SOL    HW3 1984   0.282   0.722   3.384
  416SOL    MW4 1985   0.215   0.776   3.373
  417SOL     OW 1986   1.738   0.866   2.501
  417SOL    HW2 1987   1.832   0.855   2.489
  417SOL    HW3 1988   1.714   0.938   2.442
  417SOL    MW4 1989   1.748   0.874   2.492
  418SOL     OW 1990   0.187   0.790   3.646
  418SOL    HW2 1991   0.113   0.734   3.672
  418SOL    HW3 1992   0.182   0.793   3.551
  418SOL    MW4 1993   0.176   0.783   3.636
  419SOL     OW 1994   0.353   0.077   3.096
  419SOL    HW2 1995   0.396   0.161   3.116
  419SOL    HW3 1996   0.426   0.015   3.089
  419SOL    MW4 1997   0.368   0.080   3.097
  420SOL     OW 1998   0.394   0.744   2.274
  420SOL    HW2 1999   0.394   0.839   2.259
  420SOL    HW3 2000   0.471   0.728   2.328
  420SOL    MW4 2001   0.404   0.755   2.279
  421SOL     OW 2002   1.170   0.603   3.338
  421SOL    HW2 2003   1.206   0.576   3.254
  421SOL    HW3 2004   1.083   0.637   3.317
  421SOL    MW4 2005   1.164   0.604   3.325
  422SOL     OW 2006   0.153   0.475   2.563
  422SOL    HW2 2007   0.215   0.482   2.636
  422SOL    HW3 2008   0.153   0.382   2.540
  422SOL    MW4 2009   0.161   0.464   2.570
  423SOL     OW 2010   1.700   1.815   2.095
  423SOL    HW2 2011   1.767   1.848   2.035
  423SOL    HW3 2012   1.657   1.894   2.129
  423SOL    MW4 2013   1.702   1.830   2.091
  424SOL     OW 2014   0.835   0.736   3.047
  424SOL    HW2 2015   0.793   0.654   3.023
  424SOL    HW3 2016   0.836   0.735   3.143
  424SOL    MW4 2017   0.828   0.725   3.056
  425SOL     OW 2018   1.506   1.869   3.446
  425SOL    HW2 2019   1.509   1.775   3.429
  425SOL    HW3 2020   1.529   1.877   3.538
  425SOL    MW4 2021   1.509   1.857   3.456
  426SOL     OW 2022   0.639   0.206   3.152
  426SOL    HW2 2023   0.570   0.269   3.173
  426SOL    HW3 2024   0.666   0.170   3.237
  426SOL    MW4 2025   0.633   0.209   3.165
  427SOL     OW 2026   0.022   1.047   2.021
  427SOL    HW2 2027  -0.009   1.112   2.084
  427SOL    HW3 2028  -0.029   0.969   2.040
  427SOL    MW4 2029   0.012   1.044   2.031
  428SOL     OW 2030   1.434   0.059   2.769
  428SOL    HW2 2031   1.522   0.068   2.806
  428SOL    HW3 2032   1.444   0.000   2.695
  428SOL    MW4 2033   1.448   0.053   2.763
  429SOL     OW 2034   1.466   0.798   2.613
  429SOL    HW2 2035   1.546   0.813   2.562
  429SOL    HW3 2036   1.459   0.703   2.619
  429SOL    MW4 2037   1.475   0.787   2.608
  430SOL     OW 2038   0.606   1.847   1.963
  430SOL    HW2 2039   0.511   1.847   1.955
  430SOL    HW3 2040   0.622   1.793   2.041
  430SOL    MW4 2041   0.596   1.841   1.972
  431SOL     OW 2042   0.916   0.724   3.310
  431SOL    HW2 2043   0.985   0.791   3.307
  431SOL    HW3 2044   0.849   0.762   3.366
  431SOL    MW4 2045   0.917   0.737   3.317
  432SOL     OW 2046   0.334   1.024   3.558
  432SOL    HW2 2047   0.288   0.940   3.560
  432SOL    HW3 2048   0.391   1.018   3.482
  432SOL    MW4 2049   0.336   1.012   3.550
  433SOL     OW 2050   1.451   0.667   1.879
  433SOL    HW2 2051   1.379   0.643   1.821
  433SOL    HW3 2052   1.517   0.704   1.821
  433SOL    MW4 2053   1.450   0.669   1.864
  434SOL     OW 2054   0.585   1.399   2.559
  434SOL    HW2 2055   0.650   1.332   2.580
  434SOL    HW3 2056   0.637   1.476   2.536
  434SOL    MW4 2057   0.600   1.401   2.558
  435SOL     OW 2058   0.846   0.564   2.689
  435SOL    HW2 2059   0.786   0.582   2.761
  435SOL    HW3 2060   0.880   0.476   2.708
  435SOL    MW4 2061   0.842   0.554   2.702
  436SOL     OW 2062   1.787   0.063   3.358
  436SOL    HW2 2063   1.708   0.109   3.386
  436SOL    HW3 2064   1.822   0.117   3.287
  436SOL    MW4 2065   1.781   0.076   3.352
  437SOL     OW 2066   1.071   1.147   2.708
  437SOL    HW2 2067   1.163   1.128   2.726
  437SOL    HW3 2068   1.044   1.077   2.648
  437SOL    MW4 2069   1.079   1.135   2.702
  438SOL     OW 2070   0.864   0.967   2.063
  438SOL    HW2 2071   0.850   0.879   2.028
  438SOL    HW3 2072   0.815   1.024   2.004
  438SOL    MW4 2073   0.856   0.962   2.051
  439SOL     OW 2074   1.345   1.385   2.804
  439SOL    HW2 2075   1.318   1.469   2.769
  439SOL    HW3 2076   1.305   1.380   2.891
  439SOL    MW4 2077   1.338   1.394   2.810
  440SOL     OW 2078   1.264   1.333   3.072
  440SOL    HW2 2079   1.275   1.300   3.161
  440SOL    HW3 2080   1.183   1.292   3.041
  440SOL    MW4 2081   1.254   1.325   3.078
  441SOL     OW 2082   0.277   0.691   2.842
  441SOL    HW2 2083   0.227   0.690   2.923
  441SOL    HW3 2084   0.297   0.783   2.826
  441SOL    MW4 2085   0.273   0.703   2.850
  442SOL     OW 2086   1.344   1.455   3.604
  442SOL    HW2 2087   1.344   1.549   3.620
  442SOL    HW3 2088   1.389   1.445   3.520
  442SOL    MW4 2089   1.350   1.465   3.595
  443SOL     OW 2090   1.583   0.173   2.165
  443SOL    HW2 2091   1.576   0.177   2.260
  443SOL    HW3 2092   1.595   0.264   2.138
  443SOL    MW4 2093   1.584   0.186   2.173
  444SOL     OW 2094   0.872   0.736   2.279
  444SOL    HW2 2095   0.852   0.722   2.186
  444SOL    HW3 2096   0.965   0.715   2.286
  444SOL    MW4 2097   0.882   0.731   2.268
  445SOL     OW 2098   0.199   0.359   3.583
  445SOL    HW2 2099   0.156   0.418   3.520
  445SOL    HW3 2100   0.267   0.414   3.623
  445SOL    MW4 2101   0.203   0.374   3.580
  446SOL     OW 2102   1.311   0.979   3.128
  446SOL    HW2 2103   1.374   0.976   3.201
  446SOL    HW3 2104   1.227   0.997   3.170
  446SOL    MW4 2105   1.307   0.981   3.143
  447SOL     OW 2106   0.855   1.694   2.317
  447SOL    HW2 2107   0.913   1.765   2.344
  447SOL    HW3 2108   0.878   1.622   2.375
  447SOL    MW4 2109   0.866   1.694   2.328
  448SOL     OW 2110   1.650   0.156   2.907
  448SOL    HW2 2111   1.695   0.074   2.926
  448SOL    HW3 2112   1.670   0.212   2.983
  448SOL    MW4 2113   1.660   0.152   2.919
  449SOL     OW 2114   0.098  -0.001   3.006
  449SOL    HW2 2115   0.089   0.000   2.911
  449SOL    HW3 2116   0.192   0.011   3.021
  449SOL    MW4 2117   0.110   0.002   2.997
  450SOL     OW 2118   1.735   1.192   2.626
  450SOL    HW2 2119   1.714   1.138   2.549
  450SOL    HW3 2120   1.831   1.190   2.630
  450SOL    MW4 2121   1.744   1.185   2.615
  451SOL     OW 2122   0.427   1.337   3.369
  451SOL    HW2 2123   0.348   1.287   3.392
  451SOL    HW3 2124   0.497   1.296   3.419
  451SOL    MW4 2125   0.425   1.325   3.379
  452SOL     OW 2126   0.311   0.126   2.052
  452SOL    HW2 2127   0.240   0.181   2.020
  452SOL    HW3 2128   0.353   0.092   1.973
  452SOL    MW4 2129   0.307   0.128   2.038
  453SOL     OW 2130   1.435   0.623   2.888
  453SOL    HW2 2131   1.358   0.669   2.854
  453SOL    HW3 2132   1.492   0.692   2.922
  453SOL    MW4 2133   1.432   0.638   2.888
  454SOL     OW 2134   0.067   0.225   1.901
  454SOL    HW2 2135   0.034   0.304   1.945
  454SOL    HW3 2136   0.122   0.258   1.830
  454SOL    MW4 2137   0.070   0.239   1.898
  455SOL     OW 2138   0.101   1.482   2.090
  455SOL    HW2 2139   0.118   1.566   2.132
  455SOL    HW3 2140   0.136   1.491   2.002
  455SOL    MW4 2141   0.106   1.495   2.084
  456SOL     OW 2142   1.373   1.571   2.307
  456SOL    HW2 2143   1.436   1.561   2.236
  456SOL    HW3 2144   1.290   1.591   2.262
  456SOL    MW4 2145   1.370   1.572   2.292
  457SOL     OW 2146   1.736   0.839   3.993
  457SOL    HW2 2147   1.777   0.781   4.058
  457SOL    HW3 2148   1.643   0.831   4.010
  457SOL    MW4 2149   1.730   0.831   4.003
  458SOL     OW 2150   1.602   0.771   4.988
  458SOL    HW2 2151   1.557   0.838   5.039
  458SOL    HW3 2152   1.690   0.807   4.974
  458SOL    MW4 2153   1.608   0.784   4.992
  459SOL     OW 2154   0.530   1.022   4.222
  459SOL    HW2 2155   0.620   0.997   4.206
  459SOL    HW3 2156   0.526   1.115   4.199
  459SOL    MW4 2157   0.542   1.031   4.217
  460SOL     OW 2158   1.646   1.725   4.364
  460SOL    HW2 2159   1.658   1.671   4.442
  460SOL    HW3 2160   1.683   1.673   4.293
  460SOL    MW4 2161   1.652   1.710   4.365
  461SOL     OW 2162   1.025   1.610   5.365
  461SOL    HW2 2163   1.066   1.646   5.286
  461SOL    HW3 2164   1.060   1.521   5.372
  461SOL    MW4 2165   1.036   1.603   5.356
  462SOL     OW 2166   1.582   1.165   4.969
  462SOL    HW2 2167   1.503   1.130   4.927
  462SOL    HW3 2168   1.609   1.237   4.913
  462SOL    MW4 2169   1.575   1.170   4.956
  463SOL     OW 2170   0.814   0.478   4.235
  463SOL    HW2 2171   0.789   0.566   4.263
  463SOL    HW3 2172   0.811   0.481   4.139
  463SOL    MW4 2173   0.810   0.490   4.227
  464SOL     OW 2174   0.256   0.506   4.163
  464SOL    HW2 2175   0.288   0.594   4.145
  464SOL    HW3 2176   0.244   0.504   4.258
  464SOL    MW4 2177   0.259   0.518   4.175
  465SOL     OW 2178   0.334   0.919   5.064
  465SOL    HW2 2179   0.397   0.866   5.015
  465SOL    HW3 2180   0.315   0.993   5.007
  465SOL    MW4 2181   0.340   0.921   5.051
  466SOL     OW 2182   0.655   0.261   4.250
  466SOL    HW2 2183   0.713   0.337   4.252
  466SOL    HW3 2184   0.590   0.282   4.183
  466SOL    MW4 2185   0.654   0.273   4.241
  467SOL     OW 2186   0.742   1.188   4.425
  467SOL    HW2 2187   0.822   1.191   4.477
  467SOL    HW3 2188   0.770   1.155   4.339
  467SOL    MW4 2189   0.756   1.184   4.420
  468SOL     OW 2190   0.767   1.529   5.328
  468SOL    HW2 2191   0.851   1.555   5.367
  468SOL    HW3 2192   0.791   1.473   5.254
  468SOL    MW4 2193   0.781   1.525   5.323
  469SOL     OW 2194   0.519   0.692   4.416
  469SOL    HW2 2195   0.504   0.612   4.467
  469SOL    HW3 2196   0.601   0.727   4.450
  469SOL    MW4 2197   0.527   0.684   4.428
  470SOL     OW 2198   0.856   1.378   5.101
  470SOL    HW2 2199   0.820   1.444   5.041
  470SOL    HW3 2200   0.784   1.316   5.114
  470SOL    MW4 2201   0.842   1.378   5.095
  471SOL     OW 2202   0.661   0.518   4.793
  471SOL    HW2 2203   0.567   0.514   4.811
  471SOL    HW3 2204   0.691   0.427   4.802
  471SOL    MW4 2205   0.652   0.506   4.796
  472SOL     OW 2206   0.407   0.932   4.697
  472SOL    HW2 2207   0.362   0.939   4.613
  472SOL    HW3 2208   0.387   1.015   4.741
  472SOL    MW4 2209   0.399   0.944   4.691
  473SOL     OW 2210   0.104   1.778   4.572
  473SOL    HW2 2211   0.193   1.770   4.607
  473SOL    HW3 2212   0.068   1.690   4.577
  473SOL    MW4 2213   0.111   1.765   4.577
  474SOL     OW 2214   1.369   1.170   3.941
  474SOL    HW2 2215   1.287   1.206   3.907
  474SOL    HW3 2216   1.437   1.213   3.890
  474SOL    MW4 2217   1.367   1.180   3.929
  475SOL     OW 2218   0.368   1.305   4.607
  475SOL    HW2 2219   0.344   1.358   4.683
  475SOL    HW3 2220   0.424   1.363   4.555
  475SOL    MW4 2221   0.372   1.320   4.610
  476SOL     OW 2222   0.930   0.949   4.417
  476SOL    HW2 2223   0.844   0.936   4.457
  476SOL    HW3 2224   0.983   0.876   4.449
  476SOL    MW4 2225   0.926   0.938   4.426
  477SOL     OW 2226   0.338   1.601   5.202
  477SOL    HW2 2227   0.246   1.577   5.187
  477SOL    HW3 2228   0.382   1.518   5.219
  477SOL    MW4 2229   0.332   1.586   5.201
  478SOL     OW 2230   0.921   1.311   4.134
  478SOL    HW2 2231   0.898   1.373   4.202
  478SOL    HW3 2232   0.878   1.229   4.160
  478SOL    MW4 2233   0.913   1.307   4.145
  479SOL     OW 2234   1.794   0.312   4.590
  479SOL    HW2 2235   1.731   0.292   4.659
  479SOL    HW3 2236   1.784   0.241   4.527
  479SOL    MW4 2237   1.784   0.299   4.591
  480SOL     OW 2238   0.418   0.284   4.102
  480SOL    HW2 2239   0.392   0.246   4.018
  480SOL    HW3 2240   0.355   0.354   4.118
  480SOL    MW4 2241   0.407   0.287   4.093
  481SOL     OW 2242   0.253   1.245   4.139
  481SOL    HW2 2243   0.201   1.313   4.095
  481SOL    HW3 2244   0.250   1.171   4.079
  481SOL    MW4 2245   0.245   1.244   4.126
  482SOL     OW 2246   0.915   1.708   3.917
  482SOL    HW2 2247   0.870   1.724   4.000
  482SOL    HW3 2248   0.846   1.673   3.859
  482SOL    MW4 2249   0.901   1.705   3.919
  483SOL     OW 2250   1.850   0.481   3.892
  483SOL    HW2 2251   1.759   0.483   3.920
  483SOL    HW3 2252   1.895   0.543   3.950
  483SOL    MW4 2253   1.843   0.489   3.902
  484SOL     OW 2254   1.595   1.084   4.242
  484SOL    HW2 2255   1.505   1.084   4.277
  484SOL    HW3 2256   1.588   1.130   4.159
  484SOL    MW4 2257   1.582   1.090   4.236
  485SOL     OW 2258   1.395   0.719   5.314
  485SOL    HW2 2259   1.464   0.657   5.291
  485SOL    HW3 2260   1.320   0.693   5.261
  485SOL    MW4 2261   1.395   0.706   5.305
  486SOL     OW 2262   0.136   1.599   4.866
  486SOL    HW2 2263   0.119   1.545   4.943
  486SOL    HW3 2264   0.124   1.689   4.896
  486SOL    MW4 2265   0.133   1.603   4.880
  487SOL     OW 2266   1.131   1.106   5.306
  487SOL    HW2 2267   1.116   1.199   5.291
  487SOL    HW3 2268   1.226   1.096   5.306
  487SOL    MW4 2269   1.140   1.116   5.303
  488SOL     OW 2270   0.927   0.530   5.507
  488SOL    HW2 2271   1.017   0.531   5.474
  488SOL    HW3 2272   0.886   0.455   5.465
  488SOL    MW4 2273   0.933   0.520   5.498
  489SOL     OW 2274   1.502   1.062   4.634
  489SOL    HW2 2275   1.505   0.996   4.565
  489SOL    HW3 2276   1.587   1.105   4.630
  489SOL    MW4 2277   1.514   1.058   4.625
  490SOL     OW 2278   1.122   0.665   4.203
  490SOL    HW2 2279   1.148   0.689   4.114
  490SOL    HW3 2280   1.104   0.572   4.199
  490SOL    MW4 2281   1.124   0.657   4.190
  491SOL     OW 2282   1.787   1.285   4.054
  491SOL    HW2 2283   1.743   1.326   4.129
  491SOL    HW3 2284   1.844   1.353   4.019
  491SOL    MW4 2285   1.789   1.299   4.059
  492SOL     OW 2286   0.707   0.334   5.457
  492SOL    HW2 2287   0.717   0.260   5.397
  492SOL    HW3 2288   0.743   0.303   5.540
  492SOL    MW4 2289   0.713   0.320   5.459
  493SOL     OW 2290   0.443   1.701   4.372
  493SOL    HW2 2291   0.475   1.789   4.350
  493SOL    HW3 2292   0.396   1.673   4.294
  493SOL    MW4 2293   0.442   1.709   4.359
  494SOL     OW 2294   1.827   0.063   4.421
  494SOL    HW2 2295   1.881   0.014   4.483
  494SOL    HW3 2296   1.770  -0.003   4.382
  494SOL    MW4 2297   1.827   0.047   4.423
  495SOL     OW 2298   0.159   1.761   3.949
  495SOL    HW2 2299   0.188   1.851   3.941
  495SOL    HW3 2300   0.109   1.744   3.870
  495SOL    MW4 2301   0.157   1.769   3.938
  496SOL     OW 2302   0.946   0.016   4.834
  496SOL    HW2 2303   0.905   0.094   4.796
  496SOL    HW3 2304   1.040   0.034   4.829
  496SOL    MW4 2305   0.952   0.028   4.829
  497SOL     OW 2306   1.563   1.569   3.920
  497SOL    HW2 2307   1.611   1.638   3.966
  497SOL    HW3 2308   1.484   1.613   3.889
  497SOL    MW4 2309   1.558   1.583   3.923
  498SOL     OW 2310   0.961   0.694   3.864
  498SOL    HW2 2311   0.963   0.641   3.785
  498SOL    HW3 2312   1.049   0.731   3.870
  498SOL    MW4 2313   0.973   0.693   3.853
  499SOL     OW 2314   1.575   0.620   4.200
  499SOL    HW2 2315   1.614   0.620   4.287
  499SOL    HW3 2316   1.516   0.696   4.200
  499SOL    MW4 2317   1.572   0.631   4.211
  500SOL     OW 2318   0.892   0.987   5.329
  500SOL    HW2 2319   0.869   0.967   5.419
  500SOL    HW3 2320   0.977   1.031   5.334
  500SOL    MW4 2321   0.899   0.990   5.341
  501SOL     OW 2322   0.972   0.124   5.089
  501SOL    HW2 2323   0.978   0.086   5.002
  501SOL    HW3 2324   0.961   0.218   5.074
  501SOL    MW4 2325   0.973   0.132   5.077
  502SOL     OW 2326   1.061   0.613   4.923
  502SOL    HW2 2327   1.136   0.642   4.870
  502SOL    HW3 2328   0.993   0.678   4.907
  502SOL    MW4 2329   1.062   0.625   4.913
  503SOL     OW 2330   1.611   0.581   5.200
  503SOL    HW2 2331   1.592   0.490   5.179
  503SOL    HW3 2332   1.589   0.630   5.121
  503SOL    MW4 2333   1.606   0.574   5.187
  504SOL     OW 2334   1.753   1.675   5.104
  504SOL    HW2 2335   1.681   1.637   5.155
  504SOL    HW3 2336   1.770   1.760   5.145
  504SOL    MW4 2337   1.747   1.680   5.116
  505SOL     OW 2338   1.058   0.319   5.306
  505SOL    HW2 2339   1.024   0.358   5.225
  505SOL    HW3 2340   1.036   0.227   5.299
  505SOL    MW4 2341   1.051   0.312   5.296
  506SOL     OW 2342   1.467   1.133   5.382
  506SOL    HW2 2343   1.549   1.174   5.412
  506SOL    HW3 2344   1.430   1.095   5.462
  506SOL    MW4 2345   1.473   1.134   5.397
  507SOL     OW 2346   1.762   0.506   4.366
  507SOL    HW2 2347   1.851   0.475   4.383
  507SOL    HW3 2348   1.705   0.446   4.414
  507SOL    MW4 2349   1.765   0.494   4.375
  508SOL     OW 2350   0.188   0.220   4.395
  508SOL    HW2 2351   0.179   0.160   4.321
  508SOL    HW3 2352   0.121   0.191   4.458
  508SOL    MW4 2353   0.178   0.207   4.393
  509SOL     OW 2354   1.131   1.313   3.956
  509SOL    HW2 2355   1.081   1.315   4.038
  509SOL    HW3 2356   1.065   1.331   3.888
  509SOL    MW4 2357   1.117   1.315   3.958
  510SOL     OW 2358   0.135   0.393   4.758
  510SOL    HW2 2359   0.107   0.484   4.767
  510SOL    HW3 2360   0.072   0.354   4.697
  510SOL    MW4 2361   0.122   0.399   4.752
  511SOL     OW 2362   0.594   1.731   4.064
  511SOL    HW2 2363   0.515   1.689   4.097
  511SOL    HW3 2364   0.660   1.714   4.131
  511SOL    MW4 2365   0.593   1.723   4.077
  512SOL     OW 2366   1.722   1.251   5.461
  512SOL    HW2 2367   1.772   1.177   5.493
  512SOL    HW3 2368   1.668   1.278   5.536
  512SOL    MW4 2369   1.722   1.245   5.474
  513SOL     OW 2370   0.730   1.146   3.771
  513SOL    HW2 2371   0.652   1.092   3.758
  513SOL    HW3 2372   0.701   1.219   3.824
  513SOL    MW4 2373   0.716   1.148   3.776
  514SOL     OW 2374   1.856   0.886   4.963
  514SOL    HW2 2375   1.872   0.924   4.876
  514SOL    HW3 2376   1.890   0.952   5.024
  514SOL    MW4 2377   1.863   0.899   4.959
  515SOL     OW 2378   1.648   1.595   4.632
  515SOL    HW2 2379   1.677   1.662   4.693
  515SOL    HW3 2380   1.629   1.519   4.687
  515SOL    MW4 2381   1.650   1.595   4.647
  516SOL     OW 2382   1.311   1.662   3.839
  516SOL    HW2 2383   1.237   1.625   3.889
  516SOL    HW3 2384   1.319   1.752   3.872
  516SOL    MW4 2385   1.302   1.669   3.851
  517SOL     OW 2386   0.119   0.668   4.928
  517SOL    HW2 2387   0.181   0.698   4.994
  517SOL    HW3 2388   0.053   0.737   4.922
  517SOL    MW4 2389   0.118   0.681   4.935
  518SOL     OW 2390   1.535   1.336   3.781
  518SOL    HW2 2391   1.482   1.385   3.717
  518SOL    HW3 2392   1.566   1.402   3.842
  518SOL    MW4 2393   1.533   1.350   3.779
  519SOL     OW 2394   0.760   0.225   3.836
  519SOL    HW2 2395   0.708   0.145   3.824
  519SOL    HW3 2396   0.847   0.202   3.804
  519SOL    MW4 2397   0.763   0.211   3.830
  520SOL     OW 2398   0.214   1.777   5.380
  520SOL    HW2 2399   0.188   1.845   5.318
  520SOL    HW3 2400   0.262   1.714   5.328
  520SOL    MW4 2401   0.216   1.777   5.366
  521SOL     OW 2402   0.266   1.096   4.887
  521SOL    HW2 2403   0.319   1.171   4.912
  521SOL    HW3 2404   0.185   1.134   4.853
  521SOL    MW4 2405   0.262   1.111   4.887
  522SOL     OW 2406   0.806   1.000   4.875
  522SOL    HW2 2407   0.834   0.909   4.887
  522SOL    HW3 2408   0.735   0.994   4.811
  522SOL    MW4 2409   0.799   0.988   4.870
  523SOL     OW 2410   0.121   0.865   4.293
  523SOL    HW2 2411   0.212   0.880   4.320
  523SOL    HW3 2412   0.124   0.786   4.239
  523SOL    MW4 2413   0.133   0.857   4.291
  524SOL     OW 2414   0.357   0.573   5.547
  524SOL    HW2 2415   0.304   0.653   5.554
  524SOL    HW3 2416   0.427   0.585   5.612
  524SOL    MW4 2417   0.359   0.586   5.555
  525SOL     OW 2418   0.743   0.123   5.254
  525SOL    HW2 2419   0.720   0.031   5.256
  525SOL    HW3 2420   0.829   0.125   5.211
  525SOL    MW4 2421   0.750   0.113   5.250
  526SOL     OW 2422   0.427   0.647   5.293
  526SOL    HW2 2423   0.507   0.697   5.279
  526SOL    HW3 2424   0.418   0.641   5.388
  526SOL    MW4 2425   0.436   0.653   5.303
  527SOL     OW 2426   0.748   1.797   4.667
  527SOL    HW2 2427   0.837   1.812   4.697
  527SOL    HW3 2428   0.743   1.844   4.583
  527SOL    MW4 2429   0.758   1.805   4.660
  528SOL     OW 2430   1.404   0.172   5.564
  528SOL    HW2 2431   1.460   0.099   5.590
  528SOL    HW3 2432   1.374   0.210   5.646
  528SOL    MW4 2433   1.408   0.167   5.577
  529SOL     OW 2434   0.129   1.477   4.332
  529SOL    HW2 2435   0.101   1.516   4.414
  529SOL    HW3 2436   0.149   1.386   4.354
  529SOL    MW4 2437   0.127   1.469   4.345
  530SOL     OW 2438   0.962   1.520   4.367
  530SOL    HW2 2439   1.045   1.474   4.351
  530SOL    HW3 2440   0.952   1.519   4.463
  530SOL    MW4 2441   0.972   1.513   4.377
  531SOL     OW 2442   1.794   0.665   4.681
  531SOL    HW2 2443   1.883   0.695   4.663
  531SOL    HW3 2444   1.774   0.605   4.610
  531SOL    MW4 2445   1.803   0.662   4.670
  532SOL     OW 2446   1.645   0.844   5.561
  532SOL    HW2 2447   1.700   0.768   5.542
  532SOL    HW3 2448   1.647   0.852   5.656
  532SOL    MW4 2449   1.653   0.835   5.569
  533SOL     OW 2450   0.695   1.577   3.772
  533SOL    HW2 2451   0.635   1.646   3.742
  533SOL    HW3 2452   0.640   1.519   3.825
  533SOL    MW4 2453   0.679   1.579   3.774
  534SOL     OW 2454   1.133   0.222   3.995
  534SOL    HW2 2455   1.066   0.198   3.932
  534SOL    HW3 2456   1.198   0.271   3.944
  534SOL    MW4 2457   1.133   0.224   3.980
  535SOL     OW 2458   0.940   0.406   5.080
  535SOL    HW2 2459   0.859   0.447   5.108
  535SOL    HW3 2460   0.987   0.474   5.032
  535SOL    MW4 2461   0.935   0.421   5.078
  536SOL     OW 2462   1.200   0.744   4.703
  536SOL    HW2 2463   1.213   0.838   4.713
  536SOL    HW3 2464   1.161   0.734   4.617
  536SOL    MW4 2465   1.196   0.755   4.693
  537SOL     OW 2466   0.652   0.939   4.507
  537SOL    HW2 2467   0.563   0.930   4.540
  537SOL    HW3 2468   0.656   1.029   4.475
  537SOL    MW4 2469   0.641   0.950   4.507
  538SOL     OW 2470   1.451   0.522   4.502
  538SOL    HW2 2471   1.396   0.443   4.501
  538SOL    HW3 2472   1.433   0.563   4.586
  538SOL    MW4 2473   1.441   0.517   4.511
  539SOL     OW 2474   0.422   0.209   5.319
  539SOL    HW2 2475   0.343   0.227   5.371
  539SOL    HW3 2476   0.417   0.271   5.246
  539SOL    MW4 2477   0.412   0.219   5.316
  540SOL     OW 2478   1.070   0.726   4.459
  540SOL    HW2 2479   1.007   0.658   4.483
  540SOL    HW3 2480   1.090   0.707   4.367
  540SOL    MW4 2481   1.064   0.713   4.451
  541SOL     OW 2482   0.326   1.621   4.161
  541SOL    HW2 2483   0.287   1.668   4.087
  541SOL    HW3 2484   0.260   1.556   4.186
  541SOL    MW4 2485   0.313   1.619   4.155
  542SOL     OW 2486   0.818   1.030   4.185
  542SOL    HW2 2487   0.820   1.004   4.092
  542SOL    HW3 2488   0.876   0.967   4.228
  542SOL    MW4 2489   0.826   1.019   4.179
  543SOL     OW 2490   1.371   1.590   4.957
  543SOL    HW2 2491   1.296   1.636   4.995
  543SOL    HW3 2492   1.353   1.497   4.974
  543SOL    MW4 2493   1.360   1.584   4.965
  544SOL     OW 2494   1.375   1.798   4.387
  544SOL    HW2 2495   1.318   1.751   4.326
  544SOL    HW3 2496   1.461   1.759   4.374
  544SOL    MW4 2497   1.378   1.789   4.377
  545SOL     OW 2498   1.328   0.274   4.518
  545SOL    HW2 2499   1.356   0.206   4.579
  545SOL    HW3 2500   1.242   0.245   4.488
  545SOL    MW4 2501   1.321   0.261   4.522
  546SOL     OW 2502   0.133   1.208   4.452
  546SOL    HW2 2503   0.197   1.240   4.515
  546SOL    HW3 2504   0.182   1.144   4.400
  546SOL    MW4 2505   0.148   1.204   4.453
  547SOL     OW 2506   0.633   1.284   5.434
  547SOL    HW2 2507   0.681   1.367   5.421
  547SOL    HW3 2508   0.690   1.232   5.490
  547SOL    MW4 2509   0.647   1.288   5.440
  548SOL     OW 2510   0.209   1.526   5.574
  548SOL    HW2 2511   0.265   1.450   5.589
  548SOL    HW3 2512   0.158   1.504   5.496
  548SOL    MW4 2513   0.209   1.513   5.565
  549SOL     OW 2514   1.308   0.378   3.853
  549SOL    HW2 2515   1.281   0.444   3.789
  549SOL    HW3 2516   1.378   0.421   3.903
  549SOL    MW4 2517   1.313   0.391   3.850
  550SOL     OW 2518   0.976   0.083   3.790
  550SOL    HW2 2519   1.032   0.075   3.712
  550SOL    HW3 2520   0.953  -0.007   3.812
  550SOL    MW4 2521   0.981   0.070   3.783
  551SOL     OW 2522   1.481   0.934   3.995
  551SOL    HW2 2523   1.448   1.023   3.985
  551SOL    HW3 2524   1.446   0.905   4.080
  551SOL    MW4 2525   1.471   0.943   4.006
  552SOL     OW 2526   1.094   1.363   5.183
  552SOL    HW2 2527   1.005   1.369   5.151
  552SOL    HW3 2528   1.138   1.442   5.151
  552SOL    MW4 2529   1.089   1.373   5.175
  553SOL     OW 2530   0.387   0.031   5.525
  553SOL    HW2 2531   0.315  -0.004   5.473
  553SOL    HW3 2532   0.445   0.072   5.460
  553SOL    MW4 2533   0.385   0.032   5.510
  554SOL     OW 2534   0.411   1.521   4.824
  554SOL    HW2 2535   0.456   1.583   4.881
  554SOL    HW3 2536   0.318   1.540   4.837
  554SOL    MW4 2537   0.404   1.531   4.831
  555SOL     OW 2538   1.851   1.050   5.178
  555SOL    HW2 2539   1.766   1.063   5.137
  555SOL    HW3 2540   1.831   1.014   5.265
  555SOL    MW4 2541   1.838   1.046   5.183
  556SOL     OW 2542   0.833   1.589   4.932
  556SOL    HW2 2543   0.857   1.578   4.841
  556SOL    HW3 2544   0.756   1.646   4.930
  556SOL    MW4 2545   0.825   1.594   4.921
  557SOL     OW 2546   0.475   0.972   3.787
  557SOL    HW2 2547   0.398   0.985   3.843
  557SOL    HW3 2548   0.439   0.936   3.706
  557SOL    MW4 2549   0.461   0.968   3.784
  558SOL     OW 2550   1.128   0.945   4.030
  558SOL    HW2 2551   1.038   0.966   4.005
  558SOL    HW3 2552   1.155   1.018   4.086
  558SOL    MW4 2553   1.120   0.957   4.033
  559SOL     OW 2554   0.628   1.294   4.722
  559SOL    HW2 2555   0.621   1.273   4.816
  559SOL    HW3 2556   0.546   1.262   4.685
  559SOL    MW4 2557   0.616   1.288   4.729
  560SOL     OW 2558   1.492   0.304   5.124
  560SOL    HW2 2559   1.439   0.306   5.204
  560SOL    HW3 2560   1.477   0.217   5.087
  560SOL    MW4 2561   1.484   0.294   5.129
  561SOL     OW 2562   1.828   0.228   4.997
  561SOL    HW2 2563   1.809   0.295   4.932
  561SOL    HW3 2564   1.885   0.166   4.952
  561SOL    MW4 2565   1.832   0.229   4.983
  562SOL     OW 2566   0.074   1.386   5.385
  562SOL    HW2 2567   0.118   1.319   5.331
  562SOL    HW3 2568  -0.011   1.348   5.405
  562SOL    MW4 2569   0.069   1.372   5.381
  563SOL     OW 2570   0.757   0.061   4.437
  563SOL    HW2 2571   0.686   0.122   4.419
  563SOL    HW3 2572   0.808   0.058   4.356
  563SOL    MW4 2573   0.753   0.067   4.424
  564SOL     OW 2574   0.515   1.301   4.186
  564SOL    HW2 2575   0.508   1.333   4.276
  564SOL    HW3 2576   0.425   1.285   4.158
  564SOL    MW4 2577   0.503   1.303   4.193
  565SOL     OW 2578   1.110   1.694   5.095
  565SOL    HW2 2579   1.030   1.679   5.045
  565SOL    HW3 2580   1.117   1.789   5.102
  565SOL    MW4 2581   1.101   1.705   5.089
  566SOL     OW 2582   1.224   1.659   4.585
  566SOL    HW2 2583   1.271   1.732   4.544
  566SOL    HW3 2584   1.145   1.698   4.621
  566SOL    MW4 2585   1.219   1.674   4.584
  567SOL     OW 2586   1.632   1.754   4.860
  567SOL    HW2 2587   1.675   1.724   4.940
  567SOL    HW3 2588   1.551   1.702   4.857
  567SOL    MW4 2589   1.627   1.743   4.870
  568SOL     OW 2590   0.717   0.718   5.567
  568SOL    HW2 2591   0.787   0.660   5.539
  568SOL    HW3 2592   0.660   0.663   5.622
  568SOL    MW4 2593   0.719   0.705   5.571
  569SOL     OW 2594   1.504   0.930   5.200
  569SOL    HW2 2595   1.509   0.983   5.280
  569SOL    HW3 2596   1.466   0.847   5.228
  569SOL    MW4 2597   1.500   0.925   5.215
  570SOL     OW 2598   1.144   0.065   5.446
  570SOL    HW2 2599   1.139  -0.028   5.427
  570SOL    HW3 2600   1.227   0.076   5.492
  570SOL    MW4 2601   1.152   0.054   5.450
  571SOL     OW 2602   0.518   0.585   3.900
  571SOL    HW2 2603   0.484   0.641   3.970
  571SOL    HW3 2604   0.589   0.535   3.940
  571SOL    MW4 2605   0.524   0.586   3.914
  572SOL     OW 2606   1.614   1.336   4.722
  572SOL    HW2 2607   1.649   1.318   4.635
  572SOL    HW3 2608   1.519   1.337   4.709
  572SOL    MW4 2609   1.606   1.333   4.709
  573SOL     OW 2610   1.043   0.984   5.091
  573SOL    HW2 2611   1.086   1.019   5.169
  573SOL    HW3 2612   1.026   1.061   5.037
  573SOL    MW4 2613   1.046   0.999   5.094
  574SOL     OW 2614   1.574   0.471   3.964
  574SOL    HW2 2615   1.566   0.542   3.901
  574SOL    HW3 2616   1.592   0.515   4.047
  574SOL    MW4 2617   1.575   0.485   3.966
  575SOL     OW 2618   0.434   0.126   4.393
  575SOL    HW2 2619   0.484   0.169   4.324
  575SOL    HW3 2620   0.349   0.170   4.393
  575SOL    MW4 2621   0.431   0.139   4.384
  576SOL     OW 2622   0.193   1.188   5.253
  576SOL    HW2 2623   0.221   1.141   5.331
  576SOL    HW3 2624   0.114   1.143   5.224
  576SOL    MW4 2625   0.186   1.177   5.259
  577SOL     OW 2626   0.701   0.515   5.220
  577SOL    HW2 2627   0.673   0.603   5.244
  577SOL    HW3 2628   0.670   0.459   5.291
  577SOL    MW4 2629   0.693   0.518   5.232
  578SOL     OW 2630   1.243   0.733   3.939
  578SOL    HW2 2631   1.290   0.751   3.858
  578SOL    HW3 2632   1.209   0.817   3.967
  578SOL    MW4 2633   1.245   0.747   3.932
  579SOL     OW 2634   0.356   0.911   4.433
  579SOL    HW2 2635   0.414   0.967   4.381
  579SOL    HW3 2636   0.400   0.826   4.435
  579SOL    MW4 2637   0.369   0.908   4.426
  580SOL     OW 2638   1.496   0.263   4.270
  580SOL    HW2 2639   1.418   0.213   4.295
  580SOL    HW3 2640   1.467   0.354   4.270
  580SOL    MW4 2641   1.482   0.267   4.273
  581SOL     OW 2642   1.082   0.225   4.429
  581SOL    HW2 2643   1.102   0.300   4.373
  581SOL    HW3 2644   1.062   0.264   4.514
  581SOL    MW4 2645   1.083   0.241   4.433
  582SOL     OW 2646   0.978   1.475   3.761
  582SOL    HW2 2647   1.005   1.553   3.713
  582SOL    HW3 2648   0.885   1.490   3.780
  582SOL    MW4 2649   0.969   1.488   3.757
  583SOL     OW 2650   1.842   0.998   5.448
  583SOL    HW2 2651   1.755   0.978   5.484
  583SOL    HW3 2652   1.896   0.924   5.473
  583SOL    MW4 2653   1.837   0.987   5.456
  584SOL     OW 2654   0.063   1.511   4.605
  584SOL    HW2 2655   0.095   1.515   4.696
  584SOL    HW3 2656  -0.032   1.519   4.613
  584SOL    MW4 2657   0.055   1.514   4.618
  585SOL     OW 2658   0.018   0.637   4.152
  585SOL    HW2 2659  -0.042   0.609   4.222
  585SOL    HW3 2660   0.092   0.577   4.158
  585SOL    MW4 2661   0.020   0.626   4.161
  586SOL     OW 2662   1.586   1.849   5.586
  586SOL    HW2 2663   1.631   1.773   5.551
  586SOL    HW3 2664   1.624   1.862   5.673
  586SOL    MW4 2665   1.596   1.842   5.592
  587SOL     OW 2666   1.186   1.368   4.312
  587SOL    HW2 2667   1.209   1.319   4.390
  587SOL    HW3 2668   1.267   1.410   4.284
  587SOL    MW4 2669   1.199   1.368   4.319
  588SOL     OW 2670   0.444   0.376   5.041
  588SOL    HW2 2671   0.477   0.457   5.081
  588SOL    HW3 2672   0.417   0.402   4.953
  588SOL    MW4 2673   0.443   0.390   5.035
  589SOL     OW 2674   0.398   0.343   4.777
  589SOL    HW2 2675   0.428   0.257   4.748
  589SOL    HW3 2676   0.303   0.336   4.780
  589SOL    MW4 2677   0.390   0.332   4.775
  590SOL     OW 2678   1.227   0.552   5.468
  590SOL    HW2 2679   1.279   0.487   5.421
  590SOL    HW3 2680   1.185   0.603   5.398
  590SOL    MW4 2681   1.228   0.549   5.451
  591SOL     OW 2682   1.326   0.347   5.329
  591SOL    HW2 2683   1.233   0.331   5.316
  591SOL    HW3 2684   1.352   0.285   5.397
  591SOL    MW4 2685   1.316   0.337   5.336
  592SOL     OW 2686   0.541   0.121   4.668
  592SOL    HW2 2687   0.551   0.030   4.694
  592SOL    HW3 2688   0.497   0.117   4.583
  592SOL    MW4 2689   0.537   0.109   4.660
  593SOL     OW 2690   0.635   1.736   5.214
  593SOL    HW2 2691   0.552   1.721   5.259
  593SOL    HW3 2692   0.694   1.669   5.249
  593SOL    MW4 2693   0.633   1.726   5.224
  594SOL     OW 2694   1.692   0.443   4.839
  594SOL    HW2 2695   1.625   0.476   4.899
  594SOL    HW3 2696   1.735   0.521   4.805
  594SOL    MW4 2697   1.690   0.458   4.843
  595SOL     OW 2698   1.870   1.163   4.809
  595SOL    HW2 2699   1.863   1.103   4.734
  595SOL    HW3 2700   1.796   1.223   4.798
  595SOL    MW4 2701   1.860   1.163   4.798
  596SOL     OW 2702   1.252   1.025   4.727
  596SOL    HW2 2703   1.266   0.997   4.818
  596SOL    HW3 2704   1.338   1.056   4.699
  596SOL    MW4 2705   1.265   1.026   4.736
  597SOL     OW 2706   1.335   0.520   5.006
  597SOL    HW2 2707   1.356   0.521   4.913
  597SOL    HW3 2708   1.380   0.442   5.039
  597SOL    MW4 2709   1.342   0.510   4.998
  598SOL     OW 2710   1.828   0.651   5.548
  598SOL    HW2 2711   1.865   0.596   5.617
  598SOL    HW3 2712   1.853   0.608   5.466
  598SOL    MW4 2713   1.835   0.639   5.547
  599SOL     OW 2714   1.375   0.949   5.600
  599SOL    HW2 2715   1.441   0.897   5.554
  599SOL    HW3 2716   1.395   0.936   5.693
  599SOL    MW4 2717   1.386   0.940   5.607
  600SOL     OW 2718   1.326   0.035   3.948
  600SOL    HW2 2719   1.400   0.079   3.991
  600SOL    HW3 2720   1.250   0.089   3.970
  600SOL    MW4 2721   1.326   0.047   3.956
  601SOL     OW 2722   1.386   0.810   4.226
  601SOL    HW2 2723   1.301   0.780   4.196
  601SOL    HW3 2724   1.378   0.817   4.321
  601SOL    MW4 2725   1.374   0.808   4.235
  602SOL     OW 2726   0.462   1.273   4.957
  602SOL    HW2 2727   0.474   1.300   5.048
  602SOL    HW3 2728   0.443   1.354   4.910
  602SOL    MW4 2729   0.461   1.288   4.962
  603SOL     OW 2730   0.746   0.253   4.780
  603SOL    HW2 2731   0.719   0.255   4.871
  603SOL    HW3 2732   0.676   0.205   4.735
  603SOL    MW4 2733   0.734   0.249   4.787
  604SOL     OW 2734   0.600   1.745   4.942
  604SOL    HW2 2735   0.652   1.822   4.919
  604SOL    HW3 2736   0.609   1.737   5.037
  604SOL    MW4 2737   0.609   1.752   4.953
  605SOL     OW 2738   1.502   1.330   5.174
  605SOL    HW2 2739   1.487   1.259   5.237
  605SOL    HW3 2740   1.548   1.288   5.102
  605SOL    MW4 2741   1.508   1.314   5.174
  606SOL     OW 2742   0.576   1.061   5.291
  606SOL    HW2 2743   0.613   1.066   5.203
  606SOL    HW3 2744   0.615   1.134   5.338
  606SOL    MW4 2745   0.586   1.071   5.286
  607SOL     OW 2746   0.756   1.104   5.103
  607SOL    HW2 2747   0.815   1.050   5.156
  607SOL    HW3 2748   0.771   1.076   5.013
  607SOL    MW4 2749   0.766   1.093   5.099
  608SOL     OW 2750   0.759   0.476   3.952
  608SOL    HW2 2751   0.832   0.525   3.915
  608SOL    HW3 2752   0.775   0.385   3.926
  608SOL    MW4 2753   0.771   0.471   3.945
  609SOL     OW 2754   1.567   1.593   5.275
  609SOL    HW2 2755   1.609   1.578   5.360
  609SOL    HW3 2756   1.558   1.506   5.237
  609SOL    MW4 2757   1.571   1.581   5.282
  610SOL     OW 2758   1.227   0.072   4.866
  610SOL    HW2 2759   1.282   0.081   4.788
  610SOL    HW3 2760   1.282   0.106   4.937
  610SOL    MW4 2761   1.241   0.077   4.865
  611SOL     OW 2762   0.234   0.985   4.050
  611SOL    HW2 2763   0.171   1.001   3.979
  611SOL    HW3 2764   0.181   0.948   4.121
  611SOL    MW4 2765   0.219   0.982   4.050
  612SOL     OW 2766   0.590   1.339   3.909
  612SOL    HW2 2767   0.605   1.315   4.001
  612SOL    HW3 2768   0.498   1.317   3.893
  612SOL    MW4 2769   0.580   1.332   3.919
  613SOL     OW 2770   1.129   1.570   4.061
  613SOL    HW2 2771   1.137   1.488   4.012
  613SOL    HW3 2772   1.048   1.609   4.028
  613SOL    MW4 2773   1.119   1.565   4.051
  614SOL     OW 2774   0.388   1.728   4.630
  614SOL    HW2 2775   0.392   1.639   4.665
  614SOL    HW3 2776   0.414   1.719   4.539
  614SOL    MW4 2777   0.391   1.716   4.622
  615SOL     OW 2778   1.005   1.206   4.873
  615SOL    HW2 2779   0.937   1.140   4.889
  615SOL    HW3 2780   1.023   1.200   4.780
  615SOL    MW4 2781   0.998   1.197   4.864
  616SOL     OW 2782   0.094   1.481   5.124
  616SOL    HW2 2783   0.084   1.439   5.210
  616SOL    HW3 2784   0.015   1.534   5.114
  616SOL    MW4 2785   0.083   1.482   5.135
  617SOL     OW 2786   0.998   0.345   4.694
  617SOL    HW2 2787   0.928   0.297   4.739
  617SOL    HW3 2788   1.030   0.408   4.758
  617SOL    MW4 2789   0.993   0.347   4.708
  618SOL     OW 2790   0.649   0.781   5.314
  618SOL    HW2 2791   0.642   0.876   5.302
  618SOL    HW3 2792   0.658   0.770   5.409
  618SOL    MW4 2793   0.650   0.793   5.324
  619SOL     OW 2794   0.370   1.296   5.572
  619SOL    HW2 2795   0.442   1.298   5.509
  619SOL    HW3 2796   0.340   1.205   5.571
  619SOL    MW4 2797   0.375   1.285   5.564
  620SOL     OW 2798   1.454   0.059   5.039
  620SOL    HW2 2799   1.525   0.005   5.003
  620SOL    HW3 2800   1.453   0.038   5.132
  620SOL    MW4 2801   1.463   0.050   5.047
  621SOL     OW 2802   1.654   1.589   5.523
  621SOL    HW2 2803   1.627   1.586   5.614
  621SOL    HW3 2804   1.750   1.593   5.526
  621SOL    MW4 2805   1.664   1.589   5.535
  622SOL     OW 2806   0.465   0.451   4.507
  622SOL    HW2 2807   0.536   0.399   4.470
  622SOL    HW3 2808   0.451   0.416   4.594
  622SOL    MW4 2809   0.473   0.440   4.514
  623SOL     OW 2810   0.020   1.786   5.579
  623SOL    HW2 2811   0.070   1.764   5.501
  623SOL    HW3 2812   0.028   1.881   5.587
  623SOL    MW4 2813   0.028   1.795   5.570
  624SOL     OW 2814   0.781   1.544   4.583
  624SOL    HW2 2815   0.709   1.481   4.596
  624SOL    HW3 2816   0.742   1.629   4.601
  624SOL    MW4 2817   0.765   1.547   4.586
  625SOL     OW 2818   1.101   0.392   4.231
  625SOL    HW2 2819   1.123   0.329   4.163
  625SOL    HW3 2820   1.006   0.384   4.242
  625SOL    MW4 2821   1.091   0.383   4.223
  626SOL     OW 2822   0.186   0.082   4.163
  626SOL    HW2 2823   0.257   0.103   4.102
  626SOL    HW3 2824   0.140   0.010   4.121
  626SOL    MW4 2825   0.190   0.076   4.149
  627SOL     OW 2826   0.017   0.549   5.306
  627SOL    HW2 2827   0.081   0.615   5.281
  627SOL    HW3 2828  -0.064   0.576   5.263
  627SOL    MW4 2829   0.015   0.561   5.298
  628SOL     OW 2830   1.755   1.456   4.263
  628SOL    HW2 2831   1.725   1.389   4.324
  628SOL    HW3 2832   1.849   1.462   4.277
  628SOL    MW4 2833   1.763   1.448   4.273
  629SOL     OW 2834   1.311   1.133   4.193
  629SOL    HW2 2835   1.283   1.219   4.226
  629SOL    HW3 2836   1.339   1.149   4.103
  629SOL    MW4 2837   1.311   1.147   4.185
  630SOL     OW 2838   0.973   0.053   4.246
  630SOL    HW2 2839   1.010   0.112   4.311
  630SOL    HW3 2840   0.950   0.109   4.172
  630SOL    MW4 2841   0.974   0.068   4.245
  631SOL     OW 2842   1.826   0.935   4.668
  631SOL    HW2 2843   1.817   0.967   4.579
  631SOL    HW3 2844   1.779   0.851   4.668
  631SOL    MW4 2845   1.819   0.928   4.658
  632SOL     OW 2846   0.202   0.775   5.247
  632SOL    HW2 2847   0.223   0.844   5.185
  632SOL    HW3 2848   0.282   0.722   5.252
  632SOL    MW4 2849   0.215   0.776   5.241
  633SOL     OW 2850   1.738   0.866   4.369
  633SOL    HW2 2851   1.832   0.855   4.357
  633SOL    HW3 2852   1.714   0.938   4.310
  633SOL    MW4 2853   1.748   0.874   4.360
  634SOL     OW 2854   0.187   0.790   5.514
  634SOL    HW2 2855   0.113   0.734   5.540
  634SOL    HW3 2856   0.182   0.793   5.419
  634SOL    MW4 2857   0.176   0.783   5.504
  635SOL     OW 2858   0.353   0.077   4.964
  635SOL    HW2 2859   0.396   0.161   4.984
  635SOL    HW3 2860   0.426   0.015   4.957
  635SOL    MW4 2861   0.368   0.080   4.965
  636SOL     OW 2862   0.394   0.744   4.142
  636SOL    HW2 2863   0.394   0.839   4.127
  636SOL    HW3 2864   0.471   0.728   4.196
  636SOL    MW4 2865   0.404   0.755   4.147
  637SOL     OW 2866   1.170   0.603   5.206
  637SOL    HW2 2867   1.206   0.576   5.122
  637SOL    HW3 2868   1.083   0.637   5.185
  637SOL    MW4 2869   1.164   0.604   5.193
  638SOL     OW 2870   0.153   0.475   4.431
  638SOL    HW2 2871   0.215   0.482   4.504
  638SOL    HW3 2872   0.153   0.382   4.408
  638SOL    MW4 2873   0.161   0.464   4.438
  639SOL     OW 2874   1.700   1.815   3.963
  639SOL    HW2 2875   1.767   1.848   3.903
  639SOL    HW3 2876   1.657   1.894   3.997
  639SOL    MW4 2877   1.702   1.830   3.959
  640SOL     OW 2878   0.835   0.736   4.915
  640SOL    HW2 2879   0.793   0.654   4.891
  640SOL    HW3 2880   0.836   0.735   5.011
  640SOL    MW4 2881   0.828   0.725   4.924
  641SOL     OW 2882   1.506   1.869   5.314
  641SOL    HW2 2883   1.509   1.775   5.297
  641SOL    HW3 2884   1.529   1.877   5.406
  641SOL    MW4 2885   1.509   1.857   5.324
  642SOL     OW 2886   0.639   0.206   5.020
  642SOL    HW2 2887   0.570   0.269   5.041
  642SOL    HW3 2888   0.666   0.170   5.105
  642SOL    MW4 2889   0.633   0.209   5.033
  643SOL     OW 2890   0.022   1.047   3.889
  643SOL    HW2 2891  -0.009   1.112   3.952
  643SOL    HW3 2892  -0.029   0.969   3.908
  643SOL    MW4 2893   0.012   1.044   3.899
  644SOL     OW 2894   1.434   0.059   4.637
  644SOL    HW2 2895   1.522   0.068   4.674
  644SOL    HW3 2896   1.444   0.000   4.563
  644SOL    MW4 2897   1.448   0.053   4.631
  645SOL     OW 2898   1.466   0.798   4.481
  645SOL    HW2 2899   1.546   0.813   4.430
  645SOL    HW3 2900   1.459   0.703   4.487
  645SOL    MW4 2901   1.475   0.787   4.476
  646SOL     OW 2902   0.606   1.847   3.831
  646SOL    HW2 2903   0.511   1.847   3.823
  646SOL    HW3 2904   0.622   1.793   3.909
  646SOL    MW4 2905   0.596   1.841   3.840
  647SOL     OW 2906   0.916   0.724   5.178
  647SOL    HW2 2907   0.985   0.791   5.175
  647SOL    HW3 2908   0.849   0.762   5.234
  647SOL    MW4 2909   0.917   0.737   5.185
  648SOL     OW 2910   0.334   1.024   5.426
  648SOL    HW2 2911   0.288   0.940   5.428
  648SOL    HW3 2912   0.391   1.018   5.350
  648SOL    MW4 2913   0.336   1.012   5.418
  649SOL     OW 2914   1.451   0.667   3.747
  649SOL    HW2 2915   1.379   0.643   3.689
  649SOL    HW3 2916   1.517   0.704   3.689
  649SOL    MW4 2917   1.450   0.669   3.732
  650SOL     OW 2918   0.585   1.399   4.427
  650SOL    HW2 2919   0.650   1.332   4.448
  650SOL    HW3 2920   0.637   1.476   4.404
  650SOL    MW4 2921   0.600   1.401   4.426
  651SOL     OW 2922   0.846   0.564   4.557
  651SOL    HW2 2923   0.786   0.582   4.629
  651SOL    HW3 2924   0.880   0.476   4.576
  651SOL    MW4 2925   0.842   0.554   4.570
  652SOL     OW 2926   1.787   0.063   5.226
  652SOL    HW2 2927   1.708   0.109   5.254
  652SOL    HW3 2928   1.822   0.117   5.155
  652SOL    MW4 2929   1.781   0.076   5.220
  653SOL     OW 2930   1.071   1.147   4.576
  653SOL    HW2 2931   1.163   1.128   4.594
  653SOL    HW3 2932   1.044   1.077   4.516
  653SOL    MW4 2933   1.079   1.135   4.570
  654SOL     OW 2934   0.864   0.967   3.931
  654SOL    HW2 2935   0.850   0.879   3.896
  654SOL    HW3 2936   0.815   1.024   3.872
  654SOL    MW4 2937   0.856   0.962   3.919
  655SOL     OW 2938   1.345   1.385   4.672
  655SOL    HW2 2939   1.318   1.469   4.637
  655SOL    HW3 2940   1.305   1.380   4.759
  655SOL    MW4 2941   1.338   1.394   4.678
  656SOL     OW 2942   1.264   1.333   4.940
  656SOL    HW2 2943   1.275   1.300   5.029
  656SOL    HW3 2944   1.183   1.292   4.909
  656SOL    MW4 2945   1.254   1.325   4.946
  657SOL     OW 2946   0.277   0.691   4.710
  657SOL    HW2 2947   0.227   0.690   4.791
  657SOL    HW3 2948   0.297   0.783   4.694
  657SOL    MW4 2949   0.273   0.703   4.718
  658SOL     OW 2950   1.344   1.455   5.472
  658SOL    HW2 2951   1.344   1.549   5.488
  658SOL    HW3 2952   1.389   1.445   5.388
  658SOL    MW4 2953   1.350   1.465   5.463
  659SOL     OW 2954   1.583   0.173   4.033
  659SOL    HW2 2955   1.576   0.177   4.128
  659SOL    HW3 2956   1.595   0.264   4.006
  659SOL    MW4 2957   1.584   0.186   4.041
  660SOL     OW 2958   0.872   0.736   4.147
  660SOL    HW2 2959   0.852   0.722   4.054
  660SOL    HW3 2960   0.965   0.715   4.154
  660SOL    MW4 2961   0.882   0.731   4.136
  661SOL     OW 2962   0.199   0.359   5.451
  661SOL    HW2 2963   0.156   0.418   5.388
  661SOL    HW3 2964   0.267   0.414   5.491
  661SOL    MW4 2965   0.203   0.374   5.448
  662SOL     OW 2966   1.311   0.979   4.996
  662SOL    HW2 2967   1.374   0.976   5.069
  662SOL    HW3 2968   1.227   0.997   5.038
  662SOL    MW4 2969   1.307   0.981   5.011
  663SOL     OW 2970   0.855   1.694   4.185
  663SOL    HW2 2971   0.913   1.765   4.212
  663SOL    HW3 2972   0.878   1.622   4.243
  663SOL    MW4 2973   0.866   1.694   4.196
  664SOL     OW 2974   1.650   0.156   4.775
  664SOL    HW2 2975   1.695   0.074   4.794
  664SOL    HW3 2976   1.670   0.212   4.851
  664SOL    MW4 2977   1.660   0.152   4.787
  665SOL     OW 2978   0.098  -0.001   4.874
  665SOL    HW2 2979   0.089   0.000   4.779
  665SOL    HW3 2980   0.192   0.011   4.889
  665SOL    MW4 2981   0.110   0.002   4.865
  666SOL     OW 2982   1.735   1.192   4.494
  666SOL    HW2 2983   1.714   1.138   4.417
  666SOL    HW3 2984   1.831   1.190   4.498
  666SOL    MW4 2985   1.744   1.185   4.483
  667SOL     OW 2986   0.427   1.337   5.237
  667SOL    HW2 2987   0.348   1.287   5.260
  667SOL    HW3 2988   0.497   1.296   5.287
  667SOL    MW4 2989   0.425   1.325   5.247
  668SOL     OW 2990   0.311   0.126   3.920
  668SOL    HW2 2991   0.240   0.181   3.888
  668SOL    HW3 2992   0.353   0.092   3.841
  668SOL    MW4 2993   0.307   0.128   3.906
  669SOL     OW 2994   1.435   0.623   4.756
  669SOL    HW2 2995   1.358   0.669   4.722
  669SOL    HW3 2996   1.492   0.692   4.790
  669SOL    MW4 2997   1.432   0.638   4.756
  670SOL     OW 2998   0.067   0.225   3.769
  670SOL    HW2 2999   0.034   0.304   3.813
  670SOL    HW3 3000   0.122   0.258   3.698
  670SOL    MW4 3001   0.070   0.239   3.766
  671SOL     OW 3002   0.101   1.482   3.958
  671SOL    HW2 3003   0.118   1.566   4.000
  671SOL    HW3 3004   0.136   1.491   3.870
  671SOL    MW4 3005   0.106   1.495   3.952
  672SOL     OW 3006   1.373   1.571   4.175
  672SOL    HW2 3007   1.436   1.561   4.104
  672SOL    HW3 3008   1.290   1.591   4.130
  672SOL    MW4 3009   1.370   1.572   4.160
  673SOL     OW 3010   1.736   0.839   5.862
  673SOL    HW2 3011   1.777   0.781   5.927
  673SOL    HW3 3012   1.643   0.831   5.879
  673SOL    MW4 3013   1.730   0.831   5.872
  674SOL     OW 3014   0.530   1.022   6.091
  674SOL    HW2 3015   0.620   0.997   6.075
  674SOL    HW3 3016   0.526   1.115   6.068
  674SOL    MW4 3017   0.542   1.031   6.086
  675SOL     OW 3018   1.646   1.725   6.233
  675SOL    HW2 3019   1.658   1.671   6.311
  675SOL    HW3 3020   1.683   1.673   6.162
  675SOL    MW4 3021   1.652   1.710   6.234
  676SOL     OW 3022   0.814   0.478   6.104
  676SOL    HW2 3023   0.789   0.566   6.132
  676SOL    HW3 3024   0.811   0.481   6.008
  676SOL    MW4 3025   0.810   0.490   6.096
  677SOL     OW 3026   0.256   0.506   6.032
  677SOL    HW2 3027   0.288   0.594   6.014
  677SOL    HW3 3028   0.244   0.504   6.127
  677SOL    MW4 3029   0.259   0.518   6.044
  678SOL     OW 3030   0.655   0.261   6.119
  678SOL    HW2 3031   0.713   0.337   6.121
  678SOL    HW3 3032   0.590   0.282   6.052
  678SOL    MW4 3033   0.654   0.273   6.110
  679SOL     OW 3034   0.742   1.188   6.294
  679SOL    HW2 3035   0.822   1.191   6.346
  679SOL    HW3 3036   0.770   1.155   6.208
  679SOL    MW4 3037   0.756   1.184   6.289
  680SOL     OW 3038   0.519   0.692   6.285
  680SOL    HW2 3039   0.504   0.612   6.336
  680SOL    HW3 3040   0.601   0.727   6.319
  680SOL    MW4 3041   0.527   0.684   6.297
  681SOL     OW 3042   0.661   0.518   6.662
  681SOL    HW2 3043   0.567   0.514   6.680
  681SOL    HW3 3044   0.691   0.427   6.671
  681SOL    MW4 3045   0.652   0.506   6.665
  682SOL     OW 3046   0.407   0.932   6.566
  682SOL    HW2 3047   0.362   0.939   6.482
  682SOL    HW3 3048   0.387   1.015   6.610
  682SOL    MW4 3049   0.399   0.944   6.560
  683SOL     OW 3050   0.104   1.778   6.441
  683SOL    HW2 3051   0.193   1.770   6.476
  683SOL    HW3 3052   0.068   1.690   6.446
  683SOL    MW4 3053   0.111   1.765   6.446
  684SOL     OW 3054   1.369   1.170   5.810
  684SOL    HW2 3055   1.287   1.206   5.776
  684SOL    HW3 3056   1.437   1.213   5.759
  684SOL    MW4 3057   1.367   1.180   5.798
  685SOL     OW 3058   0.368   1.305   6.476
  685SOL    HW2 3059   0.344   1.358   6.552
  685SOL    HW3 3060   0.424   1.363   6.424
  685SOL    MW4 3061   0.372   1.320   6.479
  686SOL     OW 3062   0.930   0.949   6.286
  686SOL    HW2 3063   0.844   0.936   6.326
  686SOL    HW3 3064   0.983   0.876   6.318
  686SOL    MW4 3065   0.926   0.938   6.295
  687SOL     OW 3066   0.921   1.311   6.003
  687SOL    HW2 3067   0.898   1.373   6.071
  687SOL    HW3 3068   0.878   1.229   6.029
  687SOL    MW4 3069   0.913   1.307   6.014
  688SOL     OW 3070   1.794   0.312   6.459
  688SOL    HW2 3071   1.731   0.292   6.528
  688SOL    HW3 3072   1.784   0.241   6.396
  688SOL    MW4 3073   1.784   0.299   6.460
  689SOL     OW 3074   0.418   0.284   5.971
  689SOL    HW2 3075   0.392   0.246   5.887
  689SOL    HW3 3076   0.355   0.354   5.987
  689SOL    MW4 3077   0.407   0.287   5.962
  690SOL     OW 3078   0.253   1.245   6.008
  690SOL    HW2 3079   0.201   1.313   5.964
  690SOL    HW3 3080   0.250   1.171   5.948
  690SOL    MW4 3081   0.245   1.244   5.995
  691SOL     OW 3082   0.915   1.708   5.786
  691SOL    HW2 3083   0.870   1.724   5.869
  691SOL    HW3 3084   0.846   1.673   5.728
  691SOL    MW4 3085   0.901   1.705   5.788
  692SOL     OW 3086   1.850   0.481   5.761
  692SOL    HW2 3087   1.759   0.483   5.789
  692SOL    HW3 3088   1.895   0.543   5.819
  692SOL    MW4 3089   1.843   0.489   5.771
  693SOL     OW 3090   1.595   1.084   6.111
  693SOL    HW2 3091   1.505   1.084   6.146
  693SOL    HW3 3092   1.588   1.130   6.028
  693SOL    MW4 3093   1.582   1.090   6.105
  694SOL     OW 3094   0.136   1.599   6.735
  694SOL    HW2 3095   0.119   1.545   6.812
  694SOL    HW3 3096   0.124   1.689   6.765
  694SOL    MW4 3097   0.133   1.603   6.749
  695SOL     OW 3098   1.502   1.062   6.503
  695SOL    HW2 3099   1.505   0.996   6.434
  695SOL    HW3 3100   1.587   1.105   6.499
  695SOL    MW4 3101   1.514   1.058   6.494
  696SOL     OW 3102   1.122   0.665   6.072
  696SOL    HW2 3103   1.148   0.689   5.983
  696SOL    HW3 3104   1.104   0.572   6.068
  696SOL    MW4 3105   1.124   0.657   6.059
  697SOL     OW 3106   1.787   1.285   5.923
  697SOL    HW2 3107   1.743   1.326   5.998
  697SOL    HW3 3108   1.844   1.353   5.888
  697SOL    MW4 3109   1.789   1.299   5.928
  698SOL     OW 3110   0.443   1.701   6.241
  698SOL    HW2 3111   0.475   1.789   6.219
  698SOL    HW3 3112   0.396   1.673   6.163
  698SOL    MW4 3113   0.442   1.709   6.228
  699SOL     OW 3114   1.827   0.063   6.290
  699SOL    HW2 3115   1.881   0.014   6.352
  699SOL    HW3 3116   1.770  -0.003   6.251
  699SOL    MW4 3117   1.827   0.047   6.292
  700SOL     OW 3118   0.159   1.761   5.818
  700SOL    HW2 3119   0.188   1.851   5.810
  700SOL    HW3 3120   0.109   1.744   5.739
  700SOL    MW4 3121   0.157   1.769   5.807
  701SOL     OW 3122   0.946   0.016   6.703
  701SOL    HW2 3123   0.905   0.094   6.665
  701SOL    HW3 3124   1.040   0.034   6.698
  701SOL    MW4 3125   0.952   0.028   6.698
  702SOL     OW 3126   1.563   1.569   5.789
  702SOL    HW2 3127   1.611   1.638   5.835
  702SOL    HW3 3128   1.484   1.613   5.758
  702SOL    MW4 3129   1.558   1.583   5.792
  703SOL     OW 3130   0.961   0.694   5.733
  703SOL    HW2 3131   0.963   0.641   5.654
  703SOL    HW3 3132   1.049   0.731   5.739
  703SOL    MW4 3133   0.973   0.693   5.722
  704SOL     OW 3134   1.575   0.620   6.069
  704SOL    HW2 3135   1.614   0.620   6.156
  704SOL    HW3 3136   1.516   0.696   6.069
  704SOL    MW4 3137   1.572   0.631   6.080
  705SOL     OW 3138   1.061   0.613   6.792
  705SOL    HW2 3139   1.136   0.642   6.739
  705SOL    HW3 3140   0.993   0.678   6.776
  705SOL    MW4 3141   1.062   0.625   6.782
  706SOL     OW 3142   1.762   0.506   6.235
  706SOL    HW2 3143   1.851   0.475   6.252
  706SOL    HW3 3144   1.705   0.446   6.283
  706SOL    MW4 3145   1.765   0.494   6.244
  707SOL     OW 3146   0.188   0.220   6.264
  707SOL    HW2 3147   0.179   0.160   6.190
  707SOL    HW3 3148   0.121   0.191   6.327
  707SOL    MW4 3149   0.178   0.207   6.262
  708SOL     OW 3150   1.131   1.313   5.825
  708SOL    HW2 3151   1.081   1.315   5.907
  708SOL    HW3 3152   1.065   1.331   5.757
  708SOL    MW4 3153   1.117   1.315   5.827
  709SOL     OW 3154   0.135   0.393   6.627
  709SOL    HW2 3155   0.107   0.484   6.636
  709SOL    HW3 3156   0.072   0.354   6.566
  709SOL    MW4 3157   0.122   0.399   6.621
  710SOL     OW 3158   0.594   1.731   5.933
  710SOL    HW2 3159   0.515   1.689   5.966
  710SOL    HW3 3160   0.660   1.714   6.000
  710SOL    MW4 3161   0.593   1.723   5.946
  711SOL     OW 3162   0.730   1.146   5.640
  711SOL    HW2 3163   0.652   1.092   5.627
  711SOL    HW3 3164   0.701   1.219   5.693
  711SOL    MW4 3165   0.716   1.148   5.645
  712SOL     OW 3166   1.856   0.886   6.832
  712SOL    HW2 3167   1.872   0.924   6.745
  712SOL    HW3 3168   1.890   0.952   6.893
  712SOL    MW4 3169   1.863   0.899   6.828
  713SOL     OW 3170   1.648   1.595   6.501
  713SOL    HW2 3171   1.677   1.662   6.562
  713SOL    HW3 3172   1.629   1.519   6.556
  713SOL    MW4 3173   1.650   1.595   6.516
  714SOL     OW 3174   1.311   1.662   5.708
  714SOL    HW2 3175   1.237   1.625   5.758
  714SOL    HW3 3176   1.319   1.752   5.741
  714SOL    MW4 3177   1.302   1.669   5.720
  715SOL     OW 3178   1.535   1.336   5.650
  715SOL    HW2 3179   1.482   1.385   5.586
  715SOL    HW3 3180   1.566   1.402   5.711
  715SOL    MW4 3181   1.533   1.350   5.648
  716SOL     OW 3182   0.760   0.225   5.705
  716SOL    HW2 3183   0.708   0.145   5.693
  716SOL    HW3 3184   0.847   0.202   5.673
  716SOL    MW4 3185   0.763   0.211   5.699
  717SOL     OW 3186   0.266   1.096   6.756
  717SOL    HW2 3187   0.319   1.171   6.781
  717SOL    HW3 3188   0.185   1.134   6.722
  717SOL    MW4 3189   0.262   1.111   6.756
  718SOL     OW 3190   0.806   1.000   6.744
  718SOL    HW2 3191   0.834   0.909   6.756
  718SOL    HW3 3192   0.735   0.994   6.680
  718SOL    MW4 3193   0.799   0.988   6.739
  719SOL     OW 3194   0.121   0.865   6.162
  719SOL    HW2 3195   0.212   0.880   6.189
  719SOL    HW3 3196   0.124   0.786   6.108
  719SOL    MW4 3197   0.133   0.857   6.160
  720SOL     OW 3198   0.748   1.797   6.536
  720SOL    HW2 3199   0.837   1.812   6.566
  720SOL    HW3 3200   0.743   1.844   6.452
  720SOL    MW4 3201   0.758   1.805   6.529
  721SOL     OW 3202   0.129   1.477   6.201
  721SOL    HW2 3203   0.101   1.516   6.283
  721SOL    HW3 3204   0.149   1.386   6.223
  721SOL    MW4 3205   0.127   1.469   6.214
  722SOL     OW 3206   0.962   1.520   6.236
  722SOL    HW2 3207   1.045   1.474   6.220
  722SOL    HW3 3208   0.952   1.519   6.332
  722SOL    MW4 3209   0.972   1.513   6.246
  723SOL     OW 3210   1.794   0.665   6.550
  723SOL    HW2 3211   1.883   0.695   6.532
  723SOL    HW3 3212   1.774   0.605   6.479
  723SOL    MW4 3213   1.803   0.662   6.539
  724SOL     OW 3214   0.695   1.577   5.641
  724SOL    HW2 3215   0.635   1.646   5.611
  724SOL    HW3 3216   0.640   1.519   5.694
  724SOL    MW4 3217   0.679   1.579   5.643
  725SOL     OW 3218   1.133   0.222   5.864
  725SOL    HW2 3219   1.066   0.198   5.801
  725SOL    HW3 3220   1.198   0.271   5.813
  725SOL    MW4 3221   1.133   0.224   5.849
  726SOL     OW 3222   1.200   0.744   6.572
  726SOL    HW2 3223   1.213   0.838   6.582
  726SOL    HW3 3224   1.161   0.734   6.486
  726SOL    MW4 3225   1.196   0.755   6.562
  727SOL     OW 3226   0.652   0.939   6.376
  727SOL    HW2 3227   0.563   0.930   6.409
  727SOL    HW3 3228   0.656   1.029   6.344
  727SOL    MW4 3229   0.641   0.950   6.376
  728SOL     OW 3230   1.451   0.522   6.371
  728SOL    HW2 3231   1.396   0.443   6.370
  728SOL    HW3 3232   1.433   0.563   6.455
  728SOL    MW4 3233   1.441   0.517   6.380
  729SOL     OW 3234   1.070   0.726   6.328
  729SOL    HW2 3235   1.007   0.658   6.352
  729SOL    HW3 3236   1.090   0.707   6.236
  729SOL    MW4 3237   1.064   0.713   6.320
  730SOL     OW 3238   0.326   1.621   6.030
  730SOL    HW2 3239   0.287   1.668   5.956
  730SOL    HW3 3240   0.260   1.556   6.055
  730SOL    MW4 3241   0.313   1.619   6.024
  731SOL     OW 3242   0.818   1.030   6.054
  731SOL    HW2 3243   0.820   1.004   5.961
  731SOL    HW3 3244   0.876   0.967   6.097
  731SOL    MW4 3245   0.826   1.019   6.048
  732SOL     OW 3246   1.375   1.798   6.256
  732SOL    HW2 3247   1.318   1.751   6.195
  732SOL    HW3 3248   1.461   1.759   6.243
  732SOL    MW4 3249   1.378   1.789   6.246
  733SOL     OW 3250   1.328   0.274   6.387
  733SOL    HW2 3251   1.356   0.206   6.448
  733SOL    HW3 3252   1.242   0.245   6.357
  733SOL    MW4 3253   1.321   0.261   6.391
  734SOL     OW 3254   0.133   1.208   6.321
  734SOL    HW2 3255   0.197   1.240   6.384
  734SOL    HW3 3256   0.182   1.144   6.269
  734SOL    MW4 3257   0.148   1.204   6.322
  735SOL     OW 3258   1.308   0.378   5.722
  735SOL    HW2 3259   1.281   0.444   5.658
  735SOL    HW3 3260   1.378   0.421   5.772
  735SOL    MW4 3261   1.313   0.391   5.719
  736SOL     OW 3262   0.976   0.083   5.659
  736SOL    HW2 3263   1.032   0.075   5.581
  736SOL    HW3 3264   0.953  -0.007   5.681
  736SOL    MW4 3265   0.981   0.070   5.652
  737SOL     OW 3266   1.481   0.934   5.864
  737SOL    HW2 3267   1.448   1.023   5.854
  737SOL    HW3 3268   1.446   0.905   5.949
  737SOL    MW4 3269   1.471   0.943   5.875
  738SOL     OW 3270   0.411   1.521   6.693
  738SOL    HW2 3271   0.456   1.583   6.750
  738SOL    HW3 3272   0.318   1.540   6.706
  738SOL    MW4 3273   0.404   1.531   6.700
  739SOL     OW 3274   0.833   1.589   6.801
  739SOL    HW2 3275   0.857   1.578   6.710
  739SOL    HW3 3276   0.756   1.646   6.799
  739SOL    MW4 3277   0.825   1.594   6.790
  740SOL     OW 3278   0.475   0.972   5.656
  740SOL    HW2 3279   0.398   0.985   5.712
  740SOL    HW3 3280   0.439   0.936   5.575
  740SOL    MW4 3281   0.461   0.968   5.653
  741SOL     OW 3282   1.128   0.945   5.899
  741SOL    HW2 3283   1.038   0.966   5.874
  741SOL    HW3 3284   1.155   1.018   5.955
  741SOL    MW4 3285   1.120   0.957   5.902
  742SOL     OW 3286   0.628   1.294   6.591
  742SOL    HW2 3287   0.621   1.273   6.685
  742SOL    HW3 3288   0.546   1.262   6.554
  742SOL    MW4 3289   0.616   1.288   6.598
  743SOL     OW 3290   0.757   0.061   6.306
  743SOL    HW2 3291   0.686   0.122   6.288
  743SOL    HW3 3292   0.808   0.058   6.225
  743SOL    MW4 3293   0.753   0.067   6.293
  744SOL     OW 3294   0.515   1.301   6.055
  744SOL    HW2 3295   0.508   1.333   6.145
  744SOL    HW3 3296   0.425   1.285   6.027
  744SOL    MW4 3297   0.503   1.303   6.062
  745SOL     OW 3298   1.224   1.659   6.454
  745SOL    HW2 3299   1.271   1.732   6.413
  745SOL    HW3 3300   1.145   1.698   6.490
  745SOL    MW4 3301   1.219   1.674   6.453
  746SOL     OW 3302   1.632   1.754   6.729
  746SOL    HW2 3303   1.675   1.724   6.809
  746SOL    HW3 3304   1.551   1.702   6.726
  746SOL    MW4 3305   1.627   1.743   6.739
  747SOL     OW 3306   0.518   0.585   5.769
  747SOL    HW2 3307   0.484   0.641   5.839
  747SOL    HW3 3308   0.589   0.535   5.809
  747SOL    MW4 3309   0.524   0.586   5.783
  748SOL     OW 3310   1.614   1.336   6.591
  748SOL    HW2 3311   1.649   1.318   6.504
  748SOL    HW3 3312   1.519   1.337   6.578
  748SOL    MW4 3313   1.606   1.333   6.578
  749SOL     OW 3314   1.574   0.471   5.833
  749SOL    HW2 3315   1.566   0.542   5.770
  749SOL    HW3 3316   1.592   0.515   5.916
  749SOL    MW4 3317   1.575   0.485   5.835
  750SOL     OW 3318   0.434   0.126   6.262
  750SOL    HW2 3319   0.484   0.169   6.193
  750SOL    HW3 3320   0.349   0.170   6.262
  750SOL    MW4 3321   0.431   0.139   6.253
  751SOL     OW 3322   1.243   0.733   5.808
  751SOL    HW2 3323   1.290   0.751   5.727
  751SOL    HW3 3324   1.209   0.817   5.836
  751SOL    MW4 3325   1.245   0.747   5.801
  752SOL     OW 3326   0.356   0.911   6.302
  752SOL    HW2 3327   0.414   0.967   6.250
  752SOL    HW3 3328   0.400   0.826   6.304
  752SOL    MW4 3329   0.369   0.908   6.295
  753SOL     OW 3330   1.496   0.263   6.139
  753SOL    HW2 3331   1.418   0.213   6.164
  753SOL    HW3 3332   1.467   0.354   6.139
  753SOL    MW4 3333   1.482   0.267   6.142
  754SOL     OW 3334   1.082   0.225   6.298
  754SOL    HW2 3335   1.102   0.300   6.242
  754SOL    HW3 3336   1.062   0.264   6.383
  754SOL    MW4 3337   1.083   0.241   6.302
  755SOL     OW 3338   0.978   1.475   5.630
  755SOL    HW2 3339   1.005   1.553   5.582
  755SOL    HW3 3340   0.885   1.490   5.649
  755SOL    MW4 3341   0.969   1.488   5.626
  756SOL     OW 3342   0.063   1.511   6.474
  756SOL    HW2 3343   0.095   1.515   6.565
  756SOL    HW3 3344  -0.032   1.519   6.482
  756SOL    MW4 3345   0.055   1.514   6.487
  757SOL     OW 3346   0.018   0.637   6.021
  757SOL    HW2 3347  -0.042   0.609   6.091
  757SOL    HW3 3348   0.092   0.577   6.027
  757SOL    MW4 3349   0.020   0.626   6.030
  758SOL     OW 3350   1.186   1.368   6.181
  758SOL    HW2 3351   1.209   1.319   6.259
  758SOL    HW3 3352   1.267   1.410   6.153
  758SOL    MW4 3353   1.199   1.368   6.188
  759SOL     OW 3354   0.398   0.343   6.646
  759SOL    HW2 3355   0.428   0.257   6.617
  759SOL    HW3 3356   0.303   0.336   6.649
  759SOL    MW4 3357   0.390   0.332   6.644
  760SOL     OW 3358   0.541   0.121   6.537
  760SOL    HW2 3359   0.551   0.030   6.563
  760SOL    HW3 3360   0.497   0.117   6.452
  760SOL    MW4 3361   0.537   0.109   6.529
  761SOL     OW 3362   1.692   0.443   6.708
  761SOL    HW2 3363   1.625   0.476   6.768
  761SOL    HW3 3364   1.735   0.521   6.674
  761SOL    MW4 3365   1.690   0.458   6.712
  762SOL     OW 3366   1.870   1.163   6.678
  762SOL    HW2 3367   1.863   1.103   6.603
  762SOL    HW3 3368   1.796   1.223   6.667
  762SOL    MW4 3369   1.860   1.163   6.667
  763SOL     OW 3370   1.252   1.025   6.596
  763SOL    HW2 3371   1.266   0.997   6.687
  763SOL    HW3 3372   1.338   1.056   6.568
  763SOL    MW4 3373   1.265   1.026   6.605
  764SOL     OW 3374   1.326   0.035   5.817
  764SOL    HW2 3375   1.400   0.079   5.860
  764SOL    HW3 3376   1.250   0.089   5.839
  764SOL    MW4 3377   1.326   0.047   5.825
  765SOL     OW 3378   1.386   0.810   6.095
  765SOL    HW2 3379   1.301   0.780   6.065
  765SOL    HW3 3380   1.378   0.817   6.190
  765SOL    MW4 3381   1.374   0.808   6.104
  766SOL     OW 3382   0.746   0.253   6.649
  766SOL    HW2 3383   0.719   0.255   6.740
  766SOL    HW3 3384   0.676   0.205   6.604
  766SOL    MW4 3385   0.734   0.249   6.656
  767SOL     OW 3386   0.759   0.476   5.821
  767SOL    HW2 3387   0.832   0.525   5.784
  767SOL    HW3 3388   0.775   0.385   5.795
  767SOL    MW4 3389   0.771   0.471   5.814
  768SOL     OW 3390   1.227   0.072   6.735
  768SOL    HW2 3391   1.282   0.081   6.657
  768SOL    HW3 3392   1.282   0.106   6.806
  768SOL    MW4 3393   1.241   0.077   6.734
  769SOL     OW 3394   0.234   0.985   5.919
  769SOL    HW2 3395   0.171   1.001   5.848
  769SOL    HW3 3396   0.181   0.948   5.990
  769SOL    MW4 3397   0.219   0.982   5.919
  770SOL     OW 3398   0.590   1.339   5.778
  770SOL    HW2 3399   0.605   1.315   5.870
  770SOL    HW3 3400   0.498   1.317   5.762
  770SOL    MW4 3401   0.580   1.332   5.788
  771SOL     OW 3402   1.129   1.570   5.930
  771SOL    HW2 3403   1.137   1.488   5.881
  771SOL    HW3 3404   1.048   1.609   5.897
  771SOL    MW4 3405   1.119   1.565   5.920
  772SOL     OW 3406   0.388   1.728   6.499
  772SOL    HW2 3407   0.392   1.639   6.534
  772SOL    HW3 3408   0.414   1.719   6.408
  772SOL    MW4 3409   0.391   1.716   6.491
  773SOL     OW 3410   1.005   1.206   6.742
  773SOL    HW2 3411   0.937   1.140   6.758
  773SOL    HW3 3412   1.023   1.200   6.649
  773SOL    MW4 3413   0.998   1.197   6.733
  774SOL     OW 3414   0.998   0.345   6.563
  774SOL    HW2 3415   0.928   0.297   6.608
  774SOL    HW3 3416   1.030   0.408   6.627
  774SOL    MW4 3417   0.993   0.347   6.577
  775SOL     OW 3418   0.465   0.451   6.376
  775SOL    HW2 3419   0.536   0.399   6.339
  775SOL    HW3 3420   0.451   0.416   6.463
  775SOL    MW4 3421   0.473   0.440   6.383
  776SOL     OW 3422   0.781   1.544   6.452
  776SOL    HW2 3423   0.709   1.481   6.465
  776SOL    HW3 3424   0.742   1.629   6.470
  776SOL    MW4 3425   0.765   1.547   6.455
  777SOL     OW 3426   1.101   0.392   6.100
  777SOL    HW2 3427   1.123   0.329   6.032
  777SOL    HW3 3428   1.006   0.384   6.111
  777SOL    MW4 3429   1.091   0.383   6.092
  778SOL     OW 3430   0.186   0.082   6.032
  778SOL    HW2 3431   0.257   0.103   5.971
  778SOL    HW3 3432   0.140   0.010   5.990
  778SOL    MW4 3433   0.190   0.076   6.018
  779SOL     OW 3434   1.755   1.456   6.132
  779SOL    HW2 3435   1.725   1.389   6.193
  779SOL    HW3 3436   1.849   1.462   6.146
  779SOL    MW4 3437   1.763   1.448   6.142
  780SOL     OW 3438   1.311   1.133   6.062
  780SOL    HW2 3439   1.283   1.219   6.095
  780SOL    HW3 3440   1.339   1.149   5.972
  780SOL    MW4 3441   1.311   1.147   6.054
  781SOL     OW 3442   0.973   0.053   6.115
  781SOL    HW2 3443   1.010   0.112   6.180
  781SOL    HW3 3444   0.950   0.109   6.041
  781SOL    MW4 3445   0.974   0.068   6.114
  782SOL     OW 3446   1.826   0.935   6.537
  782SOL    HW2 3447   1.817   0.967   6.448
  782SOL    HW3 3448   1.779   0.851   6.537
  782SOL    MW4 3449   1.819   0.928   6.527
  783SOL     OW 3450   1.738   0.866   6.238
  783SOL    HW2 3451   1.832   0.855   6.226
  783SOL    HW3 3452   1.714   0.938   6.179
  783SOL    MW4 3453   1.748   0.874   6.229
  784SOL     OW 3454   0.394   0.744   6.011
  784SOL    HW2 3455   0.394   0.839   5.996
  784SOL    HW3 3456   0.471   0.728   6.065
  784SOL    MW4 3457   0.404   0.755   6.016
  785SOL     OW 3458   0.153   0.475   6.300
  785SOL    HW2 3459   0.215   0.482   6.373
  785SOL    HW3 3460   0.153   0.382   6.277
  785SOL    MW4 3461   0.161   0.464   6.307
  786SOL     OW 3462   1.700   1.815   5.832
  786SOL    HW2 3463   1.767   1.848   5.772
  786SOL    HW3 3464   1.657   1.894   5.866
  786SOL    MW4 3465   1.702   1.830   5.828
  787SOL     OW 3466   0.835   0.736   6.784
  787SOL    HW2 3467   0.793   0.654   6.760
  787SOL    HW3 3468   0.836   0.735   6.880
  787SOL    MW4 3469   0.828   0.725   6.793
  788SOL     OW 3470   0.022   1.047   5.758
  788SOL    HW2 3471  -0.009   1.112   5.821
  788SOL    HW3 3472  -0.029   0.969   5.777
  788SOL    MW4 3473   0.012   1.044   5.768
  789SOL     OW 3474   1.434   0.059   6.506
  789SOL    HW2 3475   1.522   0.068   6.543
  789SOL    HW3 3476   1.444   0.000   6.432
  789SOL    MW4 3477   1.448   0.053   6.500
  790SOL     OW 3478   1.466   0.798   6.350
  790SOL    HW2 3479   1.546   0.813   6.299
  790SOL    HW3 3480   1.459   0.703   6.356
  790SOL    MW4 3481   1.475   0.787   6.345
  791SOL     OW 3482   0.606   1.847   5.700
  791SOL    HW2 3483   0.511   1.847   5.692
  791SOL    HW3 3484   0.622   1.793   5.778
  791SOL    MW4 3485   0.596   1.841   5.709
  792SOL     OW 3486   1.451   0.667   5.615
  792SOL    HW2 3487   1.379   0.643   5.557
  792SOL    HW3 3488   1.517   0.704   5.557
  792SOL    MW4 3489   1.450   0.669   5.600
  793SOL     OW 3490   0.585   1.399   6.296
  793SOL    HW2 3491   0.650   1.332   6.317
  793SOL    HW3 3492   0.637   1.476   6.273
  793SOL    MW4 3493   0.600   1.401   6.295
  794SOL     OW 3494   0.846   0.564   6.426
  794SOL    HW2 3495   0.786   0.582   6.498
  794SOL    HW3 3496   0.880   0.476   6.445
  794SOL    MW4 3497   0.842   0.554   6.439
  795SOL     OW 3498   1.071   1.147   6.445
  795SOL    HW2 3499   1.163   1.128   6.463
  795SOL    HW3 3500   1.044   1.077   6.385
  795SOL    MW4 3501   1.079   1.135   6.439
  796SOL     OW 3502   0.864   0.967   5.800
  796SOL    HW2 3503   0.850   0.879   5.765
  796SOL    HW3 3504   0.815   1.024   5.741
  796SOL    MW4 3505   0.856   0.962   5.788
  797SOL     OW 3506   1.345   1.385   6.541
  797SOL    HW2 3507   1.318   1.469   6.506
  797SOL    HW3 3508   1.305   1.380   6.628
  797SOL    MW4 3509   1.338   1.394   6.547
  798SOL     OW 3510   0.277   0.691   6.579
  798SOL    HW2 3511   0.227   0.690   6.660
  798SOL    HW3 3512   0.297   0.783   6.563
  798SOL    MW4 3513   0.273   0.703   6.587
  799SOL     OW 3514   1.583   0.173   5.902
  799SOL    HW2 3515   1.576   0.177   5.997
  799SOL    HW3 3516   1.595   0.264   5.875
  799SOL    MW4 3517   1.584   0.186   5.910
  800SOL     OW 3518   0.872   0.736   6.016
  800SOL    HW2 3519   0.852   0.722   5.923
  800SOL    HW3 3520   0.965   0.715   6.023
  800SOL    MW4 3521   0.882   0.731   6.005
  801SOL     OW 3522   0.855   1.694   6.054
  801SOL    HW2 3523   0.913   1.765   6.081
  801SOL    HW3 3524   0.878   1.622   6.112
  801SOL    MW4 3525   0.866   1.694   6.065
  802SOL     OW 3526   1.650   0.156   6.644
  802SOL    HW2 3527   1.695   0.074   6.663
  802SOL    HW3 3528   1.670   0.212   6.720
  802SOL    MW4 3529   1.660   0.152   6.656
  803SOL     OW 3530   0.098  -0.001   6.743
  803SOL    HW2 3531   0.089   0.000   6.648
  803SOL    HW3 3532   0.192   0.011   6.758
  803SOL    MW4 3533   0.110   0.002   6.734
  804SOL     OW 3534   1.735   1.192   6.363
  804SOL    HW2 3535   1.714   1.138   6.286
  804SOL    HW3 3536   1.831   1.190   6.367
  804SOL    MW4 3537   1.744   1.185   6.352
  805SOL     OW 3538   0.311   0.126   5.789
  805SOL    HW2 3539   0.240   0.181   5.757
  805SOL    HW3 3540   0.353   0.092   5.710
  805SOL    MW4 3541   0.307   0.128   5.775
  806SOL     OW 3542   1.435   0.623   6.625
  806SOL    HW2 3543   1.358   0.669   6.591
  806SOL    HW3 3544   1.492   0.692   6.659
  806SOL    MW4 3545   1.432   0.638   6.625
  807SOL     OW 3546   0.067   0.225   5.638
  807SOL    HW2 3547   0.034   0.304   5.682
  807SOL    HW3 3548   0.122   0.258   5.567
  807SOL    MW4 3549   0.070   0.239   5.635
  808SOL     OW 3550   0.101   1.482   5.827
  808SOL    HW2 3551   0.118   1.566   5.869
  808SOL    HW3 3552   0.136   1.491   5.739
  808SOL    MW4 3553   0.106   1.495   5.821
  809SOL     OW 3554   1.373   1.571   6.044
  809SOL    HW2 3555   1.436   1.561   5.973
  809SOL    HW3 3556   1.290   1.591   5.999
  809SOL    MW4 3557   1.370   1.572   6.029
  810SOL     OW 3558   1.736   2.707   0.257
  810SOL    HW2 3559   1.777   2.649   0.322
  810SOL    HW3 3560   1.643   2.699   0.274
  810SOL    MW4 3561   1.730   2.699   0.267
  811SOL     OW 3562   1.602   2.639   1.252
  811SOL    HW2 3563   1.557   2.706   1.303
  811SOL    HW3 3564   1.690   2.675   1.238
  811SOL    MW4 3565   1.608   2.652   1.256
  812SOL     OW 3566   0.530   2.890   0.486
  812SOL    HW2 3567   0.620   2.865   0.470
  812SOL    HW3 3568   0.526   2.983   0.463
  812SOL    MW4 3569   0.542   2.899   0.481
  813SOL     OW 3570   1.646   3.593   0.628
  813SOL    HW2 3571   1.658   3.539   0.706
  813SOL    HW3 3572   1.683   3.541   0.557
  813SOL    MW4 3573   1.652   3.578   0.629
  814SOL     OW 3574   1.025   3.478   1.629
  814SOL    HW2 3575   1.066   3.514   1.550
  814SOL    HW3 3576   1.060   3.389   1.636
  814SOL    MW4 3577   1.036   3.471   1.620
  815SOL     OW 3578   1.582   3.033   1.233
  815SOL    HW2 3579   1.503   2.998   1.191
  815SOL    HW3 3580   1.609   3.105   1.177
  815SOL    MW4 3581   1.575   3.038   1.220
  816SOL     OW 3582   0.814   2.346   0.499
  816SOL    HW2 3583   0.789   2.434   0.527
  816SOL    HW3 3584   0.811   2.349   0.403
  816SOL    MW4 3585   0.810   2.358   0.491
  817SOL     OW 3586   0.256   2.374   0.427
  817SOL    HW2 3587   0.288   2.462   0.409
  817SOL    HW3 3588   0.244   2.372   0.522
  817SOL    MW4 3589   0.259   2.386   0.439
  818SOL     OW 3590   0.334   2.787   1.328
  818SOL    HW2 3591   0.397   2.734   1.279
  818SOL    HW3 3592   0.315   2.861   1.271
  818SOL    MW4 3593   0.340   2.789   1.315
  819SOL     OW 3594   0.655   2.129   0.514
  819SOL    HW2 3595   0.713   2.205   0.516
  819SOL    HW3 3596   0.590   2.150   0.447
  819SOL    MW4 3597   0.654   2.141   0.505
  820SOL     OW 3598   0.742   3.056   0.689
  820SOL    HW2 3599   0.822   3.059   0.741
  820SOL    HW3 3600   0.770   3.023   0.603
  820SOL    MW4 3601   0.756   3.052   0.684
  821SOL     OW 3602   0.767   3.397   1.592
  821SOL    HW2 3603   0.851   3.423   1.631
  821SOL    HW3 3604   0.791   3.341   1.518
  821SOL    MW4 3605   0.781   3.393   1.587
  822SOL     OW 3606   0.519   2.560   0.680
  822SOL    HW2 3607   0.504   2.480   0.731
  822SOL    HW3 3608   0.601   2.595   0.714
  822SOL    MW4 3609   0.527   2.552   0.692
  823SOL     OW 3610   0.856   3.246   1.365
  823SOL    HW2 3611   0.820   3.312   1.305
  823SOL    HW3 3612   0.784   3.184   1.378
  823SOL    MW4 3613   0.842   3.246   1.359
  824SOL     OW 3614   0.661   2.386   1.057
  824SOL    HW2 3615   0.567   2.382   1.075
  824SOL    HW3 3616   0.691   2.295   1.066
  824SOL    MW4 3617   0.652   2.374   1.060
  825SOL     OW 3618   0.407   2.800   0.961
  825SOL    HW2 3619   0.362   2.807   0.877
  825SOL    HW3 3620   0.387   2.883   1.005
  825SOL    MW4 3621   0.399   2.812   0.955
  826SOL     OW 3622   0.104   3.646   0.836
  826SOL    HW2 3623   0.193   3.638   0.871
  826SOL    HW3 3624   0.068   3.558   0.841
  826SOL    MW4 3625   0.111   3.633   0.841
  827SOL     OW 3626   1.369   3.038   0.205
  827SOL    HW2 3627   1.287   3.074   0.171
  827SOL    HW3 3628   1.437   3.081   0.154
  827SOL    MW4 3629   1.367   3.048   0.193
  828SOL     OW 3630   0.368   3.173   0.871
  828SOL    HW2 3631   0.344   3.226   0.947
  828SOL    HW3 3632   0.424   3.231   0.819
  828SOL    MW4 3633   0.372   3.188   0.874
  829SOL     OW 3634   0.930   2.817   0.681
  829SOL    HW2 3635   0.844   2.804   0.721
  829SOL    HW3 3636   0.983   2.744   0.713
  829SOL    MW4 3637   0.926   2.806   0.690
  830SOL     OW 3638   0.338   3.469   1.466
  830SOL    HW2 3639   0.246   3.445   1.451
  830SOL    HW3 3640   0.382   3.386   1.483
  830SOL    MW4 3641   0.332   3.454   1.465
  831SOL     OW 3642   0.921   3.179   0.398
  831SOL    HW2 3643   0.898   3.241   0.466
  831SOL    HW3 3644   0.878   3.097   0.424
  831SOL    MW4 3645   0.913   3.175   0.409
  832SOL     OW 3646   1.794   2.180   0.854
  832SOL    HW2 3647   1.731   2.160   0.923
  832SOL    HW3 3648   1.784   2.109   0.791
  832SOL    MW4 3649   1.784   2.167   0.855
  833SOL     OW 3650   0.418   2.152   0.366
  833SOL    HW2 3651   0.392   2.114   0.282
  833SOL    HW3 3652   0.355   2.222   0.382
  833SOL    MW4 3653   0.407   2.155   0.357
  834SOL     OW 3654   0.253   3.113   0.403
  834SOL    HW2 3655   0.201   3.181   0.359
  834SOL    HW3 3656   0.250   3.039   0.343
  834SOL    MW4 3657   0.245   3.112   0.390
  835SOL     OW 3658   0.915   3.576   0.181
  835SOL    HW2 3659   0.870   3.592   0.264
  835SOL    HW3 3660   0.846   3.541   0.123
  835SOL    MW4 3661   0.901   3.573   0.183
  836SOL     OW 3662   1.850   2.349   0.156
  836SOL    HW2 3663   1.759   2.351   0.184
  836SOL    HW3 3664   1.895   2.411   0.214
  836SOL    MW4 3665   1.843   2.357   0.166
  837SOL     OW 3666   1.595   2.952   0.506
  837SOL    HW2 3667   1.505   2.952   0.541
  837SOL    HW3 3668   1.588   2.998   0.423
  837SOL    MW4 3669   1.582   2.958   0.500
  838SOL     OW 3670   1.395   2.587   1.578
  838SOL    HW2 3671   1.464   2.525   1.555
  838SOL    HW3 3672   1.320   2.561   1.525
  838SOL    MW4 3673   1.395   2.574   1.569
  839SOL     OW 3674   0.136   3.467   1.130
  839SOL    HW2 3675   0.119   3.413   1.207
  839SOL    HW3 3676   0.124   3.557   1.160
  839SOL    MW4 3677   0.133   3.471   1.144
  840SOL     OW 3678   1.131   2.974   1.570
  840SOL    HW2 3679   1.116   3.067   1.555
  840SOL    HW3 3680   1.226   2.964   1.570
  840SOL    MW4 3681   1.140   2.984   1.567
  841SOL     OW 3682   0.927   2.398   1.771
  841SOL    HW2 3683   1.017   2.399   1.738
  841SOL    HW3 3684   0.886   2.323   1.729
  841SOL    MW4 3685   0.933   2.388   1.762
  842SOL     OW 3686   1.502   2.930   0.898
  842SOL    HW2 3687   1.505   2.864   0.829
  842SOL    HW3 3688   1.587   2.973   0.894
  842SOL    MW4 3689   1.514   2.926   0.889
  843SOL     OW 3690   1.122   2.533   0.467
  843SOL    HW2 3691   1.148   2.557   0.378
  843SOL    HW3 3692   1.104   2.440   0.463
  843SOL    MW4 3693   1.124   2.525   0.454
  844SOL     OW 3694   1.787   3.153   0.318
  844SOL    HW2 3695   1.743   3.194   0.393
  844SOL    HW3 3696   1.844   3.221   0.283
  844SOL    MW4 3697   1.789   3.167   0.323
  845SOL     OW 3698   0.707   2.202   1.721
  845SOL    HW2 3699   0.717   2.128   1.661
  845SOL    HW3 3700   0.743   2.171   1.804
  845SOL    MW4 3701   0.713   2.188   1.723
  846SOL     OW 3702   0.443   3.569   0.636
  846SOL    HW2 3703   0.475   3.657   0.614
  846SOL    HW3 3704   0.396   3.541   0.558
  846SOL    MW4 3705   0.442   3.577   0.623
  847SOL     OW 3706   1.827   1.931   0.685
  847SOL    HW2 3707   1.881   1.882   0.747
  847SOL    HW3 3708   1.770   1.865   0.646
  847SOL    MW4 3709   1.827   1.915   0.687
  848SOL     OW 3710   0.159   3.629   0.213
  848SOL    HW2 3711   0.188   3.719   0.205
  848SOL    HW3 3712   0.109   3.612   0.134
  848SOL    MW4 3713   0.157   3.637   0.202
  849SOL     OW 3714   0.946   1.884   1.098
  849SOL    HW2 3715   0.905   1.962   1.060
  849SOL    HW3 3716   1.040   1.902   1.093
  849SOL    MW4 3717   0.952   1.896   1.093
  850SOL     OW 3718   1.563   3.437   0.184
  850SOL    HW2 3719   1.611   3.506   0.230
  850SOL    HW3 3720   1.484   3.481   0.153
  850SOL    MW4 3721   1.558   3.451   0.187
  851SOL     OW 3722   0.961   2.562   0.128
  851SOL    HW2 3723   0.963   2.509   0.049
  851SOL    HW3 3724   1.049   2.599   0.134
  851SOL    MW4 3725   0.973   2.561   0.117
  852SOL     OW 3726   1.575   2.488   0.464
  852SOL    HW2 3727   1.614   2.488   0.551
  852SOL    HW3 3728   1.516   2.564   0.464
  852SOL    MW4 3729   1.572   2.499   0.475
  853SOL     OW 3730   0.892   2.855   1.593
  853SOL    HW2 3731   0.869   2.835   1.683
  853SOL    HW3 3732   0.977   2.899   1.598
  853SOL    MW4 3733   0.899   2.858   1.605
  854SOL     OW 3734   0.972   1.992   1.353
  854SOL    HW2 3735   0.978   1.954   1.266
  854SOL    HW3 3736   0.961   2.086   1.338
  854SOL    MW4 3737   0.973   2.000   1.341
  855SOL     OW 3738   1.061   2.481   1.187
  855SOL    HW2 3739   1.136   2.510   1.134
  855SOL    HW3 3740   0.993   2.546   1.171
  855SOL    MW4 3741   1.062   2.493   1.177
  856SOL     OW 3742   1.611   2.449   1.464
  856SOL    HW2 3743   1.592   2.358   1.443
  856SOL    HW3 3744   1.589   2.498   1.385
  856SOL    MW4 3745   1.606   2.442   1.451
  857SOL     OW 3746   1.753   3.543   1.368
  857SOL    HW2 3747   1.681   3.505   1.419
  857SOL    HW3 3748   1.770   3.628   1.409
  857SOL    MW4 3749   1.747   3.548   1.380
  858SOL     OW 3750   1.058   2.187   1.570
  858SOL    HW2 3751   1.024   2.226   1.489
  858SOL    HW3 3752   1.036   2.095   1.563
  858SOL    MW4 3753   1.051   2.180   1.560
  859SOL     OW 3754   1.467   3.001   1.646
  859SOL    HW2 3755   1.549   3.042   1.676
  859SOL    HW3 3756   1.430   2.963   1.726
  859SOL    MW4 3757   1.473   3.002   1.661
  860SOL     OW 3758   1.762   2.374   0.630
  860SOL    HW2 3759   1.851   2.343   0.647
  860SOL    HW3 3760   1.705   2.314   0.678
  860SOL    MW4 3761   1.765   2.362   0.639
  861SOL     OW 3762   0.188   2.088   0.659
  861SOL    HW2 3763   0.179   2.028   0.585
  861SOL    HW3 3764   0.121   2.059   0.722
  861SOL    MW4 3765   0.178   2.075   0.657
  862SOL     OW 3766   1.131   3.181   0.220
  862SOL    HW2 3767   1.081   3.183   0.302
  862SOL    HW3 3768   1.065   3.199   0.152
  862SOL    MW4 3769   1.117   3.183   0.222
  863SOL     OW 3770   0.135   2.261   1.022
  863SOL    HW2 3771   0.107   2.352   1.031
  863SOL    HW3 3772   0.072   2.222   0.961
  863SOL    MW4 3773   0.122   2.267   1.016
  864SOL     OW 3774   0.594   3.599   0.328
  864SOL    HW2 3775   0.515   3.557   0.361
  864SOL    HW3 3776   0.660   3.582   0.395
  864SOL    MW4 3777   0.593   3.591   0.341
  865SOL     OW 3778   1.722   3.119   1.725
  865SOL    HW2 3779   1.772   3.045   1.757
  865SOL    HW3 3780   1.668   3.146   1.800
  865SOL    MW4 3781   1.722   3.113   1.738
  866SOL     OW 3782   0.730   3.014   0.035
  866SOL    HW2 3783   0.652   2.960   0.022
  866SOL    HW3 3784   0.701   3.087   0.088
  866SOL    MW4 3785   0.716   3.016   0.040
  867SOL     OW 3786   1.856   2.754   1.227
  867SOL    HW2 3787   1.872   2.792   1.140
  867SOL    HW3 3788   1.890   2.820   1.288
  867SOL    MW4 3789   1.863   2.767   1.223
  868SOL     OW 3790   1.648   3.463   0.896
  868SOL    HW2 3791   1.677   3.530   0.957
  868SOL    HW3 3792   1.629   3.387   0.951
  868SOL    MW4 3793   1.650   3.463   0.911
  869SOL     OW 3794   1.311   3.530   0.103
  869SOL    HW2 3795   1.237   3.493   0.153
  869SOL    HW3 3796   1.319   3.620   0.136
  869SOL    MW4 3797   1.302   3.537   0.115
  870SOL     OW 3798   0.119   2.536   1.192
  870SOL    HW2 3799   0.181   2.566   1.258
  870SOL    HW3 3800   0.053   2.605   1.186
  870SOL    MW4 3801   0.118   2.549   1.199
  871SOL     OW 3802   1.535   3.204   0.045
  871SOL    HW2 3803   1.482   3.253  -0.019
  871SOL    HW3 3804   1.566   3.270   0.106
  871SOL    MW4 3805   1.533   3.218   0.043
  872SOL     OW 3806   0.760   2.093   0.100
  872SOL    HW2 3807   0.708   2.013   0.088
  872SOL    HW3 3808   0.847   2.070   0.068
  872SOL    MW4 3809   0.763   2.079   0.094
  873SOL     OW 3810   0.214   3.645   1.644
  873SOL    HW2 3811   0.188   3.713   1.582
  873SOL    HW3 3812   0.262   3.582   1.592
  873SOL    MW4 3813   0.216   3.645   1.630
  874SOL     OW 3814   0.266   2.964   1.151
  874SOL    HW2 3815   0.319   3.039   1.176
  874SOL    HW3 3816   0.185   3.002   1.117
  874SOL    MW4 3817   0.262   2.979   1.151
  875SOL     OW 3818   0.806   2.868   1.139
  875SOL    HW2 3819   0.834   2.777   1.151
  875SOL    HW3 3820   0.735   2.862   1.075
  875SOL    MW4 3821   0.799   2.856   1.134
  876SOL     OW 3822   0.121   2.733   0.557
  876SOL    HW2 3823   0.212   2.748   0.584
  876SOL    HW3 3824   0.124   2.654   0.503
  876SOL    MW4 3825   0.133   2.725   0.555
  877SOL     OW 3826   0.357   2.441   1.811
  877SOL    HW2 3827   0.304   2.521   1.818
  877SOL    HW3 3828   0.427   2.453   1.876
  877SOL    MW4 3829   0.359   2.454   1.819
  878SOL     OW 3830   0.743   1.991   1.518
  878SOL    HW2 3831   0.720   1.899   1.520
  878SOL    HW3 3832   0.829   1.993   1.475
  878SOL    MW4 3833   0.750   1.981   1.514
  879SOL     OW 3834   0.427   2.515   1.557
  879SOL    HW2 3835   0.507   2.565   1.543
  879SOL    HW3 3836   0.418   2.509   1.652
  879SOL    MW4 3837   0.436   2.521   1.567
  880SOL     OW 3838   0.748   3.665   0.931
  880SOL    HW2 3839   0.837   3.680   0.961
  880SOL    HW3 3840   0.743   3.712   0.847
  880SOL    MW4 3841   0.758   3.673   0.924
  881SOL     OW 3842   1.404   2.040   1.828
  881SOL    HW2 3843   1.460   1.967   1.854
  881SOL    HW3 3844   1.374   2.078   1.910
  881SOL    MW4 3845   1.408   2.035   1.841
  882SOL     OW 3846   0.129   3.345   0.596
  882SOL    HW2 3847   0.101   3.384   0.678
  882SOL    HW3 3848   0.149   3.254   0.618
  882SOL    MW4 3849   0.127   3.337   0.609
  883SOL     OW 3850   0.962   3.388   0.631
  883SOL    HW2 3851   1.045   3.342   0.615
  883SOL    HW3 3852   0.952   3.387   0.727
  883SOL    MW4 3853   0.972   3.381   0.641
  884SOL     OW 3854   1.794   2.533   0.945
  884SOL    HW2 3855   1.883   2.563   0.927
  884SOL    HW3 3856   1.774   2.473   0.874
  884SOL    MW4 3857   1.803   2.530   0.934
  885SOL     OW 3858   1.645   2.712   1.825
  885SOL    HW2 3859   1.700   2.636   1.806
  885SOL    HW3 3860   1.647   2.720   1.920
  885SOL    MW4 3861   1.653   2.703   1.833
  886SOL     OW 3862   0.695   3.445   0.036
  886SOL    HW2 3863   0.635   3.514   0.006
  886SOL    HW3 3864   0.640   3.387   0.089
  886SOL    MW4 3865   0.679   3.447   0.038
  887SOL     OW 3866   1.133   2.090   0.259
  887SOL    HW2 3867   1.066   2.066   0.196
  887SOL    HW3 3868   1.198   2.139   0.208
  887SOL    MW4 3869   1.133   2.092   0.244
  888SOL     OW 3870   0.940   2.274   1.344
  888SOL    HW2 3871   0.859   2.315   1.372
  888SOL    HW3 3872   0.987   2.342   1.296
  888SOL    MW4 3873   0.935   2.289   1.342
  889SOL     OW 3874   1.200   2.612   0.967
  889SOL    HW2 3875   1.213   2.706   0.977
  889SOL    HW3 3876   1.161   2.602   0.881
  889SOL    MW4 3877   1.196   2.623   0.957
  890SOL     OW 3878   0.652   2.807   0.771
  890SOL    HW2 3879   0.563   2.798   0.804
  890SOL    HW3 3880   0.656   2.897   0.739
  890SOL    MW4 3881   0.641   2.818   0.771
  891SOL     OW 3882   1.451   2.390   0.766
  891SOL    HW2 3883   1.396   2.311   0.765
  891SOL    HW3 3884   1.433   2.431   0.850
  891SOL    MW4 3885   1.441   2.385   0.775
  892SOL     OW 3886   0.422   2.077   1.583
  892SOL    HW2 3887   0.343   2.095   1.635
  892SOL    HW3 3888   0.417   2.139   1.510
  892SOL    MW4 3889   0.412   2.087   1.580
  893SOL     OW 3890   1.070   2.594   0.723
  893SOL    HW2 3891   1.007   2.526   0.747
  893SOL    HW3 3892   1.090   2.575   0.631
  893SOL    MW4 3893   1.064   2.581   0.715
  894SOL     OW 3894   0.326   3.489   0.425
  894SOL    HW2 3895   0.287   3.536   0.351
  894SOL    HW3 3896   0.260   3.424   0.450
  894SOL    MW4 3897   0.313   3.487   0.419
  895SOL     OW 3898   0.818   2.898   0.449
  895SOL    HW2 3899   0.820   2.872   0.356
  895SOL    HW3 3900   0.876   2.835   0.492
  895SOL    MW4 3901   0.826   2.887   0.443
  896SOL     OW 3902   1.371   3.458   1.221
  896SOL    HW2 3903   1.296   3.504   1.259
  896SOL    HW3 3904   1.353   3.365   1.238
  896SOL    MW4 3905   1.360   3.452   1.229
  897SOL     OW 3906   1.375   3.666   0.651
  897SOL    HW2 3907   1.318   3.619   0.590
  897SOL    HW3 3908   1.461   3.627   0.638
  897SOL    MW4 3909   1.378   3.657   0.641
  898SOL     OW 3910   1.328   2.142   0.782
  898SOL    HW2 3911   1.356   2.074   0.843
  898SOL    HW3 3912   1.242   2.113   0.752
  898SOL    MW4 3913   1.321   2.129   0.786
  899SOL     OW 3914   0.133   3.076   0.716
  899SOL    HW2 3915   0.197   3.108   0.779
  899SOL    HW3 3916   0.182   3.012   0.664
  899SOL    MW4 3917   0.148   3.072   0.717
  900SOL     OW 3918   0.633   3.152   1.698
  900SOL    HW2 3919   0.681   3.235   1.685
  900SOL    HW3 3920   0.690   3.100   1.754
  900SOL    MW4 3921   0.647   3.156   1.704
  901SOL     OW 3922   0.209   3.394   1.838
  901SOL    HW2 3923   0.265   3.318   1.853
  901SOL    HW3 3924   0.158   3.372   1.760
  901SOL    MW4 3925   0.209   3.381   1.829
  902SOL     OW 3926   1.308   2.246   0.117
  902SOL    HW2 3927   1.281   2.312   0.053
  902SOL    HW3 3928   1.378   2.289   0.167
  902SOL    MW4 3929   1.313   2.259   0.114
  903SOL     OW 3930   0.976   1.951   0.054
  903SOL    HW2 3931   1.032   1.943  -0.024
  903SOL    HW3 3932   0.953   1.861   0.076
  903SOL    MW4 3933   0.981   1.938   0.047
  904SOL     OW 3934   1.481   2.802   0.259
  904SOL    HW2 3935   1.448   2.891   0.249
  904SOL    HW3 3936   1.446   2.773   0.344
  904SOL    MW4 3937   1.471   2.811   0.270
  905SOL     OW 3938   1.094   3.231   1.447
  905SOL    HW2 3939   1.005   3.237   1.415
  905SOL    HW3 3940   1.138   3.310   1.415
  905SOL    MW4 3941   1.089   3.241   1.439
  906SOL     OW 3942   0.387   1.899   1.789
  906SOL    HW2 3943   0.315   1.864   1.737
  906SOL    HW3 3944   0.445   1.940   1.724
  906SOL    MW4 3945   0.385   1.900   1.774
  907SOL     OW 3946   0.411   3.389   1.088
  907SOL    HW2 3947   0.456   3.451   1.145
  907SOL    HW3 3948   0.318   3.408   1.101
  907SOL    MW4 3949   0.404   3.399   1.095
  908SOL     OW 3950   1.851   2.918   1.442
  908SOL    HW2 3951   1.766   2.931   1.401
  908SOL    HW3 3952   1.831   2.882   1.529
  908SOL    MW4 3953   1.838   2.914   1.447
  909SOL     OW 3954   0.833   3.457   1.196
  909SOL    HW2 3955   0.857   3.446   1.105
  909SOL    HW3 3956   0.756   3.514   1.194
  909SOL    MW4 3957   0.825   3.462   1.185
  910SOL     OW 3958   0.475   2.840   0.051
  910SOL    HW2 3959   0.398   2.853   0.107
  910SOL    HW3 3960   0.439   2.804  -0.030
  910SOL    MW4 3961   0.461   2.836   0.048
  911SOL     OW 3962   1.128   2.813   0.294
  911SOL    HW2 3963   1.038   2.834   0.269
  911SOL    HW3 3964   1.155   2.886   0.350
  911SOL    MW4 3965   1.120   2.825   0.297
  912SOL     OW 3966   0.628   3.162   0.986
  912SOL    HW2 3967   0.621   3.141   1.080
  912SOL    HW3 3968   0.546   3.130   0.949
  912SOL    MW4 3969   0.616   3.156   0.993
  913SOL     OW 3970   1.492   2.172   1.388
  913SOL    HW2 3971   1.439   2.174   1.468
  913SOL    HW3 3972   1.477   2.085   1.351
  913SOL    MW4 3973   1.484   2.162   1.393
  914SOL     OW 3974   1.828   2.096   1.261
  914SOL    HW2 3975   1.809   2.163   1.196
  914SOL    HW3 3976   1.885   2.034   1.216
  914SOL    MW4 3977   1.832   2.097   1.247
  915SOL     OW 3978   0.074   3.254   1.649
  915SOL    HW2 3979   0.118   3.187   1.595
  915SOL    HW3 3980  -0.011   3.216   1.669
  915SOL    MW4 3981   0.069   3.240   1.645
  916SOL     OW 3982   0.757   1.929   0.701
  916SOL    HW2 3983   0.686   1.990   0.683
  916SOL    HW3 3984   0.808   1.926   0.620
  916SOL    MW4 3985   0.753   1.935   0.688
  917SOL     OW 3986   0.515   3.169   0.450
  917SOL    HW2 3987   0.508   3.201   0.540
  917SOL    HW3 3988   0.425   3.153   0.422
  917SOL    MW4 3989   0.503   3.171   0.457
  918SOL     OW 3990   1.110   3.562   1.359
  918SOL    HW2 3991   1.030   3.547   1.309
  918SOL    HW3 3992   1.117   3.657   1.366
  918SOL    MW4 3993   1.101   3.573   1.353
  919SOL     OW 3994   1.224   3.527   0.849
  919SOL    HW2 3995   1.271   3.600   0.808
  919SOL    HW3 3996   1.145   3.566   0.885
  919SOL    MW4 3997   1.219   3.542   0.848
  920SOL     OW 3998   1.632   3.622   1.124
  920SOL    HW2 3999   1.675   3.592   1.204
  920SOL    HW3 4000   1.551   3.570   1.121
  920SOL    MW4 4001   1.627   3.611   1.134
  921SOL     OW 4002   0.717   2.586   1.831
  921SOL    HW2 4003   0.787   2.528   1.803
  921SOL    HW3 4004   0.660   2.531   1.886
  921SOL    MW4 4005   0.719   2.573   1.835
  922SOL     OW 4006   1.504   2.798   1.464
  922SOL    HW2 4007   1.509   2.851   1.544
  922SOL    HW3 4008   1.466   2.715   1.492
  922SOL    MW4 4009   1.500   2.793   1.479
  923SOL     OW 4010   1.144   1.933   1.710
  923SOL    HW2 4011   1.139   1.840   1.691
  923SOL    HW3 4012   1.227   1.944   1.756
  923SOL    MW4 4013   1.152   1.922   1.714
  924SOL     OW 4014   0.518   2.453   0.164
  924SOL    HW2 4015   0.484   2.509   0.234
  924SOL    HW3 4016   0.589   2.403   0.204
  924SOL    MW4 4017   0.524   2.454   0.178
  925SOL     OW 4018   1.614   3.204   0.986
  925SOL    HW2 4019   1.649   3.186   0.899
  925SOL    HW3 4020   1.519   3.205   0.973
  925SOL    MW4 4021   1.606   3.201   0.973
  926SOL     OW 4022   1.043   2.852   1.355
  926SOL    HW2 4023   1.086   2.887   1.433
  926SOL    HW3 4024   1.026   2.929   1.301
  926SOL    MW4 4025   1.046   2.867   1.358
  927SOL     OW 4026   1.574   2.339   0.228
  927SOL    HW2 4027   1.566   2.410   0.165
  927SOL    HW3 4028   1.592   2.383   0.311
  927SOL    MW4 4029   1.575   2.353   0.230
  928SOL     OW 4030   0.434   1.994   0.657
  928SOL    HW2 4031   0.484   2.037   0.588
  928SOL    HW3 4032   0.349   2.038   0.657
  928SOL    MW4 4033   0.431   2.007   0.648
  929SOL     OW 4034   0.193   3.056   1.517
  929SOL    HW2 4035   0.221   3.009   1.595
  929SOL    HW3 4036   0.114   3.011   1.488
  929SOL    MW4 4037   0.186   3.045   1.523
  930SOL     OW 4038   0.701   2.383   1.484
  930SOL    HW2 4039   0.673   2.471   1.508
  930SOL    HW3 4040   0.670   2.327   1.555
  930SOL    MW4 4041   0.693   2.386   1.496
  931SOL     OW 4042   1.243   2.601   0.203
  931SOL    HW2 4043   1.290   2.619   0.122
  931SOL    HW3 4044   1.209   2.685   0.231
  931SOL    MW4 4045   1.245   2.615   0.196
  932SOL     OW 4046   0.356   2.779   0.697
  932SOL    HW2 4047   0.414   2.835   0.645
  932SOL    HW3 4048   0.400   2.694   0.699
  932SOL    MW4 4049   0.369   2.776   0.690
  933SOL     OW 4050   1.496   2.131   0.534
  933SOL    HW2 4051   1.418   2.081   0.559
  933SOL    HW3 4052   1.467   2.222   0.534
  933SOL    MW4 4053   1.482   2.135   0.537
  934SOL     OW 4054   1.082   2.093   0.693
  934SOL    HW2 4055   1.102   2.168   0.637
  934SOL    HW3 4056   1.062   2.132   0.778
  934SOL    MW4 4057   1.083   2.109   0.697
  935SOL     OW 4058   0.978   3.343   0.025
  935SOL    HW2 4059   1.005   3.421  -0.023
  935SOL    HW3 4060   0.885   3.358   0.044
  935SOL    MW4 4061   0.969   3.356   0.021
  936SOL     OW 4062   1.842   2.866   1.712
  936SOL    HW2 4063   1.755   2.846   1.748
  936SOL    HW3 4064   1.896   2.792   1.737
  936SOL    MW4 4065   1.837   2.855   1.720
  937SOL     OW 4066   0.063   3.379   0.869
  937SOL    HW2 4067   0.095   3.383   0.960
  937SOL    HW3 4068  -0.032   3.387   0.877
  937SOL    MW4 4069   0.055   3.382   0.882
  938SOL     OW 4070   0.018   2.505   0.416
  938SOL    HW2 4071  -0.042   2.477   0.486
  938SOL    HW3 4072   0.092   2.445   0.422
  938SOL    MW4 4073   0.020   2.494   0.425
  939SOL     OW 4074   1.586   3.717   1.850
  939SOL    HW2 4075   1.631   3.641   1.815
  939SOL    HW3 4076   1.624   3.730   1.937
  939SOL    MW4 4077   1.596   3.710   1.856
  940SOL     OW 4078   1.186   3.236   0.576
  940SOL    HW2 4079   1.209   3.187   0.654
  940SOL    HW3 4080   1.267   3.278   0.548
  940SOL    MW4 4081   1.199   3.236   0.583
  941SOL     OW 4082   0.444   2.244   1.305
  941SOL    HW2 4083   0.477   2.325   1.345
  941SOL    HW3 4084   0.417   2.270   1.217
  941SOL    MW4 4085   0.443   2.258   1.299
  942SOL     OW 4086   0.398   2.211   1.041
  942SOL    HW2 4087   0.428   2.125   1.012
  942SOL    HW3 4088   0.303   2.204   1.044
  942SOL    MW4 4089   0.390   2.200   1.039
  943SOL     OW 4090   1.227   2.420   1.732
  943SOL    HW2 4091   1.279   2.355   1.685
  943SOL    HW3 4092   1.185   2.471   1.662
  943SOL    MW4 4093   1.228   2.417   1.715
  944SOL     OW 4094   1.326   2.215   1.593
  944SOL    HW2 4095   1.233   2.199   1.580
  944SOL    HW3 4096   1.352   2.153   1.661
  944SOL    MW4 4097   1.316   2.205   1.600
  945SOL     OW 4098   0.541   1.989   0.932
  945SOL    HW2 4099   0.551   1.898   0.958
  945SOL    HW3 4100   0.497   1.985   0.847
  945SOL    MW4 4101   0.537   1.977   0.924
  946SOL     OW 4102   0.635   3.604   1.478
  946SOL    HW2 4103   0.552   3.589   1.523
  946SOL    HW3 4104   0.694   3.537   1.513
  946SOL    MW4 4105   0.633   3.594   1.488
  947SOL     OW 4106   1.692   2.311   1.103
  947SOL    HW2 4107   1.625   2.344   1.163
  947SOL    HW3 4108   1.735   2.389   1.069
  947SOL    MW4 4109   1.690   2.326   1.107
  948SOL     OW 4110   1.870   3.031   1.073
  948SOL    HW2 4111   1.863   2.971   0.998
  948SOL    HW3 4112   1.796   3.091   1.062
  948SOL    MW4 4113   1.860   3.031   1.062
  949SOL     OW 4114   1.252   2.893   0.991
  949SOL    HW2 4115   1.266   2.865   1.082
  949SOL    HW3 4116   1.338   2.924   0.963
  949SOL    MW4 4117   1.265   2.894   1.000
  950SOL     OW 4118   1.335   2.388   1.270
  950SOL    HW2 4119   1.356   2.389   1.177
  950SOL    HW3 4120   1.380   2.310   1.303
  950SOL    MW4 4121   1.342   2.378   1.262
  951SOL     OW 4122   1.828   2.519   1.812
  951SOL    HW2 4123   1.865   2.464   1.881
  951SOL    HW3 4124   1.853   2.476   1.730
  951SOL    MW4 4125   1.835   2.507   1.811
  952SOL     OW 4126   1.375   2.817   1.863
  952SOL    HW2 4127   1.441   2.765   1.817
  952SOL    HW3 4128   1.395   2.804   1.956
  952SOL    MW4 4129   1.386   2.808   1.870
  953SOL     OW 4130   1.326   1.903   0.212
  953SOL    HW2 4131   1.400   1.947   0.255
  953SOL    HW3 4132   1.250   1.957   0.234
  953SOL    MW4 4133   1.326   1.915   0.220
  954SOL     OW 4134   1.386   2.678   0.490
  954SOL    HW2 4135   1.301   2.648   0.460
  954SOL    HW3 4136   1.378   2.685   0.585
  954SOL    MW4 4137   1.374   2.676   0.499
  955SOL     OW 4138   0.462   3.141   1.221
  955SOL    HW2 4139   0.474   3.168   1.312
  955SOL    HW3 4140   0.443   3.222   1.174
  955SOL    MW4 4141   0.461   3.156   1.226
  956SOL     OW 4142   0.746   2.121   1.044
  956SOL    HW2 4143   0.719   2.123   1.135
  956SOL    HW3 4144   0.676   2.073   0.999
  956SOL    MW4 4145   0.734   2.117   1.051
  957SOL     OW 4146   0.600   3.613   1.206
  957SOL    HW2 4147   0.652   3.690   1.183
  957SOL    HW3 4148   0.609   3.605   1.301
  957SOL    MW4 4149   0.609   3.620   1.217
  958SOL     OW 4150   1.502   3.198   1.438
  958SOL    HW2 4151   1.487   3.127   1.501
  958SOL    HW3 4152   1.548   3.156   1.366
  958SOL    MW4 4153   1.508   3.182   1.438
  959SOL     OW 4154   0.576   2.929   1.555
  959SOL    HW2 4155   0.613   2.934   1.467
  959SOL    HW3 4156   0.615   3.002   1.602
  959SOL    MW4 4157   0.586   2.939   1.550
  960SOL     OW 4158   0.756   2.972   1.367
  960SOL    HW2 4159   0.815   2.918   1.420
  960SOL    HW3 4160   0.771   2.944   1.277
  960SOL    MW4 4161   0.766   2.961   1.363
  961SOL     OW 4162   0.759   2.344   0.216
  961SOL    HW2 4163   0.832   2.393   0.179
  961SOL    HW3 4164   0.775   2.253   0.190
  961SOL    MW4 4165   0.771   2.339   0.209
  962SOL     OW 4166   1.567   3.461   1.539
  962SOL    HW2 4167   1.609   3.446   1.624
  962SOL    HW3 4168   1.558   3.374   1.501
  962SOL    MW4 4169   1.571   3.449   1.546
  963SOL     OW 4170   1.227   1.940   1.130
  963SOL    HW2 4171   1.282   1.949   1.052
  963SOL    HW3 4172   1.282   1.974   1.201
  963SOL    MW4 4173   1.241   1.945   1.129
  964SOL     OW 4174   0.234   2.853   0.314
  964SOL    HW2 4175   0.171   2.869   0.243
  964SOL    HW3 4176   0.181   2.816   0.385
  964SOL    MW4 4177   0.219   2.850   0.314
  965SOL     OW 4178   0.590   3.207   0.173
  965SOL    HW2 4179   0.605   3.183   0.265
  965SOL    HW3 4180   0.498   3.185   0.157
  965SOL    MW4 4181   0.580   3.200   0.183
  966SOL     OW 4182   1.129   3.438   0.325
  966SOL    HW2 4183   1.137   3.356   0.276
  966SOL    HW3 4184   1.048   3.477   0.292
  966SOL    MW4 4185   1.119   3.433   0.315
  967SOL     OW 4186   0.388   3.596   0.894
  967SOL    HW2 4187   0.392   3.507   0.929
  967SOL    HW3 4188   0.414   3.587   0.803
  967SOL    MW4 4189   0.391   3.584   0.886
  968SOL     OW 4190   1.005   3.074   1.137
  968SOL    HW2 4191   0.937   3.008   1.153
  968SOL    HW3 4192   1.023   3.068   1.044
  968SOL    MW4 4193   0.998   3.065   1.128
  969SOL     OW 4194   0.094   3.349   1.388
  969SOL    HW2 4195   0.084   3.307   1.474
  969SOL    HW3 4196   0.015   3.402   1.378
  969SOL    MW4 4197   0.083   3.350   1.399
  970SOL     OW 4198   0.998   2.213   0.958
  970SOL    HW2 4199   0.928   2.165   1.003
  970SOL    HW3 4200   1.030   2.276   1.022
  970SOL    MW4 4201   0.993   2.215   0.972
  971SOL     OW 4202   0.649   2.649   1.578
  971SOL    HW2 4203   0.642   2.744   1.566
  971SOL    HW3 4204   0.658   2.638   1.673
  971SOL    MW4 4205   0.650   2.661   1.588
  972SOL     OW 4206   0.370   3.164   1.836
  972SOL    HW2 4207   0.442   3.166   1.773
  972SOL    HW3 4208   0.340   3.073   1.835
  972SOL    MW4 4209   0.375   3.153   1.828
  973SOL     OW 4210   1.454   1.927   1.303
  973SOL    HW2 4211   1.525   1.873   1.267
  973SOL    HW3 4212   1.453   1.906   1.396
  973SOL    MW4 4213   1.463   1.918   1.311
  974SOL     OW 4214   1.654   3.457   1.787
  974SOL    HW2 4215   1.627   3.454   1.878
  974SOL    HW3 4216   1.750   3.461   1.790
  974SOL    MW4 4217   1.664   3.457   1.799
  975SOL     OW 4218   0.465   2.319   0.771
  975SOL    HW2 4219   0.536   2.267   0.734
  975SOL    HW3 4220   0.451   2.284   0.858
  975SOL    MW4 4221   0.473   2.308   0.778
  976SOL     OW 4222   0.020   3.654   1.843
  976SOL    HW2 4223   0.070   3.632   1.765
  976SOL    HW3 4224   0.028   3.749   1.851
  976SOL    MW4 4225   0.028   3.663   1.834
  977SOL     OW 4226   0.781   3.412   0.847
  977SOL    HW2 4227   0.709   3.349   0.860
  977SOL    HW3 4228   0.742   3.497   0.865
  977SOL    MW4 4229   0.765   3.415   0.850
  978SOL     OW 4230   1.101   2.260   0.495
  978SOL    HW2 4231   1.123   2.197   0.427
  978SOL    HW3 4232   1.006   2.252   0.506
  978SOL    MW4 4233   1.091   2.251   0.487
  979SOL     OW 4234   0.186   1.950   0.427
  979SOL    HW2 4235   0.257   1.971   0.366
  979SOL    HW3 4236   0.140   1.878   0.385
  979SOL    MW4 4237   0.190   1.944   0.413
  980SOL     OW 4238   0.017   2.417   1.570
  980SOL    HW2 4239   0.081   2.483   1.545
  980SOL    HW3 4240  -0.064   2.444   1.527
  980SOL    MW4 4241   0.015   2.429   1.562
  981SOL     OW 4242   1.755   3.324   0.527
  981SOL    HW2 4243   1.725   3.257   0.588
  981SOL    HW3 4244   1.849   3.330   0.541
  981SOL    MW4 4245   1.763   3.316   0.537
  982SOL     OW 4246   1.311   3.001   0.457
  982SOL    HW2 4247   1.283   3.087   0.490
  982SOL    HW3 4248   1.339   3.017   0.367
  982SOL    MW4 4249   1.311   3.015   0.449
  983SOL     OW 4250   0.973   1.921   0.510
  983SOL    HW2 4251   1.010   1.980   0.575
  983SOL    HW3 4252   0.950   1.977   0.436
  983SOL    MW4 4253   0.974   1.936   0.509
  984SOL     OW 4254   1.826   2.803   0.932
  984SOL    HW2 4255   1.817   2.835   0.843
  984SOL    HW3 4256   1.779   2.719   0.932
  984SOL    MW4 4257   1.819   2.796   0.922
  985SOL     OW 4258   0.202   2.643   1.511
  985SOL    HW2 4259   0.223   2.712   1.449
  985SOL    HW3 4260   0.282   2.590   1.516
  985SOL    MW4 4261   0.215   2.644   1.505
  986SOL     OW 4262   1.738   2.734   0.633
  986SOL    HW2 4263   1.832   2.723   0.621
  986SOL    HW3 4264   1.714   2.806   0.574
  986SOL    MW4 4265   1.748   2.742   0.624
  987SOL     OW 4266   0.187   2.658   1.778
  987SOL    HW2 4267   0.113   2.602   1.804
  987SOL    HW3 4268   0.182   2.661   1.683
  987SOL    MW4 4269   0.176   2.651   1.768
  988SOL     OW 4270   0.353   1.945   1.228
  988SOL    HW2 4271   0.396   2.029   1.248
  988SOL    HW3 4272   0.426   1.883   1.221
  988SOL    MW4 4273   0.368   1.948   1.229
  989SOL     OW 4274   0.394   2.612   0.406
  989SOL    HW2 4275   0.394   2.707   0.391
  989SOL    HW3 4276   0.471   2.596   0.460
  989SOL    MW4 4277   0.404   2.623   0.411
  990SOL     OW 4278   1.170   2.471   1.470
  990SOL    HW2 4279   1.206   2.444   1.386
  990SOL    HW3 4280   1.083   2.505   1.449
  990SOL    MW4 4281   1.164   2.472   1.457
  991SOL     OW 4282   0.153   2.343   0.695
  991SOL    HW2 4283   0.215   2.350   0.768
  991SOL    HW3 4284   0.153   2.250   0.672
  991SOL    MW4 4285   0.161   2.332   0.702
  992SOL     OW 4286   1.700   3.683   0.227
  992SOL    HW2 4287   1.767   3.716   0.167
  992SOL    HW3 4288   1.657   3.762   0.261
  992SOL    MW4 4289   1.702   3.698   0.223
  993SOL     OW 4290   0.835   2.604   1.179
  993SOL    HW2 4291   0.793   2.522   1.155
  993SOL    HW3 4292   0.836   2.603   1.275
  993SOL    MW4 4293   0.828   2.593   1.188
  994SOL     OW 4294   1.506   3.737   1.578
  994SOL    HW2 4295   1.509   3.643   1.561
  994SOL    HW3 4296   1.529   3.745   1.670
  994SOL    MW4 4297   1.509   3.725   1.588
  995SOL     OW 4298   0.639   2.074   1.284
  995SOL    HW2 4299   0.570   2.137   1.305
  995SOL    HW3 4300   0.666   2.038   1.369
  995SOL    MW4 4301   0.633   2.077   1.297
  996SOL     OW 4302   0.022   2.915   0.153
  996SOL    HW2 4303  -0.009   2.980   0.216
  996SOL    HW3 4304  -0.029   2.837   0.172
  996SOL    MW4 4305   0.012   2.912   0.163
  997SOL     OW 4306   1.434   1.927   0.901
  997SOL    HW2 4307   1.522   1.936   0.938
  997SOL    HW3 4308   1.444   1.868   0.827
  997SOL    MW4 4309   1.448   1.921   0.895
  998SOL     OW 4310   1.466   2.666   0.745
  998SOL    HW2 4311   1.546   2.681   0.694
  998SOL    HW3 4312   1.459   2.571   0.751
  998SOL    MW4 4313   1.475   2.655   0.740
  999SOL     OW 4314   0.606   3.715   0.095
  999SOL    HW2 4315   0.511   3.715   0.087
  999SOL    HW3 4316   0.622   3.661   0.173
  999SOL    MW4 4317   0.596   3.709   0.104
 1000SOL     OW 4318   0.916   2.592   1.442
 1000SOL    HW2 4319   0.985   2.659   1.439
 1000SOL    HW3 4320   0.849   2.630   1.498
 1000SOL    MW4 4321   0.917   2.605   1.449
 1001SOL     OW 4322   0.334   2.892   1.690
 1001SOL    HW2 4323   0.288   2.808   1.692
 1001SOL    HW3 4324   0.391   2.886   1.614
 1001SOL    MW4 4325   0.336   2.880   1.682
 1002SOL     OW 4326   1.451   2.535   0.011
 1002SOL    HW2 4327   1.379   2.511  -0.047
 1002SOL    HW3 4328   1.517   2.572  -0.047
 1002SOL    MW4 4329   1.450   2.537  -0.004
 1003SOL     OW 4330   0.585   3.267   0.691
 1003SOL    HW2 4331   0.650   3.200   0.712
 1003SOL    HW3 4332   0.637   3.344   0.668
 1003SOL    MW4 4333   0.600   3.269   0.690
 1004SOL     OW 4334   0.846   2.432   0.821
 1004SOL    HW2 4335   0.786   2.450   0.893
 1004SOL    HW3 4336   0.880   2.344   0.840
 1004SOL    MW4 4337   0.842   2.422   0.834
 1005SOL     OW 4338   1.787   1.931   1.490
 1005SOL    HW2 4339   1.708   1.977   1.518
 1005SOL    HW3 4340   1.822   1.985   1.419
 1005SOL    MW4 4341   1.781   1.944   1.484
 1006SOL     OW 4342   1.071   3.015   0.840
 1006SOL    HW2 4343   1.163   2.996   0.858
 1006SOL    HW3 4344   1.044   2.945   0.780
 1006SOL    MW4 4345   1.079   3.003   0.834
 1007SOL     OW 4346   0.864   2.835   0.195
 1007SOL    HW2 4347   0.850   2.747   0.160
 1007SOL    HW3 4348   0.815   2.892   0.136
 1007SOL    MW4 4349   0.856   2.830   0.183
 1008SOL     OW 4350   1.345   3.253   0.936
 1008SOL    HW2 4351   1.318   3.337   0.901
 1008SOL    HW3 4352   1.305   3.248   1.023
 1008SOL    MW4 4353   1.338   3.262   0.942
 1009SOL     OW 4354   1.264   3.201   1.204
 1009SOL    HW2 4355   1.275   3.168   1.293
 1009SOL    HW3 4356   1.183   3.160   1.173
 1009SOL    MW4 4357   1.254   3.193   1.210
 1010SOL     OW 4358   0.277   2.559   0.974
 1010SOL    HW2 4359   0.227   2.558   1.055
 1010SOL    HW3 4360   0.297   2.651   0.958
 1010SOL    MW4 4361   0.273   2.571   0.982
 1011SOL     OW 4362   1.344   3.323   1.736
 1011SOL    HW2 4363   1.344   3.417   1.752
 1011SOL    HW3 4364   1.389   3.313   1.652
 1011SOL    MW4 4365   1.350   3.333   1.727
 1012SOL     OW 4366   1.583   2.041   0.297
 1012SOL    HW2 4367   1.576   2.045   0.392
 1012SOL    HW3 4368   1.595   2.132   0.270
 1012SOL    MW4 4369   1.584   2.054   0.305
 1013SOL     OW 4370   0.872   2.604   0.411
 1013SOL    HW2 4371   0.852   2.590   0.318
 1013SOL    HW3 4372   0.965   2.583   0.418
 1013SOL    MW4 4373   0.882   2.599   0.400
 1014SOL     OW 4374   0.199   2.227   1.715
 1014SOL    HW2 4375   0.156   2.286   1.652
 1014SOL    HW3 4376   0.267   2.282   1.755
 1014SOL    MW4 4377   0.203   2.242   1.712
 1015SOL     OW 4378   1.311   2.847   1.260
 1015SOL    HW2 4379   1.374   2.844   1.333
 1015SOL    HW3 4380   1.227   2.865   1.302
 1015SOL    MW4 4381   1.307   2.849   1.275
 1016SOL     OW 4382   0.855   3.562   0.449
 1016SOL    HW2 4383   0.913   3.633   0.476
 1016SOL    HW3 4384   0.878   3.490   0.507
 1016SOL    MW4 4385   0.866   3.562   0.460
 1017SOL     OW 4386   1.650   2.024   1.039
 1017SOL    HW2 4387   1.695   1.942   1.058
 1017SOL    HW3 4388   1.670   2.080   1.115
 1017SOL    MW4 4389   1.660   2.020   1.051
 1018SOL     OW 4390   0.098   1.867   1.138
 1018SOL    HW2 4391   0.089   1.868   1.043
 1018SOL    HW3 4392   0.192   1.879   1.153
 1018SOL    MW4 4393   0.110   1.870   1.129
 1019SOL     OW 4394   1.735   3.060   0.758
 1019SOL    HW2 4395   1.714   3.006   0.681
 1019SOL    HW3 4396   1.831   3.058   0.762
 1019SOL    MW4 4397   1.744   3.053   0.747
 1020SOL     OW 4398   0.427   3.205   1.501
 1020SOL    HW2 4399   0.348   3.155   1.524
 1020SOL    HW3 4400   0.497   3.164   1.551
 1020SOL    MW4 4401   0.425   3.193   1.511
 1021SOL     OW 4402   0.311   1.994   0.184
 1021SOL    HW2 4403   0.240   2.049   0.152
 1021SOL    HW3 4404   0.353   1.960   0.105
 1021SOL    MW4 4405   0.307   1.996   0.170
 1022SOL     OW 4406   1.435   2.491   1.020
 1022SOL    HW2 4407   1.358   2.537   0.986
 1022SOL    HW3 4408   1.492   2.560   1.054
 1022SOL    MW4 4409   1.432   2.506   1.020
 1023SOL     OW 4410   0.067   2.093   0.033
 1023SOL    HW2 4411   0.034   2.172   0.077
 1023SOL    HW3 4412   0.122   2.126  -0.038
 1023SOL    MW4 4413   0.070   2.107   0.030
 1024SOL     OW 4414   0.101   3.350   0.222
 1024SOL    HW2 4415   0.118   3.434   0.264
 1024SOL    HW3 4416   0.136   3.359   0.134
 1024SOL    MW4 4417   0.106   3.363   0.216
 1025SOL     OW 4418   1.373   3.439   0.439
 1025SOL    HW2 4419   1.436   3.429   0.368
 1025SOL    HW3 4420   1.290   3.459   0.394
 1025SOL    MW4 4421   1.370   3.440   0.424
 1026SOL     OW 4422   1.736   2.707   2.125
 1026SOL    HW2 4423   1.777   2.649   2.190
 1026SOL    HW3 4424   1.643   2.699   2.142
 1026SOL    MW4 4425   1.730   2.699   2.135
 1027SOL     OW 4426   1.602   2.639   3.120
 1027SOL    HW2 4427   1.557   2.706   3.171
 1027SOL    HW3 4428   1.690   2.675   3.106
 1027SOL    MW4 4429   1.608   2.652   3.124
 1028SOL     OW 4430   0.530   2.890   2.354
 1028SOL    HW2 4431   0.620   2.865   2.338
 1028SOL    HW3 4432   0.526   2.983   2.331
 1028SOL    MW4 4433   0.542   2.899   2.349
 1029SOL     OW 4434   1.646   3.593   2.496
 1029SOL    HW2 4435   1.658   3.539   2.574
 1029SOL    HW3 4436   1.683   3.541   2.425
 1029SOL    MW4 4437   1.652   3.578   2.497
 1030SOL     OW 4438   1.025   3.478   3.497
 1030SOL    HW2 4439   1.066   3.514   3.418
 1030SOL    HW3 4440   1.060   3.389   3.504
 1030SOL    MW4 4441   1.036   3.471   3.488
 1031SOL     OW 4442   1.582   3.033   3.101
 1031SOL    HW2 4443   1.503   2.998   3.059
 1031SOL    HW3 4444   1.609   3.105   3.045
 1031SOL    MW4 4445   1.575   3.038   3.088
 1032SOL     OW 4446   0.814   2.346   2.367
 1032SOL    HW2 4447   0.789   2.434   2.395
 1032SOL    HW3 4448   0.811   2.349   2.271
 1032SOL    MW4 4449   0.810   2.358   2.359
 1033SOL     OW 4450   0.256   2.374   2.295
 1033SOL    HW2 4451   0.288   2.462   2.277
 1033SOL    HW3 4452   0.244   2.372   2.390
 1033SOL    MW4 4453   0.259   2.386   2.307
 1034SOL     OW 4454   0.334   2.787   3.196
 1034SOL    HW2 4455   0.397   2.734   3.147
 1034SOL    HW3 4456   0.315   2.861   3.139
 1034SOL    MW4 4457   0.340   2.789   3.183
 1035SOL     OW 4458   0.655   2.129   2.382
 1035SOL    HW2 4459   0.713   2.205   2.384
 1035SOL    HW3 4460   0.590   2.150   2.315
 1035SOL    MW4 4461   0.654   2.141   2.373
 1036SOL     OW 4462   0.742   3.056   2.557
 1036SOL    HW2 4463   0.822   3.059   2.609
 1036SOL    HW3 4464   0.770   3.023   2.471
 1036SOL    MW4 4465   0.756   3.052   2.552
 1037SOL     OW 4466   0.767   3.397   3.460
 1037SOL    HW2 4467   0.851   3.423   3.499
 1037SOL    HW3 4468   0.791   3.341   3.386
 1037SOL    MW4 4469   0.781   3.393   3.455
 1038SOL     OW 4470   0.519   2.560   2.548
 1038SOL    HW2 4471   0.504   2.480   2.599
 1038SOL    HW3 4472   0.601   2.595   2.582
 1038SOL    MW4 4473   0.527   2.552   2.560
 1039SOL     OW 4474   0.856   3.246   3.233
 1039SOL    HW2 4475   0.820   3.312   3.173
 1039SOL    HW3 4476   0.784   3.184   3.246
 1039SOL    MW4 4477   0.842   3.246   3.227
 1040SOL     OW 4478   0.661   2.386   2.925
 1040SOL    HW2 4479   0.567   2.382   2.943
 1040SOL    HW3 4480   0.691   2.295   2.934
 1040SOL    MW4 4481   0.652   2.374   2.928
 1041SOL     OW 4482   0.407   2.800   2.829
 1041SOL    HW2 4483   0.362   2.807   2.745
 1041SOL    HW3 4484   0.387   2.883   2.873
 1041SOL    MW4 4485   0.399   2.812   2.823
 1042SOL     OW 4486   0.104   3.646   2.704
 1042SOL    HW2 4487   0.193   3.638   2.739
 1042SOL    HW3 4488   0.068   3.558   2.709
 1042SOL    MW4 4489   0.111   3.633   2.709
 1043SOL     OW 4490   1.369   3.038   2.073
 1043SOL    HW2 4491   1.287   3.074   2.039
 1043SOL    HW3 4492   1.437   3.081   2.022
 1043SOL    MW4 4493   1.367   3.048   2.061
 1044SOL     OW 4494   0.368   3.173   2.739
 1044SOL    HW2 4495   0.344   3.226   2.815
 1044SOL    HW3 4496   0.424   3.231   2.687
 1044SOL    MW4 4497   0.372   3.188   2.742
 1045SOL     OW 4498   0.930   2.817   2.549
 1045SOL    HW2 4499   0.844   2.804   2.589
 1045SOL    HW3 4500   0.983   2.744   2.581
 1045SOL    MW4 4501   0.926   2.806   2.558
 1046SOL     OW 4502   0.338   3.469   3.334
 1046SOL    HW2 4503   0.246   3.445   3.319
 1046SOL    HW3 4504   0.382   3.386   3.351
 1046SOL    MW4 4505   0.332   3.454   3.333
 1047SOL     OW 4506   0.921   3.179   2.266
 1047SOL    HW2 4507   0.898   3.241   2.334
 1047SOL    HW3 4508   0.878   3.097   2.292
 1047SOL    MW4 4509   0.913   3.175   2.277
 1048SOL     OW 4510   1.794   2.180   2.722
 1048SOL    HW2 4511   1.731   2.160   2.791
 1048SOL    HW3 4512   1.784   2.109   2.659
 1048SOL    MW4 4513   1.784   2.167   2.723
 1049SOL     OW 4514   0.418   2.152   2.234
 1049SOL    HW2 4515   0.392   2.114   2.150
 1049SOL    HW3 4516   0.355   2.222   2.250
 1049SOL    MW4 4517   0.407   2.155   2.225
 1050SOL     OW 4518   0.253   3.113   2.271
 1050SOL    HW2 4519   0.201   3.181   2.227
 1050SOL    HW3 4520   0.250   3.039   2.211
 1050SOL    MW4 4521   0.245   3.112   2.258
 1051SOL     OW 4522   0.915   3.576   2.049
 1051SOL    HW2 4523   0.870   3.592   2.132
 1051SOL    HW3 4524   0.846   3.541   1.991
 1051SOL    MW4 4525   0.901   3.573   2.051
 1052SOL     OW 4526   1.850   2.349   2.024
 1052SOL    HW2 4527   1.759   2.351   2.052
 1052SOL    HW3 4528   1.895   2.411   2.082
 1052SOL    MW4 4529   1.843   2.357   2.034
 1053SOL     OW 4530   1.595   2.952   2.374
 1053SOL    HW2 4531   1.505   2.952   2.409
 1053SOL    HW3 4532   1.588   2.998   2.291
 1053SOL    MW4 4533   1.582   2.958   2.368
 1054SOL     OW 4534   1.395   2.587   3.446
 1054SOL    HW2 4535   1.464   2.525   3.423
 1054SOL    HW3 4536   1.320   2.561   3.393
 1054SOL    MW4 4537   1.395   2.574   3.437
 1055SOL     OW 4538   0.136   3.467   2.998
 1055SOL    HW2 4539   0.119   3.413   3.075
 1055SOL    HW3 4540   0.124   3.557   3.028
 1055SOL    MW4 4541   0.133   3.471   3.012
 1056SOL     OW 4542   1.131   2.974   3.438
 1056SOL    HW2 4543   1.116   3.067   3.423
 1056SOL    HW3 4544   1.226   2.964   3.438
 1056SOL    MW4 4545   1.140   2.984   3.435
 1057SOL     OW 4546   0.927   2.398   3.639
 1057SOL    HW2 4547   1.017   2.399   3.606
 1057SOL    HW3 4548   0.886   2.323   3.597
 1057SOL    MW4 4549   0.933   2.388   3.630
 1058SOL     OW 4550   1.502   2.930   2.766
 1058SOL    HW2 4551   1.505   2.864   2.697
 1058SOL    HW3 4552   1.587   2.973   2.762
 1058SOL    MW4 4553   1.514   2.926   2.757
 1059SOL     OW 4554   1.122   2.533   2.335
 1059SOL    HW2 4555   1.148   2.557   2.246
 1059SOL    HW3 4556   1.104   2.440   2.331
 1059SOL    MW4 4557   1.124   2.525   2.322
 1060SOL     OW 4558   1.787   3.153   2.186
 1060SOL    HW2 4559   1.743   3.194   2.261
 1060SOL    HW3 4560   1.844   3.221   2.151
 1060SOL    MW4 4561   1.789   3.167   2.191
 1061SOL     OW 4562   0.707   2.202   3.589
 1061SOL    HW2 4563   0.717   2.128   3.529
 1061SOL    HW3 4564   0.743   2.171   3.672
 1061SOL    MW4 4565   0.713   2.188   3.591
 1062SOL     OW 4566   0.443   3.569   2.504
 1062SOL    HW2 4567   0.475   3.657   2.482
 1062SOL    HW3 4568   0.396   3.541   2.426
 1062SOL    MW4 4569   0.442   3.577   2.491
 1063SOL     OW 4570   1.827   1.931   2.553
 1063SOL    HW2 4571   1.881   1.882   2.615
 1063SOL    HW3 4572   1.770   1.865   2.514
 1063SOL    MW4 4573   1.827   1.915   2.555
 1064SOL     OW 4574   0.159   3.629   2.081
 1064SOL    HW2 4575   0.188   3.719   2.073
 1064SOL    HW3 4576   0.109   3.612   2.002
 1064SOL    MW4 4577   0.157   3.637   2.070
 1065SOL     OW 4578   0.946   1.884   2.966
 1065SOL    HW2 4579   0.905   1.962   2.928
 1065SOL    HW3 4580   1.040   1.902   2.961
 1065SOL    MW4 4581   0.952   1.896   2.961
 1066SOL     OW 4582   1.563   3.437   2.052
 1066SOL    HW2 4583   1.611   3.506   2.098
 1066SOL    HW3 4584   1.484   3.481   2.021
 1066SOL    MW4 4585   1.558   3.451   2.055
 1067SOL     OW 4586   0.961   2.562   1.996
 1067SOL    HW2 4587   0.963   2.509   1.917
 1067SOL    HW3 4588   1.049   2.599   2.002
 1067SOL    MW4 4589   0.973   2.561   1.985
 1068SOL     OW 4590   1.575   2.488   2.332
 1068SOL    HW2 4591   1.614   2.488   2.419
 1068SOL    HW3 4592   1.516   2.564   2.332
 1068SOL    MW4 4593   1.572   2.499   2.343
 1069SOL     OW 4594   0.892   2.855   3.461
 1069SOL    HW2 4595   0.869   2.835   3.551
 1069SOL    HW3 4596   0.977   2.899   3.466
 1069SOL    MW4 4597   0.899   2.858   3.473
 1070SOL     OW 4598   0.972   1.992   3.221
 1070SOL    HW2 4599   0.978   1.954   3.134
 1070SOL    HW3 4600   0.961   2.086   3.206
 1070SOL    MW4 4601   0.973   2.000   3.209
 1071SOL     OW 4602   1.061   2.481   3.055
 1071SOL    HW2 4603   1.136   2.510   3.002
 1071SOL    HW3 4604   0.993   2.546   3.039
 1071SOL    MW4 4605   1.062   2.493   3.045
 1072SOL     OW 4606   1.611   2.449   3.332
 1072SOL    HW2 4607   1.592   2.358   3.311
 1072SOL    HW3 4608   1.589   2.498   3.253
 1072SOL    MW4 4609   1.606   2.442   3.319
 1073SOL     OW 4610   1.753   3.543   3.236
 1073SOL    HW2 4611   1.681   3.505   3.287
 1073SOL    HW3 4612   1.770   3.628   3.277
 1073SOL    MW4 4613   1.747   3.548   3.248
 1074SOL     OW 4614   1.058   2.187   3.438
 1074SOL    HW2 4615   1.024   2.226   3.357
 1074SOL    HW3 4616   1.036   2.095   3.431
 1074SOL    MW4 4617   1.051   2.180   3.428
 1075SOL     OW 4618   1.467   3.001   3.514
 1075SOL    HW2 4619   1.549   3.042   3.544
 1075SOL    HW3 4620   1.430   2.963   3.594
 1075SOL    MW4 4621   1.473   3.002   3.529
 1076SOL     OW 4622   1.762   2.374   2.498
 1076SOL    HW2 4623   1.851   2.343   2.515
 1076SOL    HW3 4624   1.705   2.314   2.546
 1076SOL    MW4 4625   1.765   2.362   2.507
 1077SOL     OW 4626   0.188   2.088   2.527
 1077SOL    HW2 4627   0.179   2.028   2.453
 1077SOL    HW3 4628   0.121   2.059   2.590
 1077SOL    MW4 4629   0.178   2.075   2.525
 1078SOL     OW 4630   1.131   3.181   2.088
 1078SOL    HW2 4631   1.081   3.183   2.170
 1078SOL    HW3 4632   1.065   3.199   2.020
 1078SOL    MW4 4633   1.117   3.183   2.090
 1079SOL     OW 4634   0.135   2.261   2.890
 1079SOL    HW2 4635   0.107   2.352   2.899
 1079SOL    HW3 4636   0.072   2.222   2.829
 1079SOL    MW4 4637   0.122   2.267   2.884
 1080SOL     OW 4638   0.594   3.599   2.196
 1080SOL    HW2 4639   0.515   3.557   2.229
 1080SOL    HW3 4640   0.660   3.582   2.263
 1080SOL    MW4 4641   0.593   3.591   2.209
 1081SOL     OW 4642   1.722   3.119   3.593
 1081SOL    HW2 4643   1.772   3.045   3.625
 1081SOL    HW3 4644   1.668   3.146   3.668
 1081SOL    MW4 4645   1.722   3.113   3.606
 1082SOL     OW 4646   0.730   3.014   1.903
 1082SOL    HW2 4647   0.652   2.960   1.890
 1082SOL    HW3 4648   0.701   3.087   1.956
 1082SOL    MW4 4649   0.716   3.016   1.908
 1083SOL     OW 4650   1.856   2.754   3.095
 1083SOL    HW2 4651   1.872   2.792   3.008
 1083SOL    HW3 4652   1.890   2.820   3.156
 1083SOL    MW4 4653   1.863   2.767   3.091
 1084SOL     OW 4654   1.648   3.463   2.764
 1084SOL    HW2 4655   1.677   3.530   2.825
 1084SOL    HW3 4656   1.629   3.387   2.819
 1084SOL    MW4 4657   1.650   3.463   2.779
 1085SOL     OW 4658   1.311   3.530   1.971
 1085SOL    HW2 4659   1.237   3.493   2.021
 1085SOL    HW3 4660   1.319   3.620   2.004
 1085SOL    MW4 4661   1.302   3.537   1.983
 1086SOL     OW 4662   0.119   2.536   3.060
 1086SOL    HW2 4663   0.181   2.566   3.126
 1086SOL    HW3 4664   0.053   2.605   3.054
 1086SOL    MW4 4665   0.118   2.549   3.067
 1087SOL     OW 4666   1.535   3.204   1.913
 1087SOL    HW2 4667   1.482   3.253   1.849
 1087SOL    HW3 4668   1.566   3.270   1.974
 1087SOL    MW4 4669   1.533   3.218   1.911
 1088SOL     OW 4670   0.760   2.093   1.968
 1088SOL    HW2 4671   0.708   2.013   1.956
 1088SOL    HW3 4672   0.847   2.070   1.936
 1088SOL    MW4 4673   0.763   2.079   1.962
 1089SOL     OW 4674   0.214   3.645   3.512
 1089SOL    HW2 4675   0.188   3.713   3.450
 1089SOL    HW3 4676   0.262   3.582   3.460
 1089SOL    MW4 4677   0.216   3.645   3.498
 1090SOL     OW 4678   0.266   2.964   3.019
 1090SOL    HW2 4679   0.319   3.039   3.044
 1090SOL    HW3 4680   0.185   3.002   2.985
 1090SOL    MW4 4681   0.262   2.979   3.019
 1091SOL     OW 4682   0.806   2.868   3.007
 1091SOL    HW2 4683   0.834   2.777   3.019
 1091SOL    HW3 4684   0.735   2.862   2.943
 1091SOL    MW4 4685   0.799   2.856   3.002
 1092SOL     OW 4686   0.121   2.733   2.425
 1092SOL    HW2 4687   0.212   2.748   2.452
 1092SOL    HW3 4688   0.124   2.654   2.371
 1092SOL    MW4 4689   0.133   2.725   2.423
 1093SOL     OW 4690   0.357   2.441   3.679
 1093SOL    HW2 4691   0.304   2.521   3.686
 1093SOL    HW3 4692   0.427   2.453   3.744
 1093SOL    MW4 4693   0.359   2.454   3.687
 1094SOL     OW 4694   0.743   1.991   3.386
 1094SOL    HW2 4695   0.720   1.899   3.388
 1094SOL    HW3 4696   0.829   1.993   3.343
 1094SOL    MW4 4697   0.750   1.981   3.382
 1095SOL     OW 4698   0.427   2.515   3.425
 1095SOL    HW2 4699   0.507   2.565   3.411
 1095SOL    HW3 4700   0.418   2.509   3.520
 1095SOL    MW4 4701   0.436   2.521   3.435
 1096SOL     OW 4702   0.748   3.665   2.799
 1096SOL    HW2 4703   0.837   3.680   2.829
 1096SOL    HW3 4704   0.743   3.712   2.715
 1096SOL    MW4 4705   0.758   3.673   2.792
 1097SOL     OW 4706   1.404   2.040   3.696
 1097SOL    HW2 4707   1.460   1.967   3.722
 1097SOL    HW3 4708   1.374   2.078   3.778
 1097SOL    MW4 4709   1.408   2.035   3.709
 1098SOL     OW 4710   0.129   3.345   2.464
 1098SOL    HW2 4711   0.101   3.384   2.546
 1098SOL    HW3 4712   0.149   3.254   2.486
 1098SOL    MW4 4713   0.127   3.337   2.477
 1099SOL     OW 4714   0.962   3.388   2.499
 1099SOL    HW2 4715   1.045   3.342   2.483
 1099SOL    HW3 4716   0.952   3.387   2.595
 1099SOL    MW4 4717   0.972   3.381   2.509
 1100SOL     OW 4718   1.794   2.533   2.813
 1100SOL    HW2 4719   1.883   2.563   2.795
 1100SOL    HW3 4720   1.774   2.473   2.742
 1100SOL    MW4 4721   1.803   2.530   2.802
 1101SOL     OW 4722   1.645   2.712   3.693
 1101SOL    HW2 4723   1.700   2.636   3.674
 1101SOL    HW3 4724   1.647   2.720   3.788
 1101SOL    MW4 4725   1.653   2.703   3.701
 1102SOL     OW 4726   0.695   3.445   1.904
 1102SOL    HW2 4727   0.635   3.514   1.874
 1102SOL    HW3 4728   0.640   3.387   1.957
 1102SOL    MW4 4729   0.679   3.447   1.906
 1103SOL     OW 4730   1.133   2.090   2.127
 1103SOL    HW2 4731   1.066   2.066   2.064
 1103SOL    HW3 4732   1.198   2.139   2.076
 1103SOL    MW4 4733   1.133   2.092   2.112
 1104SOL     OW 4734   0.940   2.274   3.212
 1104SOL    HW2 4735   0.859   2.315   3.240
 1104SOL    HW3 4736   0.987   2.342   3.164
 1104SOL    MW4 4737   0.935   2.289   3.210
 1105SOL     OW 4738   1.200   2.612   2.835
 1105SOL    HW2 4739   1.213   2.706   2.845
 1105SOL    HW3 4740   1.161   2.602   2.749
 1105SOL    MW4 4741   1.196   2.623   2.825
 1106SOL     OW 4742   0.652   2.807   2.639
 1106SOL    HW2 4743   0.563   2.798   2.672
 1106SOL    HW3 4744   0.656   2.897   2.607
 1106SOL    MW4 4745   0.641   2.818   2.639
 1107SOL     OW 4746   1.451   2.390   2.634
 1107SOL    HW2 4747   1.396   2.311   2.633
 1107SOL    HW3 4748   1.433   2.431   2.718
 1107SOL    MW4 4749   1.441   2.385   2.643
 1108SOL     OW 4750   0.422   2.077   3.451
 1108SOL    HW2 4751   0.343   2.095   3.503
 1108SOL    HW3 4752   0.417   2.139   3.378
 1108SOL    MW4 4753   0.412   2.087   3.448
 1109SOL     OW 4754   1.070   2.594   2.591
 1109SOL    HW2 4755   1.007   2.526   2.615
 1109SOL    HW3 4756   1.090   2.575   2.499
 1109SOL    MW4 4757   1.064   2.581   2.583
 1110SOL     OW 4758   0.326   3.489   2.293
 1110SOL    HW2 4759   0.287   3.536   2.219
 1110SOL    HW3 4760   0.260   3.424   2.318
 1110SOL    MW4 4761   0.313   3.487   2.287
 1111SOL     OW 4762   0.818   2.898   2.317
 1111SOL    HW2 4763   0.820   2.872   2.224
 1111SOL    HW3 4764   0.876   2.835   2.360
 1111SOL    MW4 4765   0.826   2.887   2.311
 1112SOL     OW 4766   1.371   3.458   3.089
 1112SOL    HW2 4767   1.296   3.504   3.127
 1112SOL    HW3 4768   1.353   3.365   3.106
 1112SOL    MW4 4769   1.360   3.452   3.097
 1113SOL     OW 4770   1.375   3.666   2.519
 1113SOL    HW2 4771   1.318   3.619   2.458
 1113SOL    HW3 4772   1.461   3.627   2.506
 1113SOL    MW4 4773   1.378   3.657   2.509
 1114SOL     OW 4774   1.328   2.142   2.650
 1114SOL    HW2 4775   1.356   2.074   2.711
 1114SOL    HW3 4776   1.242   2.113   2.620
 1114SOL    MW4 4777   1.321   2.129   2.654
 1115SOL     OW 4778   0.133   3.076   2.584
 1115SOL    HW2 4779   0.197   3.108   2.647
 1115SOL    HW3 4780   0.182   3.012   2.532
 1115SOL    MW4 4781   0.148   3.072   2.585
 1116SOL     OW 4782   0.633   3.152   3.566
 1116SOL    HW2 4783   0.681   3.235   3.553
 1116SOL    HW3 4784   0.690   3.100   3.622
 1116SOL    MW4 4785   0.647   3.156   3.572
 1117SOL     OW 4786   0.209   3.394   3.706
 1117SOL    HW2 4787   0.265   3.318   3.721
 1117SOL    HW3 4788   0.158   3.372   3.628
 1117SOL    MW4 4789   0.209   3.381   3.697
 1118SOL     OW 4790   1.308   2.246   1.985
 1118SOL    HW2 4791   1.281   2.312   1.921
 1118SOL    HW3 4792   1.378   2.289   2.035
 1118SOL    MW4 4793   1.313   2.259   1.982
 1119SOL     OW 4794   0.976   1.951   1.922
 1119SOL    HW2 4795   1.032   1.943   1.844
 1119SOL    HW3 4796   0.953   1.861   1.944
 1119SOL    MW4 4797   0.981   1.938   1.915
 1120SOL     OW 4798   1.481   2.802   2.127
 1120SOL    HW2 4799   1.448   2.891   2.117
 1120SOL    HW3 4800   1.446   2.773   2.212
 1120SOL    MW4 4801   1.471   2.811   2.138
 1121SOL     OW 4802   1.094   3.231   3.315
 1121SOL    HW2 4803   1.005   3.237   3.283
 1121SOL    HW3 4804   1.138   3.310   3.283
 1121SOL    MW4 4805   1.089   3.241   3.307
 1122SOL     OW 4806   0.387   1.899   3.657
 1122SOL    HW2 4807   0.315   1.864   3.605
 1122SOL    HW3 4808   0.445   1.940   3.592
 1122SOL    MW4 4809   0.385   1.900   3.642
 1123SOL     OW 4810   0.411   3.389   2.956
 1123SOL    HW2 4811   0.456   3.451   3.013
 1123SOL    HW3 4812   0.318   3.408   2.969
 1123SOL    MW4 4813   0.404   3.399   2.963
 1124SOL     OW 4814   1.851   2.918   3.310
 1124SOL    HW2 4815   1.766   2.931   3.269
 1124SOL    HW3 4816   1.831   2.882   3.397
 1124SOL    MW4 4817   1.838   2.914   3.315
 1125SOL     OW 4818   0.833   3.457   3.064
 1125SOL    HW2 4819   0.857   3.446   2.973
 1125SOL    HW3 4820   0.756   3.514   3.062
 1125SOL    MW4 4821   0.825   3.462   3.053
 1126SOL     OW 4822   0.475   2.840   1.919
 1126SOL    HW2 4823   0.398   2.853   1.975
 1126SOL    HW3 4824   0.439   2.804   1.838
 1126SOL    MW4 4825   0.461   2.836   1.916
 1127SOL     OW 4826   1.128   2.813   2.162
 1127SOL    HW2 4827   1.038   2.834   2.137
 1127SOL    HW3 4828   1.155   2.886   2.218
 1127SOL    MW4 4829   1.120   2.825   2.165
 1128SOL     OW 4830   0.628   3.162   2.854
 1128SOL    HW2 4831   0.621   3.141   2.948
 1128SOL    HW3 4832   0.546   3.130   2.817
 1128SOL    MW4 4833   0.616   3.156   2.861
 1129SOL     OW 4834   1.492   2.172   3.256
 1129SOL    HW2 4835   1.439   2.174   3.336
 1129SOL    HW3 4836   1.477   2.085   3.219
 1129SOL    MW4 4837   1.484   2.162   3.261
 1130SOL     OW 4838   1.828   2.096   3.129
 1130SOL    HW2 4839   1.809   2.163   3.064
 1130SOL    HW3 4840   1.885   2.034   3.084
 1130SOL    MW4 4841   1.832   2.097   3.115
 1131SOL     OW 4842   0.074   3.254   3.517
 1131SOL    HW2 4843   0.118   3.187   3.463
 1131SOL    HW3 4844  -0.011   3.216   3.537
 1131SOL    MW4 4845   0.069   3.240   3.513
 1132SOL     OW 4846   0.757   1.929   2.569
 1132SOL    HW2 4847   0.686   1.990   2.551
 1132SOL    HW3 4848   0.808   1.926   2.488
 1132SOL    MW4 4849   0.753   1.935   2.556
 1133SOL     OW 4850   0.515   3.169   2.318
 1133SOL    HW2 4851   0.508   3.201   2.408
 1133SOL    HW3 4852   0.425   3.153   2.290
 1133SOL    MW4 4853   0.503   3.171   2.325
 1134SOL     OW 4854   1.110   3.562   3.227
 1134SOL    HW2 4855   1.030   3.547   3.177
 1134SOL    HW3 4856   1.117   3.657   3.234
 1134SOL    MW4 4857   1.101   3.573   3.221
 1135SOL     OW 4858   1.224   3.527   2.717
 1135SOL    HW2 4859   1.271   3.600   2.676
 1135SOL    HW3 4860   1.145   3.566   2.753
 1135SOL    MW4 4861   1.219   3.542   2.716
 1136SOL     OW 4862   1.632   3.622   2.992
 1136SOL    HW2 4863   1.675   3.592   3.072
 1136SOL    HW3 4864   1.551   3.570   2.989
 1136SOL    MW4 4865   1.627   3.611   3.002
 1137SOL     OW 4866   0.717   2.586   3.699
 1137SOL    HW2 4867   0.787   2.528   3.671
 1137SOL    HW3 4868   0.660   2.531   3.754
 1137SOL    MW4 4869   0.719   2.573   3.703
 1138SOL     OW 4870   1.504   2.798   3.332
 1138SOL    HW2 4871   1.509   2.851   3.412
 1138SOL    HW3 4872   1.466   2.715   3.360
 1138SOL    MW4 4873   1.500   2.793   3.347
 1139SOL     OW 4874   1.144   1.933   3.578
 1139SOL    HW2 4875   1.139   1.840   3.559
 1139SOL    HW3 4876   1.227   1.944   3.624
 1139SOL    MW4 4877   1.152   1.922   3.582
 1140SOL     OW 4878   0.518   2.453   2.032
 1140SOL    HW2 4879   0.484   2.509   2.102
 1140SOL    HW3 4880   0.589   2.403   2.072
 1140SOL    MW4 4881   0.524   2.454   2.046
 1141SOL     OW 4882   1.614   3.204   2.854
 1141SOL    HW2 4883   1.649   3.186   2.767
 1141SOL    HW3 4884   1.519   3.205   2.841
 1141SOL    MW4 4885   1.606   3.201   2.841
 1142SOL     OW 4886   1.043   2.852   3.223
 1142SOL    HW2 4887   1.086   2.887   3.301
 1142SOL    HW3 4888   1.026   2.929   3.169
 1142SOL    MW4 4889   1.046   2.867   3.226
 1143SOL     OW 4890   1.574   2.339   2.096
 1143SOL    HW2 4891   1.566   2.410   2.033
 1143SOL    HW3 4892   1.592   2.383   2.179
 1143SOL    MW4 4893   1.575   2.353   2.098
 1144SOL     OW 4894   0.434   1.994   2.525
 1144SOL    HW2 4895   0.484   2.037   2.456
 1144SOL    HW3 4896   0.349   2.038   2.525
 1144SOL    MW4 4897   0.431   2.007   2.516
 1145SOL     OW 4898   0.193   3.056   3.385
 1145SOL    HW2 4899   0.221   3.009   3.463
 1145SOL    HW3 4900   0.114   3.011   3.356
 1145SOL    MW4 4901   0.186   3.045   3.391
 1146SOL     OW 4902   0.701   2.383   3.352
 1146SOL    HW2 4903   0.673   2.471   3.376
 1146SOL    HW3 4904   0.670   2.327   3.423
 1146SOL    MW4 4905   0.693   2.386   3.364
 1147SOL     OW 4906   1.243   2.601   2.071
 1147SOL    HW2 4907   1.290   2.619   1.990
 1147SOL    HW3 4908   1.209   2.685   2.099
 1147SOL    MW4 4909   1.245   2.615   2.064
 1148SOL     OW 4910   0.356   2.779   2.565
 1148SOL    HW2 4911   0.414   2.835   2.513
 1148SOL    HW3 4912   0.400   2.694   2.567
 1148SOL    MW4 4913   0.369   2.776   2.558
 1149SOL     OW 4914   1.496   2.131   2.402
 1149SOL    HW2 4915   1.418   2.081   2.427
 1149SOL    HW3 4916   1.467   2.222   2.402
 1149SOL    MW4 4917   1.482   2.135   2.405
 1150SOL     OW 4918   1.082   2.093   2.561
 1150SOL    HW2 4919   1.102   2.168   2.505
 1150SOL    HW3 4920   1.062   2.132   2.646
 1150SOL    MW4 4921   1.083   2.109   2.565
 1151SOL     OW 4922   0.978   3.343   1.893
 1151SOL    HW2 4923   1.005   3.421   1.845
 1151SOL    HW3 4924   0.885   3.358   1.912
 1151SOL    MW4 4925   0.969   3.356   1.889
 1152SOL     OW 4926   1.842   2.866   3.580
 1152SOL    HW2 4927   1.755   2.846   3.616
 1152SOL    HW3 4928   1.896   2.792   3.605
 1152SOL    MW4 4929   1.837   2.855   3.588
 1153SOL     OW 4930   0.063   3.379   2.737
 1153SOL    HW2 4931   0.095   3.383   2.828
 1153SOL    HW3 4932  -0.032   3.387   2.745
 1153SOL    MW4 4933   0.055   3.382   2.750
 1154SOL     OW 4934   0.018   2.505   2.284
 1154SOL    HW2 4935  -0.042   2.477   2.354
 1154SOL    HW3 4936   0.092   2.445   2.290
 1154SOL    MW4 4937   0.020   2.494   2.293
 1155SOL     OW 4938   1.586   3.717   3.718
 1155SOL    HW2 4939   1.631   3.641   3.683
 1155SOL    HW3 4940   1.624   3.730   3.805
 1155SOL    MW4 4941   1.596   3.710   3.724
 1156SOL     OW 4942   1.186   3.236   2.444
 1156SOL    HW2 4943   1.209   3.187   2.522
 1156SOL    HW3 4944   1.267   3.278   2.416
 1156SOL    MW4 4945   1.199   3.236   2.451
 1157SOL     OW 4946   0.444   2.244   3.173
 1157SOL    HW2 4947   0.477   2.325   3.213
 1157SOL    HW3 4948   0.417   2.270   3.085
 1157SOL    MW4 4949   0.443   2.258   3.167
 1158SOL     OW 4950   0.398   2.211   2.909
 1158SOL    HW2 4951   0.428   2.125   2.880
 1158SOL    HW3 4952   0.303   2.204   2.912
 1158SOL    MW4 4953   0.390   2.200   2.907
 1159SOL     OW 4954   1.227   2.420   3.600
 1159SOL    HW2 4955   1.279   2.355   3.553
 1159SOL    HW3 4956   1.185   2.471   3.530
 1159SOL    MW4 4957   1.228   2.417   3.583
 1160SOL     OW 4958   1.326   2.215   3.461
 1160SOL    HW2 4959   1.233   2.199   3.448
 1160SOL    HW3 4960   1.352   2.153   3.529
 1160SOL    MW4 4961   1.316   2.205   3.468
 1161SOL     OW 4962   0.541   1.989   2.800
 1161SOL    HW2 4963   0.551   1.898   2.826
 1161SOL    HW3 4964   0.497   1.985   2.715
 1161SOL    MW4 4965   0.537   1.977   2.792
 1162SOL     OW 4966   0.635   3.604   3.346
 1162SOL    HW2 4967   0.552   3.589   3.391
 1162SOL    HW3 4968   0.694   3.537   3.381
 1162SOL    MW4 4969   0.633   3.594   3.356
 1163SOL     OW 4970   1.692   2.311   2.971
 1163SOL    HW2 4971   1.625   2.344   3.031
 1163SOL    HW3 4972   1.735   2.389   2.937
 1163SOL    MW4 4973   1.690   2.326   2.975
 1164SOL     OW 4974   1.870   3.031   2.941
 1164SOL    HW2 4975   1.863   2.971   2.866
 1164SOL    HW3 4976   1.796   3.091   2.930
 1164SOL    MW4 4977   1.860   3.031   2.930
 1165SOL     OW 4978   1.252   2.893   2.859
 1165SOL    HW2 4979   1.266   2.865   2.950
 1165SOL    HW3 4980   1.338   2.924   2.831
 1165SOL    MW4 4981   1.265   2.894   2.868
 1166SOL     OW 4982   1.335   2.388   3.138
 1166SOL    HW2 4983   1.356   2.389   3.045
 1166SOL    HW3 4984   1.380   2.310   3.171
 1166SOL    MW4 4985   1.342   2.378   3.130
 1167SOL     OW 4986   1.828   2.519   3.680
 1167SOL    HW2 4987   1.865   2.464   3.749
 1167SOL    HW3 4988   1.853   2.476   3.598
 1167SOL    MW4 4989   1.835   2.507   3.679
 1168SOL     OW 4990   1.375   2.817   3.731
 1168SOL    HW2 4991   1.441   2.765   3.685
 1168SOL    HW3 4992   1.395   2.804   3.824
 1168SOL    MW4 4993   1.386   2.808   3.738
 1169SOL     OW 4994   1.326   1.903   2.080
 1169SOL    HW2 4995   1.400   1.947   2.123
 1169SOL    HW3 4996   1.250   1.957   2.102
 1169SOL    MW4 4997   1.326   1.915   2.088
 1170SOL     OW 4998   1.386   2.678   2.358
 1170SOL    HW2 4999   1.301   2.648   2.328
 1170SOL    HW3 5000   1.378   2.685   2.453
 1170SOL    MW4 5001   1.374   2.676   2.367
 1171SOL     OW 5002   0.462   3.141   3.089
 1171SOL    HW2 5003   0.474   3.168   3.180
 1171SOL    HW3 5004   0.443   3.222   3.042
 1171SOL    MW4 5005   0.461   3.156   3.094
 1172SOL     OW 5006   0.746   2.121   2.912
 1172SOL    HW2 5007   0.719   2.123   3.003
 1172SOL    HW3 5008   0.676   2.073   2.867
 1172SOL    MW4 5009   0.734   2.117   2.919
 1173SOL     OW 5010   0.600   3.613   3.074
 1173SOL    HW2 5011   0.652   3.690   3.051
 1173SOL    HW3 5012   0.609   3.605   3.169
 1173SOL    MW4 5013   0.609   3.620   3.085
 1174SOL     OW 5014   1.502   3.198   3.306
 1174SOL    HW2 5015   1.487   3.127   3.369
 1174SOL    HW3 5016   1.548   3.156   3.234
 1174SOL    MW4 5017   1.508   3.182   3.306
 1175SOL     OW 5018   0.576   2.929   3.423
 1175SOL    HW2 5019   0.613   2.934   3.335
 1175SOL    HW3 5020   0.615   3.002   3.470
 1175SOL    MW4 5021   0.586   2.939   3.418
 1176SOL     OW 5022   0.756   2.972   3.235
 1176SOL    HW2 5023   0.815   2.918   3.288
 1176SOL    HW3 5024   0.771   2.944   3.145
 1176SOL    MW4 5025   0.766   2.961   3.231
 1177SOL     OW 5026   0.759   2.344   2.084
 1177SOL    HW2 5027   0.832   2.393   2.047
 1177SOL    HW3 5028   0.775   2.253   2.058
 1177SOL    MW4 5029   0.771   2.339   2.077
 1178SOL     OW 5030   1.567   3.461   3.407
 1178SOL    HW2 5031   1.609   3.446   3.492
 1178SOL    HW3 5032   1.558   3.374   3.369
 1178SOL    MW4 5033   1.571   3.449   3.414
 1179SOL     OW 5034   1.227   1.940   2.998
 1179SOL    HW2 5035   1.282   1.949   2.920
 1179SOL    HW3 5036   1.282   1.974   3.069
 1179SOL    MW4 5037   1.241   1.945   2.997
 1180SOL     OW 5038   0.234   2.853   2.182
 1180SOL    HW2 5039   0.171   2.869   2.111
 1180SOL    HW3 5040   0.181   2.816   2.253
 1180SOL    MW4 5041   0.219   2.850   2.182
 1181SOL     OW 5042   0.590   3.207   2.041
 1181SOL    HW2 5043   0.605   3.183   2.133
 1181SOL    HW3 5044   0.498   3.185   2.025
 1181SOL    MW4 5045   0.580   3.200   2.051
 1182SOL     OW 5046   1.129   3.438   2.193
 1182SOL    HW2 5047   1.137   3.356   2.144
 1182SOL    HW3 5048   1.048   3.477   2.160
 1182SOL    MW4 5049   1.119   3.433   2.183
 1183SOL     OW 5050   0.388   3.596   2.762
 1183SOL    HW2 5051   0.392   3.507   2.797
 1183SOL    HW3 5052   0.414   3.587   2.671
 1183SOL    MW4 5053   0.391   3.584   2.754
 1184SOL     OW 5054   1.005   3.074   3.005
 1184SOL    HW2 5055   0.937   3.008   3.021
 1184SOL    HW3 5056   1.023   3.068   2.912
 1184SOL    MW4 5057   0.998   3.065   2.996
 1185SOL     OW 5058   0.094   3.349   3.256
 1185SOL    HW2 5059   0.084   3.307   3.342
 1185SOL    HW3 5060   0.015   3.402   3.246
 1185SOL    MW4 5061   0.083   3.350   3.267
 1186SOL     OW 5062   0.998   2.213   2.826
 1186SOL    HW2 5063   0.928   2.165   2.871
 1186SOL    HW3 5064   1.030   2.276   2.890
 1186SOL    MW4 5065   0.993   2.215   2.840
 1187SOL     OW 5066   0.649   2.649   3.446
 1187SOL    HW2 5067   0.642   2.744   3.434
 1187SOL    HW3 5068   0.658   2.638   3.541
 1187SOL    MW4 5069   0.650   2.661   3.456
 1188SOL     OW 5070   0.370   3.164   3.704
 1188SOL    HW2 5071   0.442   3.166   3.641
 1188SOL    HW3 5072   0.340   3.073   3.703
 1188SOL    MW4 5073   0.375   3.153   3.696
 1189SOL     OW 5074   1.454   1.927   3.171
 1189SOL    HW2 5075   1.525   1.873   3.135
 1189SOL    HW3 5076   1.453   1.906   3.264
 1189SOL    MW4 5077   1.463   1.918   3.179
 1190SOL     OW 5078   1.654   3.457   3.655
 1190SOL    HW2 5079   1.627   3.454   3.746
 1190SOL    HW3 5080   1.750   3.461   3.658
 1190SOL    MW4 5081   1.664   3.457   3.667
 1191SOL     OW 5082   0.465   2.319   2.639
 1191SOL    HW2 5083   0.536   2.267   2.602
 1191SOL    HW3 5084   0.451   2.284   2.726
 1191SOL    MW4 5085   0.473   2.308   2.646
 1192SOL     OW 5086   0.020   3.654   3.711
 1192SOL    HW2 5087   0.070   3.632   3.633
 1192SOL    HW3 5088   0.028   3.749   3.719
 1192SOL    MW4 5089   0.028   3.663   3.702
 1193SOL     OW 5090   0.781   3.412   2.715
 1193SOL    HW2 5091   0.709   3.349   2.728
 1193SOL    HW3 5092   0.742   3.497   2.733
 1193SOL    MW4 5093   0.765   3.415   2.718
 1194SOL     OW 5094   1.101   2.260   2.363
 1194SOL    HW2 5095   1.123   2.197   2.295
 1194SOL    HW3 5096   1.006   2.252   2.374
 1194SOL    MW4 5097   1.091   2.251   2.355
 1195SOL     OW 5098   0.186   1.950   2.295
 1195SOL    HW2 5099   0.257   1.971   2.234
 1195SOL    HW3 5100   0.140   1.878   2.253
 1195SOL    MW4 5101   0.190   1.944   2.281
 1196SOL     OW 5102   0.017   2.417   3.438
 1196SOL    HW2 5103   0.081   2.483   3.413
 1196SOL    HW3 5104  -0.064   2.444   3.395
 1196SOL    MW4 5105   0.015   2.429   3.430
 1197SOL     OW 5106   1.755   3.324   2.395
 1197SOL    HW2 5107   1.725   3.257   2.456
 1197SOL    HW3 5108   1.849   3.330   2.409
 1197SOL    MW4 5109   1.763   3.316   2.405
 1198SOL     OW 5110   1.311   3.001   2.325
 1198SOL    HW2 5111   1.283   3.087   2.358
 1198SOL    HW3 5112   1.339   3.017   2.235
 1198SOL    MW4 5113   1.311   3.015   2.317
 1199SOL     OW 5114   0.973   1.921   2.378
 1199SOL    HW2 5115   1.010   1.980   2.443
 1199SOL    HW3 5116   0.950   1.977   2.304
 1199SOL    MW4 5117   0.974   1.936   2.377
 1200SOL     OW 5118   1.826   2.803   2.800
 1200SOL    HW2 5119   1.817   2.835   2.711
 1200SOL    HW3 5120   1.779   2.719   2.800
 1200SOL    MW4 5121   1.819   2.796   2.790
 1201SOL     OW 5122   0.202   2.643   3.379
 1201SOL    HW2 5123   0.223   2.712   3.317
 1201SOL    HW3 5124   0.282   2.590   3.384
 1201SOL    MW4 5125   0.215   2.644   3.373
 1202SOL     OW 5126   1.738   2.734   2.501
 1202SOL    HW2 5127   1.832   2.723   2.489
 1202SOL    HW3 5128   1.714   2.806   2.442
 1202SOL    MW4 5129   1.748   2.742   2.492
 1203SOL     OW 5130   0.187   2.658   3.646
 1203SOL    HW2 5131   0.113   2.602   3.672
 1203SOL    HW3 5132   0.182   2.661   3.551
 1203SOL    MW4 5133   0.176   2.651   3.636
 1204SOL     OW 5134   0.353   1.945   3.096
 1204SOL    HW2 5135   0.396   2.029   3.116
 1204SOL    HW3 5136   0.426   1.883   3.089
 1204SOL    MW4 5137   0.368   1.948   3.097
 1205SOL     OW 5138   0.394   2.612   2.274
 1205SOL    HW2 5139   0.394   2.707   2.259
 1205SOL    HW3 5140   0.471   2.596   2.328
 1205SOL    MW4 5141   0.404   2.623   2.279
 1206SOL     OW 5142   1.170   2.471   3.338
 1206SOL    HW2 5143   1.206   2.444   3.254
 1206SOL    HW3 5144   1.083   2.505   3.317
 1206SOL    MW4 5145   1.164   2.472   3.325
 1207SOL     OW 5146   0.153   2.343   2.563
 1207SOL    HW2 5147   0.215   2.350   2.636
 1207SOL    HW3 5148   0.153   2.250   2.540
 1207SOL    MW4 5149   0.161   2.332   2.570
 1208SOL     OW 5150   1.700   3.683   2.095
 1208SOL    HW2 5151   1.767   3.716   2.035
 1208SOL    HW3 5152   1.657   3.762   2.129
 1208SOL    MW4 5153   1.702   3.698   2.091
 1209SOL     OW 5154   0.835   2.604   3.047
 1209SOL    HW2 5155   0.793   2.522   3.023
 1209SOL    HW3 5156   0.836   2.603   3.143
 1209SOL    MW4 5157   0.828   2.593   3.056
 1210SOL     OW 5158   1.506   3.737   3.446
 1210SOL    HW2 5159   1.509   3.643   3.429
 1210SOL    HW3 5160   1.529   3.745   3.538
 1210SOL    MW4 5161   1.509   3.725   3.456
 1211SOL     OW 5162   0.639   2.074   3.152
 1211SOL    HW2 5163   0.570   2.137   3.173
 1211SOL    HW3 5164   0.666   2.038   3.237
 1211SOL    MW4 5165   0.633   2.077   3.165
 1212SOL     OW 5166   0.022   2.915   2.021
 1212SOL    HW2 5167  -0.009   2.980   2.084
 1212SOL    HW3 5168  -0.029   2.837   2.040
 1212SOL    MW4 5169   0.012   2.912   2.031
 1213SOL     OW 5170   1.434   1.927   2.769
 1213SOL    HW2 5171   1.522   1.936   2.806
 1213SOL    HW3 5172   1.444   1.868   2.695
 1213SOL    MW4 5173   1.448   1.921   2.763
 1214SOL     OW 5174   1.466   2.666   2.613
 1214SOL    HW2 5175   1.546   2.681   2.562
 1214SOL    HW3 5176   1.459   2.571   2.619
 1214SOL    MW4 5177   1.475   2.655   2.608
 1215SOL     OW 5178   0.606   3.715   1.963
 1215SOL    HW2 5179   0.511   3.715   1.955
 1215SOL    HW3 5180   0.622   3.661   2.041
 1215SOL    MW4 5181   0.596   3.709   1.972
 1216SOL     OW 5182   0.916   2.592   3.310
 1216SOL    HW2 5183   0.985   2.659   3.307
 1216SOL    HW3 5184   0.849   2.630   3.366
 1216SOL    MW4 5185   0.917   2.605   3.317
 1217SOL     OW 5186   0.334   2.892   3.558
 1217SOL    HW2 5187   0.288   2.808   3.560
 1217SOL    HW3 5188   0.391   2.886   3.482
 1217SOL    MW4 5189   0.336   2.880   3.550
 1218SOL     OW 5190   1.451   2.535   1.879
 1218SOL    HW2 5191   1.379   2.511   1.821
 1218SOL    HW3 5192   1.517   2.572   1.821
 1218SOL    MW4 5193   1.450   2.537   1.864
 1219SOL     OW 5194   0.585   3.267   2.559
 1219SOL    HW2 5195   0.650   3.200   2.580
 1219SOL    HW3 5196   0.637   3.344   2.536
 1219SOL    MW4 5197   0.600   3.269   2.558
 1220SOL     OW 5198   0.846   2.432   2.689
 1220SOL    HW2 5199   0.786   2.450   2.761
 1220SOL    HW3 5200   0.880   2.344   2.708
 1220SOL    MW4 5201   0.842   2.422   2.702
 1221SOL     OW 5202   1.787   1.931   3.358
 1221SOL    HW2 5203   1.708   1.977   3.386
 1221SOL    HW3 5204   1.822   1.985   3.287
 1221SOL    MW4 5205   1.781   1.944   3.352
 1222SOL     OW 5206   1.071   3.015   2.708
 1222SOL    HW2 5207   1.163   2.996   2.726
 1222SOL    HW3 5208   1.044   2.945   2.648
 1222SOL    MW4 5209   1.079   3.003   2.702
 1223SOL     OW 5210   0.864   2.835   2.063
 1223SOL    HW2 5211   0.850   2.747   2.028
 1223SOL    HW3 5212   0.815   2.892   2.004
 1223SOL    MW4 5213   0.856   2.830   2.051
 1224SOL     OW 5214   1.345   3.253   2.804
 1224SOL    HW2 5215   1.318   3.337   2.769
 1224SOL    HW3 5216   1.305   3.248   2.891
 1224SOL    MW4 5217   1.338   3.262   2.810
 1225SOL     OW 5218   1.264   3.201   3.072
 1225SOL    HW2 5219   1.275   3.168   3.161
 1225SOL    HW3 5220   1.183   3.160   3.041
 1225SOL    MW4 5221   1.254   3.193   3.078
 1226SOL     OW 5222   0.277   2.559   2.842
 1226SOL    HW2 5223   0.227   2.558   2.923
 1226SOL    HW3 5224   0.297   2.651   2.826
 1226SOL    MW4 5225   0.273   2.571   2.850
 1227SOL     OW 5226   1.344   3.323   3.604
 1227SOL    HW2 5227   1.344   3.417   3.620
 1227SOL    HW3 5228   1.389   3.313   3.520
 1227SOL    MW4 5229   1.350   3.333   3.595
 1228SOL     OW 5230   1.583   2.041   2.165
 1228SOL    HW2 5231   1.576   2.045   2.260
 1228SOL    HW3 5232   1.595   2.132   2.138
 1228SOL    MW4 5233   1.584   2.054   2.173
 1229SOL     OW 5234   0.872   2.604   2.279
 1229SOL    HW2 5235   0.852   2.590   2.186
 1229SOL    HW3 5236   0.965   2.583   2.286
 1229SOL    MW4 5237   0.882   2.599   2.268
 1230SOL     OW 5238   0.199   2.227   3.583
 1230SOL    HW2 5239   0.156   2.286   3.520
 1230SOL    HW3 5240   0.267   2.282   3.623
 1230SOL    MW4 5241   0.203   2.242   3.580
 1231SOL     OW 5242   1.311   2.847   3.128
 1231SOL    HW2 5243   1.374   2.844   3.201
 1231SOL    HW3 5244   1.227   2.865   3.170
 1231SOL    MW4 5245   1.307   2.849   3.143
 1232SOL     OW 5246   0.855   3.562   2.317
 1232SOL    HW2 5247   0.913   3.633   2.344
 1232SOL    HW3 5248   0.878   3.490   2.375
 1232SOL    MW4 5249   0.866   3.562   2.328
 1233SOL     OW 5250   1.650   2.024   2.907
 1233SOL    HW2 5251   1.695   1.942   2.926
 1233SOL    HW3 5252   1.670   2.080   2.983
 1233SOL    MW4 5253   1.660   2.020   2.919
 1234SOL     OW 5254   0.098   1.867   3.006
 1234SOL    HW2 5255   0.089   1.868   2.911
 1234SOL    HW3 5256   0.192   1.879   3.021
 1234SOL    MW4 5257   0.110   1.870   2.997
 1235SOL     OW 5258   1.735   3.060   2.626
 1235SOL    HW2 5259   1.714   3.006   2.549
 1235SOL    HW3 5260   1.831   3.058   2.630
 1235SOL    MW4 5261   1.744   3.053   2.615
 1236SOL     OW 5262   0.427   3.205   3.369
 1236SOL    HW2 5263   0.348   3.155   3.392
 1236SOL    HW3 5264   0.497   3.164   3.419
 1236SOL    MW4 5265   0.425   3.193   3.379
 1237SOL     OW 5266   0.311   1.994   2.052
 1237SOL    HW2 5267   0.240   2.049   2.020
 1237SOL    HW3 5268   0.353   1.960   1.973
 1237SOL    MW4 5269   0.307   1.996   2.038
 1238SOL     OW 5270   1.435   2.491   2.888
 1238SOL    HW2 5271   1.358   2.537   2.854
 1238SOL    HW3 5272   1.492   2.560   2.922
 1238SOL    MW4 5273   1.432   2.506   2.888
 1239SOL     OW 5274   0.067   2.093   1.901
 1239SOL    HW2 5275   0.034   2.172   1.945
 1239SOL    HW3 5276   0.122   2.126   1.830
 1239SOL    MW4 5277   0.070   2.107   1.898
 1240SOL     OW 5278   0.101   3.350   2.090
 1240SOL    HW2 5279   0.118   3.434   2.132
 1240SOL    HW3 5280   0.136   3.359   2.002
 1240SOL    MW4 5281   0.106   3.363   2.084
 1241SOL     OW 5282   1.373   3.439   2.307
 1241SOL    HW2 5283   1.436   3.429   2.236
 1241SOL    HW3 5284   1.290   3.459   2.262
 1241SOL    MW4 5285   1.370   3.440   2.292
 1242SOL     OW 5286   1.736   2.707   3.993
 1242SOL    HW2 5287   1.777   2.649   4.058
 1242SOL    HW3 5288   1.643   2.699   4.010
 1242SOL    MW4 5289   1.730   2.699   4.003
 1243SOL     OW 5290   1.602   2.639   4.988
 1243SOL    HW2 5291   1.557   2.706   5.039
 1243SOL    HW3 5292   1.690   2.675   4.974
 1243SOL    MW4 5293   1.608   2.652   4.992
 1244SOL     OW 5294   0.530   2.890   4.222
 1244SOL    HW2 5295   0.620   2.865   4.206
 1244SOL    HW3 5296   0.526   2.983   4.199
 1244SOL    MW4 5297   0.542   2.899   4.217
 1245SOL     OW 5298   1.646   3.593   4.364
 1245SOL    HW2 5299   1.658   3.539   4.442
 1245SOL    HW3 5300   1.683   3.541   4.293
 1245SOL    MW4 5301   1.652   3.578   4.365
 1246SOL     OW 5302   1.025   3.478   5.365
 1246SOL    HW2 5303   1.066   3.514   5.286
 1246SOL    HW3 5304   1.060   3.389   5.372
 1246SOL    MW4 5305   1.036   3.471   5.356
 1247SOL     OW 5306   1.582   3.033   4.969
 1247SOL    HW2 5307   1.503   2.998   4.927
 1247SOL    HW3 5308   1.609   3.105   4.913
 1247SOL    MW4 5309   1.575   3.038   4.956
 1248SOL     OW 5310   0.814   2.346   4.235
 1248SOL    HW2 5311   0.789   2.434   4.263
 1248SOL    HW3 5312   0.811   2.349   4.139
 1248SOL    MW4 5313   0.810   2.358   4.227
 1249SOL     OW 5314   0.256   2.374   4.163
 1249SOL    HW2 5315   0.288   2.462   4.145
 1249SOL    HW3 5316   0.244   2.372   4.258
 1249SOL    MW4 5317   0.259   2.386   4.175
 1250SOL     OW 5318   0.334   2.787   5.064
 1250SOL    HW2 5319   0.397   2.734   5.015
 1250SOL    HW3 5320   0.315   2.861   5.007
 1250SOL    MW4 5321   0.340   2.789   5.051
 1251SOL     OW 5322   0.655   2.129   4.250
 1251SOL    HW2 5323   0.713   2.205   4.252
 1251SOL    HW3 5324   0.590   2.150   4.183
 1251SOL    MW4 5325   0.654   2.141   4.241
 1252SOL     OW 5326   0.742   3.056   4.425
 1252SOL    HW2 5327   0.822   3.059   4.477
 1252SOL    HW3 5328   0.770   3.023   4.339
 1252SOL    MW4 5329   0.756   3.052   4.420
 1253SOL     OW 5330   0.767   3.397   5.328
 1253SOL    HW2 5331   0.851   3.423   5.367
 1253SOL    HW3 5332   0.791   3.341   5.254
 1253SOL    MW4 5333   0.781   3.393   5.323
 1254SOL     OW 5334   0.519   2.560   4.416
 1254SOL    HW2 5335   0.504   2.480   4.467
 1254SOL    HW3 5336   0.601   2.595   4.450
 1254SOL    MW4 5337   0.527   2.552   4.428
 1255SOL     OW 5338   0.856   3.246   5.101
 1255SOL    HW2 5339   0.820   3.312   5.041
 1255SOL    HW3 5340   0.784   3.184   5.114
 1255SOL    MW4 5341   0.842   3.246   5.095
 1256SOL     OW 5342   0.661   2.386   4.793
 1256SOL    HW2 5343   0.567   2.382   4.811
 1256SOL    HW3 5344   0.691   2.295   4.802
 1256SOL    MW4 5345   0.652   2.374   4.796
 1257SOL     OW 5346   0.407   2.800   4.697
 1257SOL    HW2 5347   0.362   2.807   4.613
 1257SOL    HW3 5348   0.387   2.883   4.741
 1257SOL    MW4 5349   0.399   2.812   4.691
 1258SOL     OW 5350   0.104   3.646   4.572
 1258SOL    HW2 5351   0.193   3.638   4.607
 1258SOL    HW3 5352   0.068   3.558   4.577
 1258SOL    MW4 5353   0.111   3.633   4.577
 1259SOL     OW 5354   1.369   3.038   3.941
 1259SOL    HW2 5355   1.287   3.074   3.907
 1259SOL    HW3 5356   1.437   3.081   3.890
 1259SOL    MW4 5357   1.367   3.048   3.929
 1260SOL     OW 5358   0.368   3.173   4.607
 1260SOL    HW2 5359   0.344   3.226   4.683
 1260SOL    HW3 5360   0.424   3.231   4.555
 1260SOL    MW4 5361   0.372   3.188   4.610
 1261SOL     OW 5362   0.930   2.817   4.417
 1261SOL    HW2 5363   0.844   2.804   4.457
 1261SOL    HW3 5364   0.983   2.744   4.449
 1261SOL    MW4 5365   0.926   2.806   4.426
 1262SOL     OW 5366   0.338   3.469   5.202
 1262SOL    HW2 5367   0.246   3.445   5.187
 1262SOL    HW3 5368   0.382   3.386   5.219
 1262SOL    MW4 5369   0.332   3.454   5.201
 1263SOL     OW 5370   0.921   3.179   4.134
 1263SOL    HW2 5371   0.898   3.241   4.202
 1263SOL    HW3 5372   0.878   3.097   4.160
 1263SOL    MW4 5373   0.913   3.175   4.145
 1264SOL     OW 5374   1.794   2.180   4.590
 1264SOL    HW2 5375   1.731   2.160   4.659
 1264SOL    HW3 5376   1.784   2.109   4.527
 1264SOL    MW4 5377   1.784   2.167   4.591
 1265SOL     OW 5378   0.418   2.152   4.102
 1265SOL    HW2 5379   0.392   2.114   4.018
 1265SOL    HW3 5380   0.355   2.222   4.118
 1265SOL    MW4 5381   0.407   2.155   4.093
 1266SOL     OW 5382   0.253   3.113   4.139
 1266SOL    HW2 5383   0.201   3.181   4.095
 1266SOL    HW3 5384   0.250   3.039   4.079
 1266SOL    MW4 5385   0.245   3.112   4.126
 1267SOL     OW 5386   0.915   3.576   3.917
 1267SOL    HW2 5387   0.870   3.592   4.000
 1267SOL    HW3 5388   0.846   3.541   3.859
 1267SOL    MW4 5389   0.901   3.573   3.919
 1268SOL     OW 5390   1.850   2.349   3.892
 1268SOL    HW2 5391   1.759   2.351   3.920
 1268SOL    HW3 5392   1.895   2.411   3.950
 1268SOL    MW4 5393   1.843   2.357   3.902
 1269SOL     OW 5394   1.595   2.952   4.242
 1269SOL    HW2 5395   1.505   2.952   4.277
 1269SOL    HW3 5396   1.588   2.998   4.159
 1269SOL    MW4 5397   1.582   2.958   4.236
 1270SOL     OW 5398   1.395   2.587   5.314
 1270SOL    HW2 5399   1.464   2.525   5.291
 1270SOL    HW3 5400   1.320   2.561   5.261
 1270SOL    MW4 5401   1.395   2.574   5.305
 1271SOL     OW 5402   0.136   3.467   4.866
 1271SOL    HW2 5403   0.119   3.413   4.943
 1271SOL    HW3 5404   0.124   3.557   4.896
 1271SOL    MW4 5405   0.133   3.471   4.880
 1272SOL     OW 5406   1.131   2.974   5.306
 1272SOL    HW2 5407   1.116   3.067   5.291
 1272SOL    HW3 5408   1.226   2.964   5.306
 1272SOL    MW4 5409   1.140   2.984   5.303
 1273SOL     OW 5410   0.927   2.398   5.507
 1273SOL    HW2 5411   1.017   2.399   5.474
 1273SOL    HW3 5412   0.886   2.323   5.465
 1273SOL    MW4 5413   0.933   2.388   5.498
 1274SOL     OW 5414   1.502   2.930   4.634
 1274SOL    HW2 5415   1.505   2.864   4.565
 1274SOL    HW3 5416   1.587   2.973   4.630
 1274SOL    MW4 5417   1.514   2.926   4.625
 1275SOL     OW 5418   1.122   2.533   4.203
 1275SOL    HW2 5419   1.148   2.557   4.114
 1275SOL    HW3 5420   1.104   2.440   4.199
 1275SOL    MW4 5421   1.124   2.525   4.190
 1276SOL     OW 5422   1.787   3.153   4.054
 1276SOL    HW2 5423   1.743   3.194   4.129
 1276SOL    HW3 5424   1.844   3.221   4.019
 1276SOL    MW4 5425   1.789   3.167   4.059
 1277SOL     OW 5426   0.707   2.202   5.457
 1277SOL    HW2 5427   0.717   2.128   5.397
 1277SOL    HW3 5428   0.743   2.171   5.540
 1277SOL    MW4 5429   0.713   2.188   5.459
 1278SOL     OW 5430   0.443   3.569   4.372
 1278SOL    HW2 5431   0.475   3.657   4.350
 1278SOL    HW3 5432   0.396   3.541   4.294
 1278SOL    MW4 5433   0.442   3.577   4.359
 1279SOL     OW 5434   1.827   1.931   4.421
 1279SOL    HW2 5435   1.881   1.882   4.483
 1279SOL    HW3 5436   1.770   1.865   4.382
 1279SOL    MW4 5437   1.827   1.915   4.423
 1280SOL     OW 5438   0.159   3.629   3.949
 1280SOL    HW2 5439   0.188   3.719   3.941
 1280SOL    HW3 5440   0.109   3.612   3.870
 1280SOL    MW4 5441   0.157   3.637   3.938
 1281SOL     OW 5442   0.946   1.884   4.834
 1281SOL    HW2 5443   0.905   1.962   4.796
 1281SOL    HW3 5444   1.040   1.902   4.829
 1281SOL    MW4 5445   0.952   1.896   4.829
 1282SOL     OW 5446   1.563   3.437   3.920
 1282SOL    HW2 5447   1.611   3.506   3.966
 1282SOL    HW3 5448   1.484   3.481   3.889
 1282SOL    MW4 5449   1.558   3.451   3.923
 1283SOL     OW 5450   0.961   2.562   3.864
 1283SOL    HW2 5451   0.963   2.509   3.785
 1283SOL    HW3 5452   1.049   2.599   3.870
 1283SOL    MW4 5453   0.973   2.561   3.853
 1284SOL     OW 5454   1.575   2.488   4.200
 1284SOL    HW2 5455   1.614   2.488   4.287
 1284SOL    HW3 5456   1.516   2.564   4.200
 1284SOL    MW4 5457   1.572   2.499   4.211
 1285SOL     OW 5458   0.892   2.855   5.329
 1285SOL    HW2 5459   0.869   2.835   5.419
 1285SOL    HW3 5460   0.977   2.899   5.334
 1285SOL    MW4 5461   0.899   2.858   5.341
 1286SOL     OW 5462   0.972   1.992   5.089
 1286SOL    HW2 5463   0.978   1.954   5.002
 1286SOL    HW3 5464   0.961   2.086   5.074
 1286SOL    MW4 5465   0.973   2.000   5.077
 1287SOL     OW 5466   1.061   2.481   4.923
 1287SOL    HW2 5467   1.136   2.510   4.870
 1287SOL    HW3 5468   0.993   2.546   4.907
 1287SOL    MW4 5469   1.062   2.493   4.913
 1288SOL     OW 5470   1.611   2.449   5.200
 1288SOL    HW2 5471   1.592   2.358   5.179
 1288SOL    HW3 5472   1.589   2.498   5.121
 1288SOL    MW4 5473   1.606   2.442   5.187
 1289SOL     OW 5474   1.753   3.543   5.104
 1289SOL    HW2 5475   1.681   3.505   5.155
 1289SOL    HW3 5476   1.770   3.628   5.145
 1289SOL    MW4 5477   1.747   3.548   5.116
 1290SOL     OW 5478   1.058   2.187   5.306
 1290SOL    HW2 5479   1.024   2.226   5.225
 1290SOL    HW3 5480   1.036   2.095   5.299
 1290SOL    MW4 5481   1.051   2.180   5.296
 1291SOL     OW 5482   1.467   3.001   5.382
 1291SOL    HW2 5483   1.549   3.042   5.412
 1291SOL    HW3 5484   1.430   2.963   5.462
 1291SOL    MW4 5485   1.473   3.002   5.397
 1292SOL     OW 5486   1.762   2.374   4.366
 1292SOL    HW2 5487   1.851   2.343   4.383
 1292SOL    HW3 5488   1.705   2.314   4.414
 1292SOL    MW4 5489   1.765   2.362   4.375
 1293SOL     OW 5490   0.188   2.088   4.395
 1293SOL    HW2 5491   0.179   2.028   4.321
 1293SOL    HW3 5492   0.121   2.059   4.458
 1293SOL    MW4 5493   0.178   2.075   4.393
 1294SOL     OW 5494   1.131   3.181   3.956
 1294SOL    HW2 5495   1.081   3.183   4.038
 1294SOL    HW3 5496   1.065   3.199   3.888
 1294SOL    MW4 5497   1.117   3.183   3.958
 1295SOL     OW 5498   0.135   2.261   4.758
 1295SOL    HW2 5499   0.107   2.352   4.767
 1295SOL    HW3 5500   0.072   2.222   4.697
 1295SOL    MW4 5501   0.122   2.267   4.752
 1296SOL     OW 5502   0.594   3.599   4.064
 1296SOL    HW2 5503   0.515   3.557   4.097
 1296SOL    HW3 5504   0.660   3.582   4.131
 1296SOL    MW4 5505   0.593   3.591   4.077
 1297SOL     OW 5506   1.722   3.119   5.461
 1297SOL    HW2 5507   1.772   3.045   5.493
 1297SOL    HW3 5508   1.668   3.146   5.536
 1297SOL    MW4 5509   1.722   3.113   5.474
 1298SOL     OW 5510   0.730   3.014   3.771
 1298SOL    HW2 5511   0.652   2.960   3.758
 1298SOL    HW3 5512   0.701   3.087   3.824
 1298SOL    MW4 5513   0.716   3.016   3.776
 1299SOL     OW 5514   1.856   2.754   4.963
 1299SOL    HW2 5515   1.872   2.792   4.876
 1299SOL    HW3 5516   1.890   2.820   5.024
 1299SOL    MW4 5517   1.863   2.767   4.959
 1300SOL     OW 5518   1.648   3.463   4.632
 1300SOL    HW2 5519   1.677   3.530   4.693
 1300SOL    HW3 5520   1.629   3.387   4.687
 1300SOL    MW4 5521   1.650   3.463   4.647
 1301SOL     OW 5522   1.311   3.530   3.839
 1301SOL    HW2 5523   1.237   3.493   3.889
 1301SOL    HW3 5524   1.319   3.620   3.872
 1301SOL    MW4 5525   1.302   3.537   3.851
 1302SOL     OW 5526   0.119   2.536   4.928
 1302SOL    HW2 5527   0.181   2.566   4.994
 1302SOL    HW3 5528   0.053   2.605   4.922
 1302SOL    MW4 5529   0.118   2.549   4.935
 1303SOL     OW 5530   1.535   3.204   3.781
 1303SOL    HW2 5531   1.482   3.253   3.717
 1303SOL    HW3 5532   1.566   3.270   3.842
 1303SOL    MW4 5533   1.533   3.218   3.779
 1304SOL     OW 5534   0.760   2.093   3.836
 1304SOL    HW2 5535   0.708   2.013   3.824
 1304SOL    HW3 5536   0.847   2.070   3.804
 1304SOL    MW4 5537   0.763   2.079   3.830
 1305SOL     OW 5538   0.214   3.645   5.380
 1305SOL    HW2 5539   0.188   3.713   5.318
 1305SOL    HW3 5540   0.262   3.582   5.328
 1305SOL    MW4 5541   0.216   3.645   5.366
 1306SOL     OW 5542   0.266   2.964   4.887
 1306SOL    HW2 5543   0.319   3.039   4.912
 1306SOL    HW3 5544   0.185   3.002   4.853
 1306SOL    MW4 5545   0.262   2.979   4.887
 1307SOL     OW 5546   0.806   2.868   4.875
 1307SOL    HW2 5547   0.834   2.777   4.887
 1307SOL    HW3 5548   0.735   2.862   4.811
 1307SOL    MW4 5549   0.799   2.856   4.870
 1308SOL     OW 5550   0.121   2.733   4.293
 1308SOL    HW2 5551   0.212   2.748   4.320
 1308SOL    HW3 5552   0.124   2.654   4.239
 1308SOL    MW4 5553   0.133   2.725   4.291
 1309SOL     OW 5554   0.357   2.441   5.547
 1309SOL    HW2 5555   0.304   2.521   5.554
 1309SOL    HW3 5556   0.427   2.453   5.612
 1309SOL    MW4 5557   0.359   2.454   5.555
 1310SOL     OW 5558   0.743   1.991   5.254
 1310SOL    HW2 5559   0.720   1.899   5.256
 1310SOL    HW3 5560   0.829   1.993   5.211
 1310SOL    MW4 5561   0.750   1.981   5.250
 1311SOL     OW 5562   0.427   2.515   5.293
 1311SOL    HW2 5563   0.507   2.565   5.279
 1311SOL    HW3 5564   0.418   2.509   5.388
 1311SOL    MW4 5565   0.436   2.521   5.303
 1312SOL     OW 5566   0.748   3.665   4.667
 1312SOL    HW2 5567   0.837   3.680   4.697
 1312SOL    HW3 5568   0.743   3.712   4.583
 1312SOL    MW4 5569   0.758   3.673   4.660
 1313SOL     OW 5570   1.404   2.040   5.564
 1313SOL    HW2 5571   1.460   1.967   5.590
 1313SOL    HW3 5572   1.374   2.078   5.646
 1313SOL    MW4 5573   1.408   2.035   5.577
 1314SOL     OW 5574   0.129   3.345   4.332
 1314SOL    HW2 5575   0.101   3.384   4.414
 1314SOL    HW3 5576   0.149   3.254   4.354
 1314SOL    MW4 5577   0.127   3.337   4.345
 1315SOL     OW 5578   0.962   3.388   4.367
 1315SOL    HW2 5579   1.045   3.342   4.351
 1315SOL    HW3 5580   0.952   3.387   4.463
 1315SOL    MW4 5581   0.972   3.381   4.377
 1316SOL     OW 5582   1.794   2.533   4.681
 1316SOL    HW2 5583   1.883   2.563   4.663
 1316SOL    HW3 5584   1.774   2.473   4.610
 1316SOL    MW4 5585   1.803   2.530   4.670
 1317SOL     OW 5586   1.645   2.712   5.561
 1317SOL    HW2 5587   1.700   2.636   5.542
 1317SOL    HW3 5588   1.647   2.720   5.656
 1317SOL    MW4 5589   1.653   2.703   5.569
 1318SOL     OW 5590   0.695   3.445   3.772
 1318SOL    HW2 5591   0.635   3.514   3.742
 1318SOL    HW3 5592   0.640   3.387   3.825
 1318SOL    MW4 5593   0.679   3.447   3.774
 1319SOL     OW 5594   1.133   2.090   3.995
 1319SOL    HW2 5595   1.066   2.066   3.932
 1319SOL    HW3 5596   1.198   2.139   3.944
 1319SOL    MW4 5597   1.133   2.092   3.980
 1320SOL     OW 5598   0.940   2.274   5.080
 1320SOL    HW2 5599   0.859   2.315   5.108
 1320SOL    HW3 5600   0.987   2.342   5.032
 1320SOL    MW4 5601   0.935   2.289   5.078
 1321SOL     OW 5602   1.200   2.612   4.703
 1321SOL    HW2 5603   1.213   2.706   4.713
 1321SOL    HW3 5604   1.161   2.602   4.617
 1321SOL    MW4 5605   1.196   2.623   4.693
 1322SOL     OW 5606   0.652   2.807   4.507
 1322SOL    HW2 5607   0.563   2.798   4.540
 1322SOL    HW3 5608   0.656   2.897   4.475
 1322SOL    MW4 5609   0.641   2.818   4.507
 1323SOL     OW 5610   1.451   2.390   4.502
 1323SOL    HW2 5611   1.396   2.311   4.501
 1323SOL    HW3 5612   1.433   2.431   4.586
 1323SOL    MW4 5613   1.441   2.385   4.511
 1324SOL     OW 5614   0.422   2.077   5.319
 1324SOL    HW2 5615   0.343   2.095   5.371
 1324SOL    HW3 5616   0.417   2.139   5.246
 1324SOL    MW4 5617   0.412   2.087   5.316
 1325SOL     OW 5618   1.070   2.594   4.459
 1325SOL    HW2 5619   1.007   2.526   4.483
 1325SOL    HW3 5620   1.090   2.575   4.367
 1325SOL    MW4 5621   1.064   2.581   4.451
 1326SOL     OW 5622   0.326   3.489   4.161
 1326SOL    HW2 5623   0.287   3.536   4.087
 1326SOL    HW3 5624   0.260   3.424   4.186
 1326SOL    MW4 5625   0.313   3.487   4.155
 1327SOL     OW 5626   0.818   2.898   4.185
 1327SOL    HW2 5627   0.820   2.872   4.092
 1327SOL    HW3 5628   0.876   2.835   4.228
 1327SOL    MW4 5629   0.826   2.887   4.179
 1328SOL     OW 5630   1.371   3.458   4.957
 1328SOL    HW2 5631   1.296   3.504   4.995
 1328SOL    HW3 5632   1.353   3.365   4.974
 1328SOL    MW4 5633   1.360   3.452   4.965
 1329SOL     OW 5634   1.375   3.666   4.387
 1329SOL    HW2 5635   1.318   3.619   4.326
 1329SOL    HW3 5636   1.461   3.627   4.374
 1329SOL    MW4 5637   1.378   3.657   4.377
 1330SOL     OW 5638   1.328   2.142   4.518
 1330SOL    HW2 5639   1.356   2.074   4.579
 1330SOL    HW3 5640   1.242   2.113   4.488
 1330SOL    MW4 5641   1.321   2.129   4.522
 1331SOL     OW 5642   0.133   3.076   4.452
 1331SOL    HW2 5643   0.197   3.108   4.515
 1331SOL    HW3 5644   0.182   3.012   4.400
 1331SOL    MW4 5645   0.148   3.072   4.453
 1332SOL     OW 5646   0.633   3.152   5.434
 1332SOL    HW2 5647   0.681   3.235   5.421
 1332SOL    HW3 5648   0.690   3.100   5.490
 1332SOL    MW4 5649   0.647   3.156   5.440
 1333SOL     OW 5650   0.209   3.394   5.574
 1333SOL    HW2 5651   0.265   3.318   5.589
 1333SOL    HW3 5652   0.158   3.372   5.496
 1333SOL    MW4 5653   0.209   3.381   5.565
 1334SOL     OW 5654   1.308   2.246   3.853
 1334SOL    HW2 5655   1.281   2.312   3.789
 1334SOL    HW3 5656   1.378   2.289   3.903
 1334SOL    MW4 5657   1.313   2.259   3.850
 1335SOL     OW 5658   0.976   1.951   3.790
 1335SOL    HW2 5659   1.032   1.943   3.712
 1335SOL    HW3 5660   0.953   1.861   3.812
 1335SOL    MW4 5661   0.981   1.938   3.783
 1336SOL     OW 5662   1.481   2.802   3.995
 1336SOL    HW2 5663   1.448   2.891   3.985
 1336SOL    HW3 5664   1.446   2.773   4.080
 1336SOL    MW4 5665   1.471   2.811   4.006
 1337SOL     OW 5666   1.094   3.231   5.183
 1337SOL    HW2 5667   1.005   3.237   5.151
 1337SOL    HW3 5668   1.138   3.310   5.151
 1337SOL    MW4 5669   1.089   3.241   5.175
 1338SOL     OW 5670   0.387   1.899   5.525
 1338SOL    HW2 5671   0.315   1.864   5.473
 1338SOL    HW3 5672   0.445   1.940   5.460
 1338SOL    MW4 5673   0.385   1.900   5.510
 1339SOL     OW 5674   0.411   3.389   4.824
 1339SOL    HW2 5675   0.456   3.451   4.881
 1339SOL    HW3 5676   0.318   3.408   4.837
 1339SOL    MW4 5677   0.404   3.399   4.831
 1340SOL     OW 5678   1.851   2.918   5.178
 1340SOL    HW2 5679   1.766   2.931   5.137
 1340SOL    HW3 5680   1.831   2.882   5.265
 1340SOL    MW4 5681   1.838   2.914   5.183
 1341SOL     OW 5682   0.833   3.457   4.932
 1341SOL    HW2 5683   0.857   3.446   4.841
 1341SOL    HW3 5684   0.756   3.514   4.930
 1341SOL    MW4 5685   0.825   3.462   4.921
 1342SOL     OW 5686   0.475   2.840   3.787
 1342SOL    HW2 5687   0.398   2.853   3.843
 1342SOL    HW3 5688   0.439   2.804   3.706
 1342SOL    MW4 5689   0.461   2.836   3.784
 1343SOL     OW 5690   1.128   2.813   4.030
 1343SOL    HW2 5691   1.038   2.834   4.005
 1343SOL    HW3 5692   1.155   2.886   4.086
 1343SOL    MW4 5693   1.120   2.825   4.033
 1344SOL     OW 5694   0.628   3.162   4.722
 1344SOL    HW2 5695   0.621   3.141   4.816
 1344SOL    HW3 5696   0.546   3.130   4.685
 1344SOL    MW4 5697   0.616   3.156   4.729
 1345SOL     OW 5698   1.492   2.172   5.124
 1345SOL    HW2 5699   1.439   2.174   5.204
 1345SOL    HW3 5700   1.477   2.085   5.087
 1345SOL    MW4 5701   1.484   2.162   5.129
 1346SOL     OW 5702   1.828   2.096   4.997
 1346SOL    HW2 5703   1.809   2.163   4.932
 1346SOL    HW3 5704   1.885   2.034   4.952
 1346SOL    MW4 5705   1.832   2.097   4.983
 1347SOL     OW 5706   0.074   3.254   5.385
 1347SOL    HW2 5707   0.118   3.187   5.331
 1347SOL    HW3 5708  -0.011   3.216   5.405
 1347SOL    MW4 5709   0.069   3.240   5.381
 1348SOL     OW 5710   0.757   1.929   4.437
 1348SOL    HW2 5711   0.686   1.990   4.419
 1348SOL    HW3 5712   0.808   1.926   4.356
 1348SOL    MW4 5713   0.753   1.935   4.424
 1349SOL     OW 5714   0.515   3.169   4.186
 1349SOL    HW2 5715   0.508   3.201   4.276
 1349SOL    HW3 5716   0.425   3.153   4.158
 1349SOL    MW4 5717   0.503   3.171   4.193
 1350SOL     OW 5718   1.110   3.562   5.095
 1350SOL    HW2 5719   1.030   3.547   5.045
 1350SOL    HW3 5720   1.117   3.657   5.102
 1350SOL    MW4 5721   1.101   3.573   5.089
 1351SOL     OW 5722   1.224   3.527   4.585
 1351SOL    HW2 5723   1.271   3.600   4.544
 1351SOL    HW3 5724   1.145   3.566   4.621
 1351SOL    MW4 5725   1.219   3.542   4.584
 1352SOL     OW 5726   1.632   3.622   4.860
 1352SOL    HW2 5727   1.675   3.592   4.940
 1352SOL    HW3 5728   1.551   3.570   4.857
 1352SOL    MW4 5729   1.627   3.611   4.870
 1353SOL     OW 5730   0.717   2.586   5.567
 1353SOL    HW2 5731   0.787   2.528   5.539
 1353SOL    HW3 5732   0.660   2.531   5.622
 1353SOL    MW4 5733   0.719   2.573   5.571
 1354SOL     OW 5734   1.504   2.798   5.200
 1354SOL    HW2 5735   1.509   2.851   5.280
 1354SOL    HW3 5736   1.466   2.715   5.228
 1354SOL    MW4 5737   1.500   2.793   5.215
 1355SOL     OW 5738   1.144   1.933   5.446
 1355SOL    HW2 5739   1.139   1.840   5.427
 1355SOL    HW3 5740   1.227   1.944   5.492
 1355SOL    MW4 5741   1.152   1.922   5.450
 1356SOL     OW 5742   0.518   2.453   3.900
 1356SOL    HW2 5743   0.484   2.509   3.970
 1356SOL    HW3 5744   0.589   2.403   3.940
 1356SOL    MW4 5745   0.524   2.454   3.914
 1357SOL     OW 5746   1.614   3.204   4.722
 1357SOL    HW2 5747   1.649   3.186   4.635
 1357SOL    HW3 5748   1.519   3.205   4.709
 1357SOL    MW4 5749   1.606   3.201   4.709
 1358SOL     OW 5750   1.043   2.852   5.091
 1358SOL    HW2 5751   1.086   2.887   5.169
 1358SOL    HW3 5752   1.026   2.929   5.037
 1358SOL    MW4 5753   1.046   2.867   5.094
 1359SOL     OW 5754   1.574   2.339   3.964
 1359SOL    HW2 5755   1.566   2.410   3.901
 1359SOL    HW3 5756   1.592   2.383   4.047
 1359SOL    MW4 5757   1.575   2.353   3.966
 1360SOL     OW 5758   0.434   1.994   4.393
 1360SOL    HW2 5759   0.484   2.037   4.324
 1360SOL    HW3 5760   0.349   2.038   4.393
 1360SOL    MW4 5761   0.431   2.007   4.384
 1361SOL     OW 5762   0.193   3.056   5.253
 1361SOL    HW2 5763   0.221   3.009   5.331
 1361SOL    HW3 5764   0.114   3.011   5.224
 1361SOL    MW4 5765   0.186   3.045   5.259
 1362SOL     OW 5766   0.701   2.383   5.220
 1362SOL    HW2 5767   0.673   2.471   5.244
 1362SOL    HW3 5768   0.670   2.327   5.291
 1362SOL    MW4 5769   0.693   2.386   5.232
 1363SOL     OW 5770   1.243   2.601   3.939
 1363SOL    HW2 5771   1.290   2.619   3.858
 1363SOL    HW3 5772   1.209   2.685   3.967
 1363SOL    MW4 5773   1.245   2.615   3.932
 1364SOL     OW 5774   0.356   2.779   4.433
 1364SOL    HW2 5775   0.414   2.835   4.381
 1364SOL    HW3 5776   0.400   2.694   4.435
 1364SOL    MW4 5777   0.369   2.776   4.426
 1365SOL     OW 5778   1.496   2.131   4.270
 1365SOL    HW2 5779   1.418   2.081   4.295
 1365SOL    HW3 5780   1.467   2.222   4.270
 1365SOL    MW4 5781   1.482   2.135   4.273
 1366SOL     OW 5782   1.082   2.093   4.429
 1366SOL    HW2 5783   1.102   2.168   4.373
 1366SOL    HW3 5784   1.062   2.132   4.514
 1366SOL    MW4 5785   1.083   2.109   4.433
 1367SOL     OW 5786   0.978   3.343   3.761
 1367SOL    HW2 5787   1.005   3.421   3.713
 1367SOL    HW3 5788   0.885   3.358   3.780
 1367SOL    MW4 5789   0.969   3.356   3.757
 1368SOL     OW 5790   1.842   2.866   5.448
 1368SOL    HW2 5791   1.755   2.846   5.484
 1368SOL    HW3 5792   1.896   2.792   5.473
 1368SOL    MW4 5793   1.837   2.855   5.456
 1369SOL     OW 5794   0.063   3.379   4.605
 1369SOL    HW2 5795   0.095   3.383   4.696
 1369SOL    HW3 5796  -0.032   3.387   4.613
 1369SOL    MW4 5797   0.055   3.382   4.618
 1370SOL     OW 5798   0.018   2.505   4.152
 1370SOL    HW2 5799  -0.042   2.477   4.222
 1370SOL    HW3 5800   0.092   2.445   4.158
 1370SOL    MW4 5801   0.020   2.494   4.161
 1371SOL     OW 5802   1.586   3.717   5.586
 1371SOL    HW2 5803   1.631   3.641   5.551
 1371SOL    HW3 5804   1.624   3.730   5.673
 1371SOL    MW4 5805   1.596   3.710   5.592
 1372SOL     OW 5806   1.186   3.236   4.312
 1372SOL    HW2 5807   1.209   3.187   4.390
 1372SOL    HW3 5808   1.267   3.278   4.284
 1372SOL    MW4 5809   1.199   3.236   4.319
 1373SOL     OW 5810   0.444   2.244   5.041
 1373SOL    HW2 5811   0.477   2.325   5.081
 1373SOL    HW3 5812   0.417   2.270   4.953
 1373SOL    MW4 5813   0.443   2.258   5.035
 1374SOL     OW 5814   0.398   2.211   4.777
 1374SOL    HW2 5815   0.428   2.125   4.748
 1374SOL    HW3 5816   0.303   2.204   4.780
 1374SOL    MW4 5817   0.390   2.200   4.775
 1375SOL     OW 5818   1.227   2.420   5.468
 1375SOL    HW2 5819   1.279   2.355   5.421
 1375SOL    HW3 5820   1.185   2.471   5.398
 1375SOL    MW4 5821   1.228   2.417   5.451
 1376SOL     OW 5822   1.326   2.215   5.329
 1376SOL    HW2 5823   1.233   2.199   5.316
 1376SOL    HW3 5824   1.352   2.153   5.397
 1376SOL    MW4 5825   1.316   2.205   5.336
 1377SOL     OW 5826   0.541   1.989   4.668
 1377SOL    HW2 5827   0.551   1.898   4.694
 1377SOL    HW3 5828   0.497   1.985   4.583
 1377SOL    MW4 5829   0.537   1.977   4.660
 1378SOL     OW 5830   0.635   3.604   5.214
 1378SOL    HW2 5831   0.552   3.589   5.259
 1378SOL    HW3 5832   0.694   3.537   5.249
 1378SOL    MW4 5833   0.633   3.594   5.224
 1379SOL     OW 5834   1.692   2.311   4.839
 1379SOL    HW2 5835   1.625   2.344   4.899
 1379SOL    HW3 5836   1.735   2.389   4.805
 1379SOL    MW4 5837   1.690   2.326   4.843
 1380SOL     OW 5838   1.870   3.031   4.809
 1380SOL    HW2 5839   1.863   2.971   4.734
 1380SOL    HW3 5840   1.796   3.091   4.798
 1380SOL    MW4 5841   1.860   3.031   4.798
 1381SOL     OW 5842   1.252   2.893   4.727
 1381SOL    HW2 5843   1.266   2.865   4.818
 1381SOL    HW3 5844   1.338   2.924   4.699
 1381SOL    MW4 5845   1.265   2.894   4.736
 1382SOL     OW 5846   1.335   2.388   5.006
 1382SOL    HW2 5847   1.356   2.389   4.913
 1382SOL    HW3 5848   1.380   2.310   5.039
 1382SOL    MW4 5849   1.342   2.378   4.998
 1383SOL     OW 5850   1.828   2.519   5.548
 1383SOL    HW2 5851   1.865   2.464   5.617
 1383SOL    HW3 5852   1.853   2.476   5.466
 1383SOL    MW4 5853   1.835   2.507   5.547
 1384SOL     OW 5854   1.375   2.817   5.600
 1384SOL    HW2 5855   1.441   2.765   5.554
 1384SOL    HW3 5856   1.395   2.804   5.693
 1384SOL    MW4 5857   1.386   2.808   5.607
 1385SOL     OW 5858   1.326   1.903   3.948
 1385SOL    HW2 5859   1.400   1.947   3.991
 1385SOL    HW3 5860   1.250   1.957   3.970
 1385SOL    MW4 5861   1.326   1.915   3.956
 1386SOL     OW 5862   1.386   2.678   4.226
 1386SOL    HW2 5863   1.301   2.648   4.196
 1386SOL    HW3 5864   1.378   2.685   4.321
 1386SOL    MW4 5865   1.374   2.676   4.235
 1387SOL     OW 5866   0.462   3.141   4.957
 1387SOL    HW2 5867   0.474   3.168   5.048
 1387SOL    HW3 5868   0.443   3.222   4.910
 1387SOL    MW4 5869   0.461   3.156   4.962
 1388SOL     OW 5870   0.746   2.121   4.780
 1388SOL    HW2 5871   0.719   2.123   4.871
 1388SOL    HW3 5872   0.676   2.073   4.735
 1388SOL    MW4 5873   0.734   2.117   4.787
 1389SOL     OW 5874   0.600   3.613   4.942
 1389SOL    HW2 5875   0.652   3.690   4.919
 1389SOL    HW3 5876   0.609   3.605   5.037
 1389SOL    MW4 5877   0.609   3.620   4.953
 1390SOL     OW 5878   1.502   3.198   5.174
 1390SOL    HW2 5879   1.487   3.127   5.237
 1390SOL    HW3 5880   1.548   3.156   5.102
 1390SOL    MW4 5881   1.508   3.182   5.174
 1391SOL     OW 5882   0.576   2.929   5.291
 1391SOL    HW2 5883   0.613   2.934   5.203
 1391SOL    HW3 5884   0.615   3.002   5.338
 1391SOL    MW4 5885   0.586   2.939   5.286
 1392SOL     OW 5886   0.756   2.972   5.103
 1392SOL    HW2 5887   0.815   2.918   5.156
 1392SOL    HW3 5888   0.771   2.944   5.013
 1392SOL    MW4 5889   0.766   2.961   5.099
 1393SOL     OW 5890   0.759   2.344   3.952
 1393SOL    HW2 5891   0.832   2.393   3.915
 1393SOL    HW3 5892   0.775   2.253   3.926
 1393SOL    MW4 5893   0.771   2.339   3.945
 1394SOL     OW 5894   1.567   3.461   5.275
 1394SOL    HW2 5895   1.609   3.446   5.360
 1394SOL    HW3 5896   1.558   3.374   5.237
 1394SOL    MW4 5897   1.571   3.449   5.282
 1395SOL     OW 5898   1.227   1.940   4.866
 1395SOL    HW2 5899   1.282   1.949   4.788
 1395SOL    HW3 5900   1.282   1.974   4.937
 1395SOL    MW4 5901   1.241   1.945   4.865
 1396SOL     OW 5902   0.234   2.853   4.050
 1396SOL    HW2 5903   0.171   2.869   3.979
 1396SOL    HW3 5904   0.181   2.816   4.121
 1396SOL    MW4 5905   0.219   2.850   4.050
 1397SOL     OW 5906   0.590   3.207   3.909
 1397SOL    HW2 5907   0.605   3.183   4.001
 1397SOL    HW3 5908   0.498   3.185   3.893
 1397SOL    MW4 5909   0.580   3.200   3.919
 1398SOL     OW 5910   1.129   3.438   4.061
 1398SOL    HW2 5911   1.137   3.356   4.012
 1398SOL    HW3 5912   1.048   3.477   4.028
 1398SOL    MW4 5913   1.119   3.433   4.051
 1399SOL     OW 5914   0.388   3.596   4.630
 1399SOL    HW2 5915   0.392   3.507   4.665
 1399SOL    HW3 5916   0.414   3.587   4.539
 1399SOL    MW4 5917   0.391   3.584   4.622
 1400SOL     OW 5918   1.005   3.074   4.873
 1400SOL    HW2 5919   0.937   3.008   4.889
 1400SOL    HW3 5920   1.023   3.068   4.780
 1400SOL    MW4 5921   0.998   3.065   4.864
 1401SOL     OW 5922   0.094   3.349   5.124
 1401SOL    HW2 5923   0.084   3.307   5.210
 1401SOL    HW3 5924   0.015   3.402   5.114
 1401SOL    MW4 5925   0.083   3.350   5.135
 1402SOL     OW 5926   0.998   2.213   4.694
 1402SOL    HW2 5927   0.928   2.165   4.739
 1402SOL    HW3 5928   1.030   2.276   4.758
 1402SOL    MW4 5929   0.993   2.215   4.708
 1403SOL     OW 5930   0.649   2.649   5.314
 1403SOL    HW2 5931   0.642   2.744   5.302
 1403SOL    HW3 5932   0.658   2.638   5.409
 1403SOL    MW4 5933   0.650   2.661   5.324
 1404SOL     OW 5934   0.370   3.164   5.572
 1404SOL    HW2 5935   0.442   3.166   5.509
 1404SOL    HW3 5936   0.340   3.073   5.571
 1404SOL    MW4 5937   0.375   3.153   5.564
 1405SOL     OW 5938   1.454   1.927   5.039
 1405SOL    HW2 5939   1.525   1.873   5.003
 1405SOL    HW3 5940   1.453   1.906   5.132
 1405SOL    MW4 5941   1.463   1.918   5.047
 1406SOL     OW 5942   1.654   3.457   5.523
 1406SOL    HW2 5943   1.627   3.454   5.614
 1406SOL    HW3 5944   1.750   3.461   5.526
 1406SOL    MW4 5945   1.664   3.457   5.535
 1407SOL     OW 5946   0.465   2.319   4.507
 1407SOL    HW2 5947   0.536   2.267   4.470
 1407SOL    HW3 5948   0.451   2.284   4.594
 1407SOL    MW4 5949   0.473   2.308   4.514
 1408SOL     OW 5950   0.020   3.654   5.579
 1408SOL    HW2 5951   0.070   3.632   5.501
 1408SOL    HW3 5952   0.028   3.749   5.587
 1408SOL    MW4 5953   0.028   3.663   5.570
 1409SOL     OW 5954   0.781   3.412   4.583
 1409SOL    HW2 5955   0.709   3.349   4.596
 1409SOL    HW3 5956   0.742   3.497   4.601
 1409SOL    MW4 5957   0.765   3.415   4.586
 1410SOL     OW 5958   1.101   2.260   4.231
 1410SOL    HW2 5959   1.123   2.197   4.163
 1410SOL    HW3 5960   1.006   2.252   4.242
 1410SOL    MW4 5961   1.091   2.251   4.223
 1411SOL     OW 5962   0.186   1.950   4.163
 1411SOL    HW2 5963   0.257   1.971   4.102
 1411SOL    HW3 5964   0.140   1.878   4.121
 1411SOL    MW4 5965   0.190   1.944   4.149
 1412SOL     OW 5966   0.017   2.417   5.306
 1412SOL    HW2 5967   0.081   2.483   5.281
 1412SOL    HW3 5968  -0.064   2.444   5.263
 1412SOL    MW4 5969   0.015   2.429   5.298
 1413SOL     OW 5970   1.755   3.324   4.263
 1413SOL    HW2 5971   1.725   3.257   4.324
 1413SOL    HW3 5972   1.849   3.330   4.277
 1413SOL    MW4 5973   1.763   3.316   4.273
 1414SOL     OW 5974   1.311   3.001   4.193
 1414SOL    HW2 5975   1.283   3.087   4.226
 1414SOL    HW3 5976   1.339   3.017   4.103
 1414SOL    MW4 5977   1.311   3.015   4.185
 1415SOL     OW 5978   0.973   1.921   4.246
 1415SOL    HW2 5979   1.010   1.980   4.311
 1415SOL    HW3 5980   0.950   1.977   4.172
 1415SOL    MW4 5981   0.974   1.936   4.245
 1416SOL     OW 5982   1.826   2.803   4.668
 1416SOL    HW2 5983   1.817   2.835   4.579
 1416SOL    HW3 5984   1.779   2.719   4.668
 1416SOL    MW4 5985   1.819   2.796   4.658
 1417SOL     OW 5986   0.202   2.643   5.247
 1417SOL    HW2 5987   0.223   2.712   5.185
 1417SOL    HW3 5988   0.282   2.590   5.252
 1417SOL    MW4 5989   0.215   2.644   5.241
 1418SOL     OW 5990   1.738   2.734   4.369
 1418SOL    HW2 5991   1.832   2.723   4.357
 1418SOL    HW3 5992   1.714   2.806   4.310
 1418SOL    MW4 5993   1.748   2.742   4.360
 1419SOL     OW 5994   0.187   2.658   5.514
 1419SOL    HW2 5995   0.113   2.602   5.540
 1419SOL    HW3 5996   0.182   2.661   5.419
 1419SOL    MW4 5997   0.176   2.651   5.504
 1420SOL     OW 5998   0.353   1.945   4.964
 1420SOL    HW2 5999   0.396   2.029   4.984
 1420SOL    HW3 6000   0.426   1.883   4.957
 1420SOL    MW4 6001   0.368   1.948   4.965
 1421SOL     OW 6002   0.394   2.612   4.142
 1421SOL    HW2 6003   0.394   2.707   4.127
 1421SOL    HW3 6004   0.471   2.596   4.196
 1421SOL    MW4 6005   0.404   2.623   4.147
 1422SOL     OW 6006   1.170   2.471   5.206
 1422SOL    HW2 6007   1.206   2.444   5.122
 1422SOL    HW3 6008   1.083   2.505   5.185
 1422SOL    MW4 6009   1.164   2.472   5.193
 1423SOL     OW 6010   0.153   2.343   4.431
 1423SOL    HW2 6011   0.215   2.350   4.504
 1423SOL    HW3 6012   0.153   2.250   4.408
 1423SOL    MW4 6013   0.161   2.332   4.438
 1424SOL     OW 6014   1.700   3.683   3.963
 1424SOL    HW2 6015   1.767   3.716   3.903
 1424SOL    HW3 6016   1.657   3.762   3.997
 1424SOL    MW4 6017   1.702   3.698   3.959
 1425SOL     OW 6018   0.835   2.604   4.915
 1425SOL    HW2 6019   0.793   2.522   4.891
 1425SOL    HW3 6020   0.836   2.603   5.011
 1425SOL    MW4 6021   0.828   2.593   4.924
 1426SOL     OW 6022   1.506   3.737   5.314
 1426SOL    HW2 6023   1.509   3.643   5.297
 1426SOL    HW3 6024   1.529   3.745   5.406
 1426SOL    MW4 6025   1.509   3.725   5.324
 1427SOL     OW 6026   0.639   2.074   5.020
 1427SOL    HW2 6027   0.570   2.137   5.041
 1427SOL    HW3 6028   0.666   2.038   5.105
 1427SOL    MW4 6029   0.633   2.077   5.033
 1428SOL     OW 6030   0.022   2.915   3.889
 1428SOL    HW2 6031  -0.009   2.980   3.952
 1428SOL    HW3 6032  -0.029   2.837   3.908
 1428SOL    MW4 6033   0.012   2.912   3.899
 1429SOL     OW 6034   1.434   1.927   4.637
 1429SOL    HW2 6035   1.522   1.936   4.674
 1429SOL    HW3 6036   1.444   1.868   4.563
 1429SOL    MW4 6037   1.448   1.921   4.631
 1430SOL     OW 6038   1.466   2.666   4.481
 1430SOL    HW2 6039   1.546   2.681   4.430
 1430SOL    HW3 6040   1.459   2.571   4.487
 1430SOL    MW4 6041   1.475   2.655   4.476
 1431SOL     OW 6042   0.606   3.715   3.831
 1431SOL    HW2 6043   0.511   3.715   3.823
 1431SOL    HW3 6044   0.622   3.661   3.909
 1431SOL    MW4 6045   0.596   3.709   3.840
 1432SOL     OW 6046   0.916   2.592   5.178
 1432SOL    HW2 6047   0.985   2.659   5.175
 1432SOL    HW3 6048   0.849   2.630   5.234
 1432SOL    MW4 6049   0.917   2.605   5.185
 1433SOL     OW 6050   0.334   2.892   5.426
 1433SOL    HW2 6051   0.288   2.808   5.428
 1433SOL    HW3 6052   0.391   2.886   5.350
 1433SOL    MW4 6053   0.336   2.880   5.418
 1434SOL     OW 6054   1.451   2.535   3.747
 1434SOL    HW2 6055   1.379   2.511   3.689
 1434SOL    HW3 6056   1.517   2.572   3.689
 1434SOL    MW4 6057   1.450   2.537   3.732
 1435SOL     OW 6058   0.585   3.267   4.427
 1435SOL    HW2 6059   0.650   3.200   4.448
 1435SOL    HW3 6060   0.637   3.344   4.404
 1435SOL    MW4 6061   0.600   3.269   4.426
 1436SOL     OW 6062   0.846   2.432   4.557
 1436SOL    HW2 6063   0.786   2.450   4.629
 1436SOL    HW3 6064   0.880   2.344   4.576
 1436SOL    MW4 6065   0.842   2.422   4.570
 1437SOL     OW 6066   1.787   1.931   5.226
 1437SOL    HW2 6067   1.708   1.977   5.254
 1437SOL    HW3 6068   1.822   1.985   5.155
 1437SOL    MW4 6069   1.781   1.944   5.220
 1438SOL     OW 6070   1.071   3.015   4.576
 1438SOL    HW2 6071   1.163   2.996   4.594
 1438SOL    HW3 6072   1.044   2.945   4.516
 1438SOL    MW4 6073   1.079   3.003   4.570
 1439SOL     OW 6074   0.864   2.835   3.931
 1439SOL    HW2 6075   0.850   2.747   3.896
 1439SOL    HW3 6076   0.815   2.892   3.872
 1439SOL    MW4 6077   0.856   2.830   3.919
 1440SOL     OW 6078   1.345   3.253   4.672
 1440SOL    HW2 6079   1.318   3.337   4.637
 1440SOL    HW3 6080   1.305   3.248   4.759
 1440SOL    MW4 6081   1.338   3.262   4.678
 1441SOL     OW 6082   1.264   3.201   4.940
 1441SOL    HW2 6083   1.275   3.168   5.029
 1441SOL    HW3 6084   1.183   3.160   4.909
 1441SOL    MW4 6085   1.254   3.193   4.946
 1442SOL     OW 6086   0.277   2.559   4.710
 1442SOL    HW2 6087   0.227   2.558   4.791
 1442SOL    HW3 6088   0.297   2.651   4.694
 1442SOL    MW4 6089   0.273   2.571   4.718
 1443SOL     OW 6090   1.344   3.323   5.472
 1443SOL    HW2 6091   1.344   3.417   5.488
 1443SOL    HW3 6092   1.389   3.313   5.388
 1443SOL    MW4 6093   1.350   3.333   5.463
 1444SOL     OW 6094   1.583   2.041   4.033
 1444SOL    HW2 6095   1.576   2.045   4.128
 1444SOL    HW3 6096   1.595   2.132   4.006
 1444SOL    MW4 6097   1.584   2.054   4.041
 1445SOL     OW 6098   0.872   2.604   4.147
 1445SOL    HW2 6099   0.852   2.590   4.054
 1445SOL    HW3 6100   0.965   2.583   4.154
 1445SOL    MW4 6101   0.882   2.599   4.136
 1446SOL     OW 6102   0.199   2.227   5.451
 1446SOL    HW2 6103   0.156   2.286   5.388
 1446SOL    HW3 6104   0.267   2.282   5.491
 1446SOL    MW4 6105   0.203   2.242   5.448
 1447SOL     OW 6106   1.311   2.847   4.996
 1447SOL    HW2 6107   1.374   2.844   5.069
 1447SOL    HW3 6108   1.227   2.865   5.038
 1447SOL    MW4 6109   1.307   2.849   5.011
 1448SOL     OW 6110   0.855   3.562   4.185
 1448SOL    HW2 6111   0.913   3.633   4.212
 1448SOL    HW3 6112   0.878   3.490   4.243
 1448SOL    MW4 6113   0.866   3.562   4.196
 1449SOL     OW 6114   1.650   2.024   4.775
 1449SOL    HW2 6115   1.695   1.942   4.794
 1449SOL    HW3 6116   1.670   2.080   4.851
 1449SOL    MW4 6117   1.660   2.020   4.787
 1450SOL     OW 6118   0.098   1.867   4.874
 1450SOL    HW2 6119   0.089   1.868   4.779
 1450SOL    HW3 6120   0.192   1.879   4.889
 1450SOL    MW4 6121   0.110   1.870   4.865
 1451SOL     OW 6122   1.735   3.060   4.494
 1451SOL    HW2 6123   1.714   3.006   4.417
 1451SOL    HW3 6124   1.831   3.058   4.498
 1451SOL    MW4 6125   1.744   3.053   4.483
 1452SOL     OW 6126   0.427   3.205   5.237
 1452SOL    HW2 6127   0.348   3.155   5.260
 1452SOL    HW3 6128   0.497   3.164   5.287
 1452SOL    MW4 6129   0.425   3.193   5.247
 1453SOL     OW 6130   0.311   1.994   3.920
 1453SOL    HW2 6131   0.240   2.049   3.888
 1453SOL    HW3 6132   0.353   1.960   3.841
 1453SOL    MW4 6133   0.307   1.996   3.906
 1454SOL     OW 6134   1.435   2.491   4.756
 1454SOL    HW2 6135   1.358   2.537   4.722
 1454SOL    HW3 6136   1.492   2.560   4.790
 1454SOL    MW4 6137   1.432   2.506   4.756
 1455SOL     OW 6138   0.067   2.093   3.769
 1455SOL    HW2 6139   0.034   2.172   3.813
 1455SOL    HW3 6140   0.122   2.126   3.698
 1455SOL    MW4 6141   0.070   2.107   3.766
 1456SOL     OW 6142   0.101   3.350   3.958
 1456SOL    HW2 6143   0.118   3.434   4.000
 1456SOL    HW3 6144   0.136   3.359   3.870
 1456SOL    MW4 6145   0.106   3.363   3.952
 1457SOL     OW 6146   1.373   3.439   4.175
 1457SOL    HW2 6147   1.436   3.429   4.104
 1457SOL    HW3 6148   1.290   3.459   4.130
 1457SOL    MW4 6149   1.370   3.440   4.160
 1458SOL     OW 6150   1.736   2.707   5.862
 1458SOL    HW2 6151   1.777   2.649   5.927
 1458SOL    HW3 6152   1.643   2.699   5.879
 1458SOL    MW4 6153   1.730   2.699   5.872
 1459SOL     OW 6154   0.530   2.890   6.091
 1459SOL    HW2 6155   0.620   2.865   6.075
 1459SOL    HW3 6156   0.526   2.983   6.068
 1459SOL    MW4 6157   0.542   2.899   6.086
 1460SOL     OW 6158   1.646   3.593   6.233
 1460SOL    HW2 6159   1.658   3.539   6.311
 1460SOL    HW3 6160   1.683   3.541   6.162
 1460SOL    MW4 6161   1.652   3.578   6.234
 1461SOL     OW 6162   0.814   2.346   6.104
 1461SOL    HW2 6163   0.789   2.434   6.132
 1461SOL    HW3 6164   0.811   2.349   6.008
 1461SOL    MW4 6165   0.810   2.358   6.096
 1462SOL     OW 6166   0.256   2.374   6.032
 1462SOL    HW2 6167   0.288   2.462   6.014
 1462SOL    HW3 6168   0.244   2.372   6.127
 1462SOL    MW4 6169   0.259   2.386   6.044
 1463SOL     OW 6170   0.655   2.129   6.119
 1463SOL    HW2 6171   0.713   2.205   6.121
 1463SOL    HW3 6172   0.590   2.150   6.052
 1463SOL    MW4 6173   0.654   2.141   6.110
 1464SOL     OW 6174   0.742   3.056   6.294
 1464SOL    HW2 6175   0.822   3.059   6.346
 1464SOL    HW3 6176   0.770   3.023   6.208
 1464SOL    MW4 6177   0.756   3.052   6.289
 1465SOL     OW 6178   0.519   2.560   6.285
 1465SOL    HW2 6179   0.504   2.480   6.336
 1465SOL    HW3 6180   0.601   2.595   6.319
 1465SOL    MW4 6181   0.527   2.552   6.297
 1466SOL     OW 6182   0.661   2.386   6.662
 1466SOL    HW2 6183   0.567   2.382   6.680
 1466SOL    HW3 6184   0.691   2.295   6.671
 1466SOL    MW4 6185   0.652   2.374   6.665
 1467SOL     OW 6186   0.407   2.800   6.566
 1467SOL    HW2 6187   0.362   2.807   6.482
 1467SOL    HW3 6188   0.387   2.883   6.610
 1467SOL    MW4 6189   0.399   2.812   6.560
 1468SOL     OW 6190   0.104   3.646   6.441
 1468SOL    HW2 6191   0.193   3.638   6.476
 1468SOL    HW3 6192   0.068   3.558   6.446
 1468SOL    MW4 6193   0.111   3.633   6.446
 1469SOL     OW 6194   1.369   3.038   5.810
 1469SOL    HW2 6195   1.287   3.074   5.776
 1469SOL    HW3 6196   1.437   3.081   5.759
 1469SOL    MW4 6197   1.367   3.048   5.798
 1470SOL     OW 6198   0.368   3.173   6.476
 1470SOL    HW2 6199   0.344   3.226   6.552
 1470SOL    HW3 6200   0.424   3.231   6.424
 1470SOL    MW4 6201   0.372   3.188   6.479
 1471SOL     OW 6202   0.930   2.817   6.286
 1471SOL    HW2 6203   0.844   2.804   6.326
 1471SOL    HW3 6204   0.983   2.744   6.318
 1471SOL    MW4 6205   0.926   2.806   6.295
 1472SOL     OW 6206   0.921   3.179   6.003
 1472SOL    HW2 6207   0.898   3.241   6.071
 1472SOL    HW3 6208   0.878   3.097   6.029
 1472SOL    MW4 6209   0.913   3.175   6.014
 1473SOL     OW 6210   1.794   2.180   6.459
 1473SOL    HW2 6211   1.731   2.160   6.528
 1473SOL    HW3 6212   1.784   2.109   6.396
 1473SOL    MW4 6213   1.784   2.167   6.460
 1474SOL     OW 6214   0.418   2.152   5.971
 1474SOL    HW2 6215   0.392   2.114   5.887
 1474SOL    HW3 6216   0.355   2.222   5.987
 1474SOL    MW4 6217   0.407   2.155   5.962
 1475SOL     OW 6218   0.253   3.113   6.008
 1475SOL    HW2 6219   0.201   3.181   5.964
 1475SOL    HW3 6220   0.250   3.039   5.948
 1475SOL    MW4 6221   0.245   3.112   5.995
 1476SOL     OW 6222   0.915   3.576   5.786
 1476SOL    HW2 6223   0.870   3.592   5.869
 1476SOL    HW3 6224   0.846   3.541   5.728
 1476SOL    MW4 6225   0.901   3.573   5.788
 1477SOL     OW 6226   1.850   2.349   5.761
 1477SOL    HW2 6227   1.759   2.351   5.789
 1477SOL    HW3 6228   1.895   2.411   5.819
 1477SOL    MW4 6229   1.843   2.357   5.771
 1478SOL     OW 6230   1.595   2.952   6.111
 1478SOL    HW2 6231   1.505   2.952   6.146
 1478SOL    HW3 6232   1.588   2.998   6.028
 1478SOL    MW4 6233   1.582   2.958   6.105
 1479SOL     OW 6234   0.136   3.467   6.735
 1479SOL    HW2 6235   0.119   3.413   6.812
 1479SOL    HW3 6236   0.124   3.557   6.765
 1479SOL    MW4 6237   0.133   3.471   6.749
 1480SOL     OW 6238   1.502   2.930   6.503
 1480SOL    HW2 6239   1.505   2.864   6.434
 1480SOL    HW3 6240   1.587   2.973   6.499
 1480SOL    MW4 6241   1.514   2.926   6.494
 1481SOL     OW 6242   1.122   2.533   6.072
 1481SOL    HW2 6243   1.148   2.557   5.983
 1481SOL    HW3 6244   1.104   2.440   6.068
 1481SOL    MW4 6245   1.124   2.525   6.059
 1482SOL     OW 6246   1.787   3.153   5.923
 1482SOL    HW2 6247   1.743   3.194   5.998
 1482SOL    HW3 6248   1.844   3.221   5.888
 1482SOL    MW4 6249   1.789   3.167   5.928
 1483SOL     OW 6250   0.443   3.569   6.241
 1483SOL    HW2 6251   0.475   3.657   6.219
 1483SOL    HW3 6252   0.396   3.541   6.163
 1483SOL    MW4 6253   0.442   3.577   6.228
 1484SOL     OW 6254   1.827   1.931   6.290
 1484SOL    HW2 6255   1.881   1.882   6.352
 1484SOL    HW3 6256   1.770   1.865   6.251
 1484SOL    MW4 6257   1.827   1.915   6.292
 1485SOL     OW 6258   0.159   3.629   5.818
 1485SOL    HW2 6259   0.188   3.719   5.810
 1485SOL    HW3 6260   0.109   3.612   5.739
 1485SOL    MW4 6261   0.157   3.637   5.807
 1486SOL     OW 6262   0.946   1.884   6.703
 1486SOL    HW2 6263   0.905   1.962   6.665
 1486SOL    HW3 6264   1.040   1.902   6.698
 1486SOL    MW4 6265   0.952   1.896   6.698
 1487SOL     OW 6266   1.563   3.437   5.789
 1487SOL    HW2 6267   1.611   3.506   5.835
 1487SOL    HW3 6268   1.484   3.481   5.758
 1487SOL    MW4 6269   1.558   3.451   5.792
 1488SOL     OW 6270   0.961   2.562   5.733
 1488SOL    HW2 6271   0.963   2.509   5.654
 1488SOL    HW3 6272   1.049   2.599   5.739
 1488SOL    MW4 6273   0.973   2.561   5.722
 1489SOL     OW 6274   1.575   2.488   6.069
 1489SOL    HW2 6275   1.614   2.488   6.156
 1489SOL    HW3 6276   1.516   2.564   6.069
 1489SOL    MW4 6277   1.572   2.499   6.080
 1490SOL     OW 6278   1.061   2.481   6.792
 1490SOL    HW2 6279   1.136   2.510   6.739
 1490SOL    HW3 6280   0.993   2.546   6.776
 1490SOL    MW4 6281   1.062   2.493   6.782
 1491SOL     OW 6282   1.762   2.374   6.235
 1491SOL    HW2 6283   1.851   2.343   6.252
 1491SOL    HW3 6284   1.705   2.314   6.283
 1491SOL    MW4 6285   1.765   2.362   6.244
 1492SOL     OW 6286   0.188   2.088   6.264
 1492SOL    HW2 6287   0.179   2.028   6.190
 1492SOL    HW3 6288   0.121   2.059   6.327
 1492SOL    MW4 6289   0.178   2.075   6.262
 1493SOL     OW 6290   1.131   3.181   5.825
 1493SOL    HW2 6291   1.081   3.183   5.907
 1493SOL    HW3 6292   1.065   3.199   5.757
 1493SOL    MW4 6293   1.117   3.183   5.827
 1494SOL     OW 6294   0.135   2.261   6.627
 1494SOL    HW2 6295   0.107   2.352   6.636
 1494SOL    HW3 6296   0.072   2.222   6.566
 1494SOL    MW4 6297   0.122   2.267   6.621
 1495SOL     OW 6298   0.594   3.599   5.933
 1495SOL    HW2 6299   0.515   3.557   5.966
 1495SOL    HW3 6300   0.660   3.582   6.000
 1495SOL    MW4 6301   0.593   3.591   5.946
 1496SOL     OW 6302   0.730   3.014   5.640
 1496SOL    HW2 6303   0.652   2.960   5.627
 1496SOL    HW3 6304   0.701   3.087   5.693
 1496SOL    MW4 6305   0.716   3.016   5.645
 1497SOL     OW 6306   1.856   2.754   6.832
 1497SOL    HW2 6307   1.872   2.792   6.745
 1497SOL    HW3 6308   1.890   2.820   6.893
 1497SOL    MW4 6309   1.863   2.767   6.828
 1498SOL     OW 6310   1.648   3.463   6.501
 1498SOL    HW2 6311   1.677   3.530   6.562
 1498SOL    HW3 6312   1.629   3.387   6.556
 1498SOL    MW4 6313   1.650   3.463   6.516
 1499SOL     OW 6314   1.311   3.530   5.708
 1499SOL    HW2 6315   1.237   3.493   5.758
 1499SOL    HW3 6316   1.319   3.620   5.741
 1499SOL    MW4 6317   1.302   3.537   5.720
 1500SOL     OW 6318   1.535   3.204   5.650
 1500SOL    HW2 6319   1.482   3.253   5.586
 1500SOL    HW3 6320   1.566   3.270   5.711
 1500SOL    MW4 6321   1.533   3.218   5.648
 1501SOL     OW 6322   0.760   2.093   5.705
 1501SOL    HW2 6323   0.708   2.013   5.693
 1501SOL    HW3 6324   0.847   2.070   5.673
 1501SOL    MW4 6325   0.763   2.079   5.699
 1502SOL     OW 6326   0.266   2.964   6.756
 1502SOL    HW2 6327   0.319   3.039   6.781
 1502SOL    HW3 6328   0.185   3.002   6.722
 1502SOL    MW4 6329   0.262   2.979   6.756
 1503SOL     OW 6330   0.806   2.868   6.744
 1503SOL    HW2 6331   0.834   2.777   6.756
 1503SOL    HW3 6332   0.735   2.862   6.680
 1503SOL    MW4 6333   0.799   2.856   6.739
 1504SOL     OW 6334   0.121   2.733   6.162
 1504SOL    HW2 6335   0.212   2.748   6.189
 1504SOL    HW3 6336   0.124   2.654   6.108
 1504SOL    MW4 6337   0.133   2.725   6.160
 1505SOL     OW 6338   0.748   3.665   6.536
 1505SOL    HW2 6339   0.837   3.680   6.566
 1505SOL    HW3 6340   0.743   3.712   6.452
 1505SOL    MW4 6341   0.758   3.673   6.529
 1506SOL     OW 6342   0.129   3.345   6.201
 1506SOL    HW2 6343   0.101   3.384   6.283
 1506SOL    HW3 6344   0.149   3.254   6.223
 1506SOL    MW4 6345   0.127   3.337   6.214
 1507SOL     OW 6346   0.962   3.388   6.236
 1507SOL    HW2 6347   1.045   3.342   6.220
 1507SOL    HW3 6348   0.952   3.387   6.332
 1507SOL    MW4 6349   0.972   3.381   6.246
 1508SOL     OW 6350   1.794   2.533   6.550
 1508SOL    HW2 6351   1.883   2.563   6.532
 1508SOL    HW3 6352   1.774   2.473   6.479
 1508SOL    MW4 6353   1.803   2.530   6.539
 1509SOL     OW 6354   0.695   3.445   5.641
 1509SOL    HW2 6355   0.635   3.514   5.611
 1509SOL    HW3 6356   0.640   3.387   5.694
 1509SOL    MW4 6357   0.679   3.447   5.643
 1510SOL     OW 6358   1.133   2.090   5.864
 1510SOL    HW2 6359   1.066   2.066   5.801
 1510SOL    HW3 6360   1.198   2.139   5.813
 1510SOL    MW4 6361   1.133   2.092   5.849
 1511SOL     OW 6362   1.200   2.612   6.572
 1511SOL    HW2 6363   1.213   2.706   6.582
 1511SOL    HW3 6364   1.161   2.602   6.486
 1511SOL    MW4 6365   1.196   2.623   6.562
 1512SOL     OW 6366   0.652   2.807   6.376
 1512SOL    HW2 6367   0.563   2.798   6.409
 1512SOL    HW3 6368   0.656   2.897   6.344
 1512SOL    MW4 6369   0.641   2.818   6.376
 1513SOL     OW 6370   1.451   2.390   6.371
 1513SOL    HW2 6371   1.396   2.311   6.370
 1513SOL    HW3 6372   1.433   2.431   6.455
 1513SOL    MW4 6373   1.441   2.385   6.380
 1514SOL     OW 6374   1.070   2.594   6.328
 1514SOL    HW2 6375   1.007   2.526   6.352
 1514SOL    HW3 6376   1.090   2.575   6.236
 1514SOL    MW4 6377   1.064   2.581   6.320
 1515SOL     OW 6378   0.326   3.489   6.030
 1515SOL    HW2 6379   0.287   3.536   5.956
 1515SOL    HW3 6380   0.260   3.424   6.055
 1515SOL    MW4 6381   0.313   3.487   6.024
 1516SOL     OW 6382   0.818   2.898   6.054
 1516SOL    HW2 6383   0.820   2.872   5.961
 1516SOL    HW3 6384   0.876   2.835   6.097
 1516SOL    MW4 6385   0.826   2.887   6.048
 1517SOL     OW 6386   1.375   3.666   6.256
 1517SOL    HW2 6387   1.318   3.619   6.195
 1517SOL    HW3 6388   1.461   3.627   6.243
 1517SOL    MW4 6389   1.378   3.657   6.246
 1518SOL     OW 6390   1.328   2.142   6.387
 1518SOL    HW2 6391   1.356   2.074   6.448
 1518SOL    HW3 6392   1.242   2.113   6.357
 1518SOL    MW4 6393   1.321   2.129   6.391
 1519SOL     OW 6394   0.133   3.076   6.321
 1519SOL    HW2 6395   0.197   3.108   6.384
 1519SOL    HW3 6396   0.182   3.012   6.269
 1519SOL    MW4 6397   0.148   3.072   6.322
 1520SOL     OW 6398   1.308   2.246   5.722
 1520SOL    HW2 6399   1.281   2.312   5.658
 1520SOL    HW3 6400   1.378   2.289   5.772
 1520SOL    MW4 6401   1.313   2.259   5.719
 1521SOL     OW 6402   0.976   1.951   5.659
 1521SOL    HW2 6403   1.032   1.943   5.581
 1521SOL    HW3 6404   0.953   1.861   5.681
 1521SOL    MW4 6405   0.981   1.938   5.652
 1522SOL     OW 6406   1.481   2.802   5.864
 1522SOL    HW2 6407   1.448   2.891   5.854
 1522SOL    HW3 6408   1.446   2.773   5.949
 1522SOL    MW4 6409   1.471   2.811   5.875
 1523SOL     OW 6410   0.411   3.389   6.693
 1523SOL    HW2 6411   0.456   3.451   6.750
 1523SOL    HW3 6412   0.318   3.408   6.706
 1523SOL    MW4 6413   0.404   3.399   6.700
 1524SOL     OW 6414   0.833   3.457   6.801
 1524SOL    HW2 6415   0.857   3.446   6.710
 1524SOL    HW3 6416   0.756   3.514   6.799
 1524SOL    MW4 6417   0.825   3.462   6.790
 1525SOL     OW 6418   0.475   2.840   5.656
 1525SOL    HW2 6419   0.398   2.853   5.712
 1525SOL    HW3 6420   0.439   2.804   5.575
 1525SOL    MW4 6421   0.461   2.836   5.653
 1526SOL     OW 6422   1.128   2.813   5.899
 1526SOL    HW2 6423   1.038   2.834   5.874
 1526SOL    HW3 6424   1.155   2.886   5.955
 1526SOL    MW4 6425   1.120   2.825   5.902
 1527SOL     OW 6426   0.628   3.162   6.591
 1527SOL    HW2 6427   0.621   3.141   6.685
 1527SOL    HW3 6428   0.546   3.130   6.554
 1527SOL    MW4 6429   0.616   3.156   6.598
 1528SOL     OW 6430   0.757   1.929   6.306
 1528SOL    HW2 6431   0.686   1.990   6.288
 1528SOL    HW3 6432   0.808   1.926   6.225
 1528SOL    MW4 6433   0.753   1.935   6.293
 1529SOL     OW 6434   0.515   3.169   6.055
 1529SOL    HW2 6435   0.508   3.201   6.145
 1529SOL    HW3 6436   0.425   3.153   6.027
 1529SOL    MW4 6437   0.503   3.171   6.062
 1530SOL     OW 6438   1.224   3.527   6.454
 1530SOL    HW2 6439   1.271   3.600   6.413
 1530SOL    HW3 6440   1.145   3.566   6.490
 1530SOL    MW4 6441   1.219   3.542   6.453
 1531SOL     OW 6442   1.632   3.622   6.729
 1531SOL    HW2 6443   1.675   3.592   6.809
 1531SOL    HW3 6444   1.551   3.570   6.726
 1531SOL    MW4 6445   1.627   3.611   6.739
 1532SOL     OW 6446   0.518   2.453   5.769
 1532SOL    HW2 6447   0.484   2.509   5.839
 1532SOL    HW3 6448   0.589   2.403   5.809
 1532SOL    MW4 6449   0.524   2.454   5.783
 1533SOL     OW 6450   1.614   3.204   6.591
 1533SOL    HW2 6451   1.649   3.186   6.504
 1533SOL    HW3 6452   1.519   3.205   6.578
 1533SOL    MW4 6453   1.606   3.201   6.578
 1534SOL     OW 6454   1.574   2.339   5.833
 1534SOL    HW2 6455   1.566   2.410   5.770
 1534SOL    HW3 6456   1.592   2.383   5.916
 1534SOL    MW4 6457   1.575   2.353   5.835
 1535SOL     OW 6458   0.434   1.994   6.262
 1535SOL    HW2 6459   0.484   2.037   6.193
 1535SOL    HW3 6460   0.349   2.038   6.262
 1535SOL    MW4 6461   0.431   2.007   6.253
 1536SOL     OW 6462   1.243   2.601   5.808
 1536SOL    HW2 6463   1.290   2.619   5.727
 1536SOL    HW3 6464   1.209   2.685   5.836
 1536SOL    MW4 6465   1.245   2.615   5.801
 1537SOL     OW 6466   0.356   2.779   6.302
 1537SOL    HW2 6467   0.414   2.835   6.250
 1537SOL    HW3 6468   0.400   2.694   6.304
 1537SOL    MW4 6469   0.369   2.776   6.295
 1538SOL     OW 6470   1.496   2.131   6.139
 1538SOL    HW2 6471   1.418   2.081   6.164
 1538SOL    HW3 6472   1.467   2.222   6.139
 1538SOL    MW4 6473   1.482   2.135   6.142
 1539SOL     OW 6474   1.082   2.093   6.298
 1539SOL    HW2 6475   1.102   2.168   6.242
 1539SOL    HW3 6476   1.062   2.132   6.383
 1539SOL    MW4 6477   1.083   2.109   6.302
 1540SOL     OW 6478   0.978   3.343   5.630
 1540SOL    HW2 6479   1.005   3.421   5.582
 1540SOL    HW3 6480   0.885   3.358   5.649
 1540SOL    MW4 6481   0.969   3.356   5.626
 1541SOL     OW 6482   0.063   3.379   6.474
 1541SOL    HW2 6483   0.095   3.383   6.565
 1541SOL    HW3 6484  -0.032   3.387   6.482
 1541SOL    MW4 6485   0.055   3.382   6.487
 1542SOL     OW 6486   0.018   2.505   6.021
 1542SOL    HW2 6487  -0.042   2.477   6.091
 1542SOL    HW3 6488   0.092   2.445   6.027
 1542SOL    MW4 6489   0.020   2.494   6.030
 1543SOL     OW 6490   1.186   3.236   6.181
 1543SOL    HW2 6491   1.209   3.187   6.259
 1543SOL    HW3 6492   1.267   3.278   6.153
 1543SOL    MW4 6493   1.199   3.236   6.188
 1544SOL     OW 6494   0.398   2.211   6.646
 1544SOL    HW2 6495   0.428   2.125   6.617
 1544SOL    HW3 6496   0.303   2.204   6.649
 1544SOL    MW4 6497   0.390   2.200   6.644
 1545SOL     OW 6498   0.541   1.989   6.537
 1545SOL    HW2 6499   0.551   1.898   6.563
 1545SOL    HW3 6500   0.497   1.985   6.452
 1545SOL    MW4 6501   0.537   1.977   6.529
 1546SOL     OW 6502   1.692   2.311   6.708
 1546SOL    HW2 6503   1.625   2.344   6.768
 1546SOL    HW3 6504   1.735   2.389   6.674
 1546SOL    MW4 6505   1.690   2.326   6.712
 1547SOL     OW 6506   1.870   3.031   6.678
 1547SOL    HW2 6507   1.863   2.971   6.603
 1547SOL    HW3 6508   1.796   3.091   6.667
 1547SOL    MW4 6509   1.860   3.031   6.667
 1548SOL     OW 6510   1.252   2.893   6.596
 1548SOL    HW2 6511   1.266   2.865   6.687
 1548SOL    HW3 6512   1.338   2.924   6.568
 1548SOL    MW4 6513   1.265   2.894   6.605
 1549SOL     OW 6514   1.326   1.903   5.817
 1549SOL    HW2 6515   1.400   1.947   5.860
 1549SOL    HW3 6516   1.250   1.957   5.839
 1549SOL    MW4 6517   1.326   1.915   5.825
 1550SOL     OW 6518   1.386   2.678   6.095
 1550SOL    HW2 6519   1.301   2.648   6.065
 1550SOL    HW3 6520   1.378   2.685   6.190
 1550SOL    MW4 6521   1.374   2.676   6.104
 1551SOL     OW 6522   0.746   2.121   6.649
 1551SOL    HW2 6523   0.719   2.123   6.740
 1551SOL    HW3 6524   0.676   2.073   6.604
 1551SOL    MW4 6525   0.734   2.117   6.656
 1552SOL     OW 6526   0.759   2.344   5.821
 1552SOL    HW2 6527   0.832   2.393   5.784
 1552SOL    HW3 6528   0.775   2.253   5.795
 1552SOL    MW4 6529   0.771   2.339   5.814
 1553SOL     OW 6530   1.227   1.940   6.735
 1553SOL    HW2 6531   1.282   1.949   6.657
 1553SOL    HW3 6532   1.282   1.974   6.806
 1553SOL    MW4 6533   1.241   1.945   6.734
 1554SOL     OW 6534   0.234   2.853   5.919
 1554SOL    HW2 6535   0.171   2.869   5.848
 1554SOL    HW3 6536   0.181   2.816   5.990
 1554SOL    MW4 6537   0.219   2.850   5.919
 1555SOL     OW 6538   0.590   3.207   5.778
 1555SOL    HW2 6539   0.605   3.183   5.870
 1555SOL    HW3 6540   0.498   3.185   5.762
 1555SOL    MW4 6541   0.580   3.200   5.788
 1556SOL     OW 6542   1.129   3.438   5.930
 1556SOL    HW2 6543   1.137   3.356   5.881
 1556SOL    HW3 6544   1.048   3.477   5.897
 1556SOL    MW4 6545   1.119   3.433   5.920
 1557SOL     OW 6546   0.388   3.596   6.499
 1557SOL    HW2 6547   0.392   3.507   6.534
 1557SOL    HW3 6548   0.414   3.587   6.408
 1557SOL    MW4 6549   0.391   3.584   6.491
 1558SOL     OW 6550   1.005   3.074   6.742
 1558SOL    HW2 6551   0.937   3.008   6.758
 1558SOL    HW3 6552   1.023   3.068   6.649
 1558SOL    MW4 6553   0.998   3.065   6.733
 1559SOL     OW 6554   0.998   2.213   6.563
 1559SOL    HW2 6555   0.928   2.165   6.608
 1559SOL    HW3 6556   1.030   2.276   6.627
 1559SOL    MW4 6557   0.993   2.215   6.577
 1560SOL     OW 6558   0.465   2.319   6.376
 1560SOL    HW2 6559   0.536   2.267   6.339
 1560SOL    HW3 6560   0.451   2.284   6.463
 1560SOL    MW4 6561   0.473   2.308   6.383
 1561SOL     OW 6562   0.781   3.412   6.452
 1561SOL    HW2 6563   0.709   3.349   6.465
 1561SOL    HW3 6564   0.742   3.497   6.470
 1561SOL    MW4 6565   0.765   3.415   6.455
 1562SOL     OW 6566   1.101   2.260   6.100
 1562SOL    HW2 6567   1.123   2.197   6.032
 1562SOL    HW3 6568   1.006   2.252   6.111
 1562SOL    MW4 6569   1.091   2.251   6.092
 1563SOL     OW 6570   0.186   1.950   6.032
 1563SOL    HW2 6571   0.257   1.971   5.971
 1563SOL    HW3 6572   0.140   1.878   5.990
 1563SOL    MW4 6573   0.190   1.944   6.018
 1564SOL     OW 6574   1.755   3.324   6.132
 1564SOL    HW2 6575   1.725   3.257   6.193
 1564SOL    HW3 6576   1.849   3.330   6.146
 1564SOL    MW4 6577   1.763   3.316   6.142
 1565SOL     OW 6578   1.311   3.001   6.062
 1565SOL    HW2 6579   1.283   3.087   6.095
 1565SOL    HW3 6580   1.339   3.017   5.972
 1565SOL    MW4 6581   1.311   3.015   6.054
 1566SOL     OW 6582   0.973   1.921   6.115
 1566SOL    HW2 6583   1.010   1.980   6.180
 1566SOL    HW3 6584   0.950   1.977   6.041
 1566SOL    MW4 6585   0.974   1.936   6.114
 1567SOL     OW 6586   1.826   2.803   6.537
 1567SOL    HW2 6587   1.817   2.835   6.448
 1567SOL    HW3 6588   1.779   2.719   6.537
 1567SOL    MW4 6589   1.819   2.796   6.527
 1568SOL     OW 6590   1.738   2.734   6.238
 1568SOL    HW2 6591   1.832   2.723   6.226
 1568SOL    HW3 6592   1.714   2.806   6.179
 1568SOL    MW4 6593   1.748   2.742   6.229
 1569SOL     OW 6594   0.394   2.612   6.011
 1569SOL    HW2 6595   0.394   2.707   5.996
 1569SOL    HW3 6596   0.471   2.596   6.065
 1569SOL    MW4 6597   0.404   2.623   6.016
 1570SOL     OW 6598   0.153   2.343   6.300
 1570SOL    HW2 6599   0.215   2.350   6.373
 1570SOL    HW3 6600   0.153   2.250   6.277
 1570SOL    MW4 6601   0.161   2.332   6.307
 1571SOL     OW 6602   1.700   3.683   5.832
 1571SOL    HW2 6603   1.767   3.716   5.772
 1571SOL    HW3 6604   1.657   3.762   5.866
 1571SOL    MW4 6605   1.702   3.698   5.828
 1572SOL     OW 6606   0.835   2.604   6.784
 1572SOL    HW2 6607   0.793   2.522   6.760
 1572SOL    HW3 6608   0.836   2.603   6.880
 1572SOL    MW4 6609   0.828   2.593   6.793
 1573SOL     OW 6610   0.022   2.915   5.758
 1573SOL    HW2 6611  -0.009   2.980   5.821
 1573SOL    HW3 6612  -0.029   2.837   5.777
 1573SOL    MW4 6613   0.012   2.912   5.768
 1574SOL     OW 6614   1.434   1.927   6.506
 1574SOL    HW2 6615   1.522   1.936   6.543
 1574SOL    HW3 6616   1.444   1.868   6.432
 1574SOL    MW4 6617   1.448   1.921   6.500
 1575SOL     OW 6618   1.466   2.666   6.350
 1575SOL    HW2 6619   1.546   2.681   6.299
 1575SOL    HW3 6620   1.459   2.571   6.356
 1575SOL    MW4 6621   1.475   2.655   6.345
 1576SOL     OW 6622   0.606   3.715   5.700
 1576SOL    HW2 6623   0.511   3.715   5.692
 1576SOL    HW3 6624   0.622   3.661   5.778
 1576SOL    MW4 6625   0.596   3.709   5.709
 1577SOL     OW 6626   1.451   2.535   5.615
 1577SOL    HW2 6627   1.379   2.511   5.557
 1577SOL    HW3 6628   1.517   2.572   5.557
 1577SOL    MW4 6629   1.450   2.537   5.600
 1578SOL     OW 6630   0.585   3.267   6.296
 1578SOL    HW2 6631   0.650   3.200   6.317
 1578SOL    HW3 6632   0.637   3.344   6.273
 1578SOL    MW4 6633   0.600   3.269   6.295
 1579SOL     OW 6634   0.846   2.432   6.426
 1579SOL    HW2 6635   0.786   2.450   6.498
 1579SOL    HW3 6636   0.880   2.344   6.445
 1579SOL    MW4 6637   0.842   2.422   6.439
 1580SOL     OW 6638   1.071   3.015   6.445
 1580SOL    HW2 6639   1.163   2.996   6.463
 1580SOL    HW3 6640   1.044   2.945   6.385
 1580SOL    MW4 6641   1.079   3.003   6.439
 1581SOL     OW 6642   0.864   2.835   5.800
 1581SOL    HW2 6643   0.850   2.747   5.765
 1581SOL    HW3 6644   0.815   2.892   5.741
 1581SOL    MW4 6645   0.856   2.830   5.788
 1582SOL     OW 6646   1.345   3.253   6.541
 1582SOL    HW2 6647   1.318   3.337   6.506
 1582SOL    HW3 6648   1.305   3.248   6.628
 1582SOL    MW4 6649   1.338   3.262   6.547
 1583SOL     OW 6650   0.277   2.559   6.579
 1583SOL    HW2 6651   0.227   2.558   6.660
 1583SOL    HW3 6652   0.297   2.651   6.563
 1583SOL    MW4 6653   0.273   2.571   6.587
 1584SOL     OW 6654   1.583   2.041   5.902
 1584SOL    HW2 6655   1.576   2.045   5.997
 1584SOL    HW3 6656   1.595   2.132   5.875
 1584SOL    MW4 6657   1.584   2.054   5.910
 1585SOL     OW 6658   0.872   2.604   6.016
 1585SOL    HW2 6659   0.852   2.590   5.923
 1585SOL    HW3 6660   0.965   2.583   6.023
 1585SOL    MW4 6661   0.882   2.599   6.005
 1586SOL     OW 6662   0.855   3.562   6.054
 1586SOL    HW2 6663   0.913   3.633   6.081
 1586SOL    HW3 6664   0.878   3.490   6.112
 1586SOL    MW4 6665   0.866   3.562   6.065
 1587SOL     OW 6666   1.650   2.024   6.644
 1587SOL    HW2 6667   1.695   1.942   6.663
 1587SOL    HW3 6668   1.670   2.080   6.720
 1587SOL    MW4 6669   1.660   2.020   6.656
 1588SOL     OW 6670   0.098   1.867   6.743
 1588SOL    HW2 6671   0.089   1.868   6.648
 1588SOL    HW3 6672   0.192   1.879   6.758
 1588SOL    MW4 6673   0.110   1.870   6.734
 1589SOL     OW 6674   1.735   3.060   6.363
 1589SOL    HW2 6675   1.714   3.006   6.286
 1589SOL    HW3 6676   1.831   3.058   6.367
 1589SOL    MW4 6677   1.744   3.053   6.352
 1590SOL     OW 6678   0.311   1.994   5.789
 1590SOL    HW2 6679   0.240   2.049   5.757
 1590SOL    HW3 6680   0.353   1.960   5.710
 1590SOL    MW4 6681   0.307   1.996   5.775
 1591SOL     OW 6682   1.435   2.491   6.625
 1591SOL    HW2 6683   1.358   2.537   6.591
 1591SOL    HW3 6684   1.492   2.560   6.659
 1591SOL    MW4 6685   1.432   2.506   6.625
 1592SOL     OW 6686   0.067   2.093   5.638
 1592SOL    HW2 6687   0.034   2.172   5.682
 1592SOL    HW3 6688   0.122   2.126   5.567
 1592SOL    MW4 6689   0.070   2.107   5.635
 1593SOL     OW 6690   0.101   3.350   5.827
 1593SOL    HW2 6691   0.118   3.434   5.869
 1593SOL    HW3 6692   0.136   3.359   5.739
 1593SOL    MW4 6693   0.106   3.363   5.821
 1594SOL     OW 6694   1.373   3.439   6.044
 1594SOL    HW2 6695   1.436   3.429   5.973
 1594SOL    HW3 6696   1.290   3.459   5.999
 1594SOL    MW4 6697   1.370   3.440   6.029
 1595SOL     OW 6698   1.736   4.575   0.257
 1595SOL    HW2 6699   1.777   4.517   0.322
 1595SOL    HW3 6700   1.643   4.567   0.274
 1595SOL    MW4 6701   1.730   4.567   0.267
 1596SOL     OW 6702   1.602   4.507   1.252
 1596SOL    HW2 6703   1.557   4.574   1.303
 1596SOL    HW3 6704   1.690   4.543   1.238
 1596SOL    MW4 6705   1.608   4.520   1.256
 1597SOL     OW 6706   0.530   4.758   0.486
 1597SOL    HW2 6707   0.620   4.733   0.470
 1597SOL    HW3 6708   0.526   4.851   0.463
 1597SOL    MW4 6709   0.542   4.767   0.481
 1598SOL     OW 6710   1.646   5.461   0.628
 1598SOL    HW2 6711   1.658   5.407   0.706
 1598SOL    HW3 6712   1.683   5.409   0.557
 1598SOL    MW4 6713   1.652   5.446   0.629
 1599SOL     OW 6714   1.025   5.346   1.629
 1599SOL    HW2 6715   1.066   5.382   1.550
 1599SOL    HW3 6716   1.060   5.257   1.636
 1599SOL    MW4 6717   1.036   5.339   1.620
 1600SOL     OW 6718   1.582   4.901   1.233
 1600SOL    HW2 6719   1.503   4.866   1.191
 1600SOL    HW3 6720   1.609   4.973   1.177
 1600SOL    MW4 6721   1.575   4.906   1.220
 1601SOL     OW 6722   0.814   4.214   0.499
 1601SOL    HW2 6723   0.789   4.302   0.527
 1601SOL    HW3 6724   0.811   4.217   0.403
 1601SOL    MW4 6725   0.810   4.226   0.491
 1602SOL     OW 6726   0.256   4.242   0.427
 1602SOL    HW2 6727   0.288   4.330   0.409
 1602SOL    HW3 6728   0.244   4.240   0.522
 1602SOL    MW4 6729   0.259   4.254   0.439
 1603SOL     OW 6730   0.334   4.655   1.328
 1603SOL    HW2 6731   0.397   4.602   1.279
 1603SOL    HW3 6732   0.315   4.729   1.271
 1603SOL    MW4 6733   0.340   4.657   1.315
 1604SOL     OW 6734   0.655   3.997   0.514
 1604SOL    HW2 6735   0.713   4.073   0.516
 1604SOL    HW3 6736   0.590   4.018   0.447
 1604SOL    MW4 6737   0.654   4.009   0.505
 1605SOL     OW 6738   0.742   4.924   0.689
 1605SOL    HW2 6739   0.822   4.927   0.741
 1605SOL    HW3 6740   0.770   4.891   0.603
 1605SOL    MW4 6741   0.756   4.920   0.684
 1606SOL     OW 6742   0.767   5.265   1.592
 1606SOL    HW2 6743   0.851   5.291   1.631
 1606SOL    HW3 6744   0.791   5.209   1.518
 1606SOL    MW4 6745   0.781   5.261   1.587
 1607SOL     OW 6746   0.519   4.428   0.680
 1607SOL    HW2 6747   0.504   4.348   0.731
 1607SOL    HW3 6748   0.601   4.463   0.714
 1607SOL    MW4 6749   0.527   4.420   0.692
 1608SOL     OW 6750   0.856   5.114   1.365
 1608SOL    HW2 6751   0.820   5.180   1.305
 1608SOL    HW3 6752   0.784   5.052   1.378
 1608SOL    MW4 6753   0.842   5.114   1.359
 1609SOL     OW 6754   0.661   4.254   1.057
 1609SOL    HW2 6755   0.567   4.250   1.075
 1609SOL    HW3 6756   0.691   4.163   1.066
 1609SOL    MW4 6757   0.652   4.242   1.060
 1610SOL     OW 6758   0.407   4.668   0.961
 1610SOL    HW2 6759   0.362   4.675   0.877
 1610SOL    HW3 6760   0.387   4.751   1.005
 1610SOL    MW4 6761   0.399   4.680   0.955
 1611SOL     OW 6762   0.104   5.514   0.836
 1611SOL    HW2 6763   0.193   5.506   0.871
 1611SOL    HW3 6764   0.068   5.426   0.841
 1611SOL    MW4 6765   0.111   5.501   0.841
 1612SOL     OW 6766   1.369   4.906   0.205
 1612SOL    HW2 6767   1.287   4.942   0.171
 1612SOL    HW3 6768   1.437   4.949   0.154
 1612SOL    MW4 6769   1.367   4.916   0.193
 1613SOL     OW 6770   0.368   5.041   0.871
 1613SOL    HW2 6771   0.344   5.094   0.947
 1613SOL    HW3 6772   0.424   5.099   0.819
 1613SOL    MW4 6773   0.372   5.056   0.874
 1614SOL     OW 6774   0.930   4.685   0.681
 1614SOL    HW2 6775   0.844   4.672   0.721
 1614SOL    HW3 6776   0.983   4.612   0.713
 1614SOL    MW4 6777   0.926   4.674   0.690
 1615SOL     OW 6778   0.338   5.337   1.466
 1615SOL    HW2 6779   0.246   5.313   1.451
 1615SOL    HW3 6780   0.382   5.254   1.483
 1615SOL    MW4 6781   0.332   5.322   1.465
 1616SOL     OW 6782   0.921   5.047   0.398
 1616SOL    HW2 6783   0.898   5.109   0.466
 1616SOL    HW3 6784   0.878   4.965   0.424
 1616SOL    MW4 6785   0.913   5.043   0.409
 1617SOL     OW 6786   1.794   4.048   0.854
 1617SOL    HW2 6787   1.731   4.028   0.923
 1617SOL    HW3 6788   1.784   3.977   0.791
 1617SOL    MW4 6789   1.784   4.035   0.855
 1618SOL     OW 6790   0.418   4.020   0.366
 1618SOL    HW2 6791   0.392   3.982   0.282
 1618SOL    HW3 6792   0.355   4.090   0.382
 1618SOL    MW4 6793   0.407   4.023   0.357
 1619SOL     OW 6794   0.253   4.981   0.403
 1619SOL    HW2 6795   0.201   5.049   0.359
 1619SOL    HW3 6796   0.250   4.907   0.343
 1619SOL    MW4 6797   0.245   4.980   0.390
 1620SOL     OW 6798   0.915   5.444   0.181
 1620SOL    HW2 6799   0.870   5.460   0.264
 1620SOL    HW3 6800   0.846   5.409   0.123
 1620SOL    MW4 6801   0.901   5.441   0.183
 1621SOL     OW 6802   1.850   4.217   0.156
 1621SOL    HW2 6803   1.759   4.219   0.184
 1621SOL    HW3 6804   1.895   4.279   0.214
 1621SOL    MW4 6805   1.843   4.225   0.166
 1622SOL     OW 6806   1.595   4.820   0.506
 1622SOL    HW2 6807   1.505   4.820   0.541
 1622SOL    HW3 6808   1.588   4.866   0.423
 1622SOL    MW4 6809   1.582   4.826   0.500
 1623SOL     OW 6810   1.395   4.455   1.578
 1623SOL    HW2 6811   1.464   4.393   1.555
 1623SOL    HW3 6812   1.320   4.429   1.525
 1623SOL    MW4 6813   1.395   4.442   1.569
 1624SOL     OW 6814   0.136   5.335   1.130
 1624SOL    HW2 6815   0.119   5.281   1.207
 1624SOL    HW3 6816   0.124   5.425   1.160
 1624SOL    MW4 6817   0.133   5.339   1.144
 1625SOL     OW 6818   1.131   4.842   1.570
 1625SOL    HW2 6819   1.116   4.935   1.555
 1625SOL    HW3 6820   1.226   4.832   1.570
 1625SOL    MW4 6821   1.140   4.852   1.567
 1626SOL     OW 6822   0.927   4.266   1.771
 1626SOL    HW2 6823   1.017   4.267   1.738
 1626SOL    HW3 6824   0.886   4.191   1.729
 1626SOL    MW4 6825   0.933   4.256   1.762
 1627SOL     OW 6826   1.502   4.798   0.898
 1627SOL    HW2 6827   1.505   4.732   0.829
 1627SOL    HW3 6828   1.587   4.841   0.894
 1627SOL    MW4 6829   1.514   4.794   0.889
 1628SOL     OW 6830   1.122   4.401   0.467
 1628SOL    HW2 6831   1.148   4.425   0.378
 1628SOL    HW3 6832   1.104   4.308   0.463
 1628SOL    MW4 6833   1.124   4.393   0.454
 1629SOL     OW 6834   1.787   5.021   0.318
 1629SOL    HW2 6835   1.743   5.062   0.393
 1629SOL    HW3 6836   1.844   5.089   0.283
 1629SOL    MW4 6837   1.789   5.035   0.323
 1630SOL     OW 6838   0.707   4.070   1.721
 1630SOL    HW2 6839   0.717   3.996   1.661
 1630SOL    HW3 6840   0.743   4.039   1.804
 1630SOL    MW4 6841   0.713   4.056   1.723
 1631SOL     OW 6842   0.443   5.437   0.636
 1631SOL    HW2 6843   0.475   5.525   0.614
 1631SOL    HW3 6844   0.396   5.409   0.558
 1631SOL    MW4 6845   0.442   5.445   0.623
 1632SOL     OW 6846   1.827   3.799   0.685
 1632SOL    HW2 6847   1.881   3.750   0.747
 1632SOL    HW3 6848   1.770   3.733   0.646
 1632SOL    MW4 6849   1.827   3.783   0.687
 1633SOL     OW 6850   0.159   5.497   0.213
 1633SOL    HW2 6851   0.188   5.587   0.205
 1633SOL    HW3 6852   0.109   5.480   0.134
 1633SOL    MW4 6853   0.157   5.505   0.202
 1634SOL     OW 6854   0.946   3.752   1.098
 1634SOL    HW2 6855   0.905   3.830   1.060
 1634SOL    HW3 6856   1.040   3.770   1.093
 1634SOL    MW4 6857   0.952   3.764   1.093
 1635SOL     OW 6858   1.563   5.305   0.184
 1635SOL    HW2 6859   1.611   5.374   0.230
 1635SOL    HW3 6860   1.484   5.349   0.153
 1635SOL    MW4 6861   1.558   5.319   0.187
 1636SOL     OW 6862   0.961   4.430   0.128
 1636SOL    HW2 6863   0.963   4.377   0.049
 1636SOL    HW3 6864   1.049   4.467   0.134
 1636SOL    MW4 6865   0.973   4.429   0.117
 1637SOL     OW 6866   1.575   4.356   0.464
 1637SOL    HW2 6867   1.614   4.356   0.551
 1637SOL    HW3 6868   1.516   4.432   0.464
 1637SOL    MW4 6869   1.572   4.367   0.475
 1638SOL     OW 6870   0.892   4.723   1.593
 1638SOL    HW2 6871   0.869   4.703   1.683
 1638SOL    HW3 6872   0.977   4.767   1.598
 1638SOL    MW4 6873   0.899   4.726   1.605
 1639SOL     OW 6874   0.972   3.860   1.353
 1639SOL    HW2 6875   0.978   3.822   1.266
 1639SOL    HW3 6876   0.961   3.954   1.338
 1639SOL    MW4 6877   0.973   3.868   1.341
 1640SOL     OW 6878   1.061   4.349   1.187
 1640SOL    HW2 6879   1.136   4.378   1.134
 1640SOL    HW3 6880   0.993   4.414   1.171
 1640SOL    MW4 6881   1.062   4.361   1.177
 1641SOL     OW 6882   1.611   4.317   1.464
 1641SOL    HW2 6883   1.592   4.226   1.443
 1641SOL    HW3 6884   1.589   4.366   1.385
 1641SOL    MW4 6885   1.606   4.310   1.451
 1642SOL     OW 6886   1.753   5.411   1.368
 1642SOL    HW2 6887   1.681   5.373   1.419
 1642SOL    HW3 6888   1.770   5.496   1.409
 1642SOL    MW4 6889   1.747   5.416   1.380
 1643SOL     OW 6890   1.058   4.055   1.570
 1643SOL    HW2 6891   1.024   4.094   1.489
 1643SOL    HW3 6892   1.036   3.963   1.563
 1643SOL    MW4 6893   1.051   4.048   1.560
 1644SOL     OW 6894   1.467   4.869   1.646
 1644SOL    HW2 6895   1.549   4.910   1.676
 1644SOL    HW3 6896   1.430   4.831   1.726
 1644SOL    MW4 6897   1.473   4.870   1.661
 1645SOL     OW 6898   1.762   4.242   0.630
 1645SOL    HW2 6899   1.851   4.211   0.647
 1645SOL    HW3 6900   1.705   4.182   0.678
 1645SOL    MW4 6901   1.765   4.230   0.639
 1646SOL     OW 6902   0.188   3.956   0.659
 1646SOL    HW2 6903   0.179   3.896   0.585
 1646SOL    HW3 6904   0.121   3.927   0.722
 1646SOL    MW4 6905   0.178   3.943   0.657
 1647SOL     OW 6906   1.131   5.049   0.220
 1647SOL    HW2 6907   1.081   5.051   0.302
 1647SOL    HW3 6908   1.065   5.067   0.152
 1647SOL    MW4 6909   1.117   5.051   0.222
 1648SOL     OW 6910   0.135   4.129   1.022
 1648SOL    HW2 6911   0.107   4.220   1.031
 1648SOL    HW3 6912   0.072   4.090   0.961
 1648SOL    MW4 6913   0.122   4.135   1.016
 1649SOL     OW 6914   0.594   5.467   0.328
 1649SOL    HW2 6915   0.515   5.425   0.361
 1649SOL    HW3 6916   0.660   5.450   0.395
 1649SOL    MW4 6917   0.593   5.459   0.341
 1650SOL     OW 6918   1.722   4.987   1.725
 1650SOL    HW2 6919   1.772   4.913   1.757
 1650SOL    HW3 6920   1.668   5.014   1.800
 1650SOL    MW4 6921   1.722   4.981   1.738
 1651SOL     OW 6922   0.730   4.882   0.035
 1651SOL    HW2 6923   0.652   4.828   0.022
 1651SOL    HW3 6924   0.701   4.955   0.088
 1651SOL    MW4 6925   0.716   4.884   0.040
 1652SOL     OW 6926   1.856   4.622   1.227
 1652SOL    HW2 6927   1.872   4.660   1.140
 1652SOL    HW3 6928   1.890   4.688   1.288
 1652SOL    MW4 6929   1.863   4.635   1.223
 1653SOL     OW 6930   1.648   5.331   0.896
 1653SOL    HW2 6931   1.677   5.398   0.957
 1653SOL    HW3 6932   1.629   5.255   0.951
 1653SOL    MW4 6933   1.650   5.331   0.911
 1654SOL     OW 6934   1.311   5.398   0.103
 1654SOL    HW2 6935   1.237   5.361   0.153
 1654SOL    HW3 6936   1.319   5.488   0.136
 1654SOL    MW4 6937   1.302   5.405   0.115
 1655SOL     OW 6938   0.119   4.404   1.192
 1655SOL    HW2 6939   0.181   4.434   1.258
 1655SOL    HW3 6940   0.053   4.473   1.186
 1655SOL    MW4 6941   0.118   4.417   1.199
 1656SOL     OW 6942   1.535   5.072   0.045
 1656SOL    HW2 6943   1.482   5.121  -0.019
 1656SOL    HW3 6944   1.566   5.138   0.106
 1656SOL    MW4 6945   1.533   5.086   0.043
 1657SOL     OW 6946   0.760   3.961   0.100
 1657SOL    HW2 6947   0.708   3.881   0.088
 1657SOL    HW3 6948   0.847   3.938   0.068
 1657SOL    MW4 6949   0.763   3.947   0.094
 1658SOL     OW 6950   0.214   5.513   1.644
 1658SOL    HW2 6951   0.188   5.581   1.582
 1658SOL    HW3 6952   0.262   5.450   1.592
 1658SOL    MW4 6953   0.216   5.513   1.630
 1659SOL     OW 6954   0.266   4.832   1.151
 1659SOL    HW2 6955   0.319   4.907   1.176
 1659SOL    HW3 6956   0.185   4.870   1.117
 1659SOL    MW4 6957   0.262   4.847   1.151
 1660SOL     OW 6958   0.806   4.736   1.139
 1660SOL    HW2 6959   0.834   4.645   1.151
 1660SOL    HW3 6960   0.735   4.730   1.075
 1660SOL    MW4 6961   0.799   4.724   1.134
 1661SOL     OW 6962   0.121   4.601   0.557
 1661SOL    HW2 6963   0.212   4.616   0.584
 1661SOL    HW3 6964   0.124   4.522   0.503
 1661SOL    MW4 6965   0.133   4.593   0.555
 1662SOL     OW 6966   0.357   4.309   1.811
 1662SOL    HW2 6967   0.304   4.389   1.818
 1662SOL    HW3 6968   0.427   4.321   1.876
 1662SOL    MW4 6969   0.359   4.322   1.819
 1663SOL     OW 6970   0.743   3.859   1.518
 1663SOL    HW2 6971   0.720   3.767   1.520
 1663SOL    HW3 6972   0.829   3.861   1.475
 1663SOL    MW4 6973   0.750   3.849   1.514
 1664SOL     OW 6974   0.427   4.383   1.557
 1664SOL    HW2 6975   0.507   4.433   1.543
 1664SOL    HW3 6976   0.418   4.377   1.652
 1664SOL    MW4 6977   0.436   4.389   1.567
 1665SOL     OW 6978   0.748   5.533   0.931
 1665SOL    HW2 6979   0.837   5.548   0.961
 1665SOL    HW3 6980   0.743   5.580   0.847
 1665SOL    MW4 6981   0.758   5.541   0.924
 1666SOL     OW 6982   1.404   3.908   1.828
 1666SOL    HW2 6983   1.460   3.835   1.854
 1666SOL    HW3 6984   1.374   3.946   1.910
 1666SOL    MW4 6985   1.408   3.903   1.841
 1667SOL     OW 6986   0.129   5.213   0.596
 1667SOL    HW2 6987   0.101   5.252   0.678
 1667SOL    HW3 6988   0.149   5.122   0.618
 1667SOL    MW4 6989   0.127   5.205   0.609
 1668SOL     OW 6990   0.962   5.256   0.631
 1668SOL    HW2 6991   1.045   5.210   0.615
 1668SOL    HW3 6992   0.952   5.255   0.727
 1668SOL    MW4 6993   0.972   5.249   0.641
 1669SOL     OW 6994   1.794   4.401   0.945
 1669SOL    HW2 6995   1.883   4.431   0.927
 1669SOL    HW3 6996   1.774   4.341   0.874
 1669SOL    MW4 6997   1.803   4.398   0.934
 1670SOL     OW 6998   1.645   4.580   1.825
 1670SOL    HW2 6999   1.700   4.504   1.806
 1670SOL    HW3 7000   1.647   4.588   1.920
 1670SOL    MW4 7001   1.653   4.571   1.833
 1671SOL     OW 7002   0.695   5.313   0.036
 1671SOL    HW2 7003   0.635   5.382   0.006
 1671SOL    HW3 7004   0.640   5.255   0.089
 1671SOL    MW4 7005   0.679   5.315   0.038
 1672SOL     OW 7006   1.133   3.958   0.259
 1672SOL    HW2 7007   1.066   3.934   0.196
 1672SOL    HW3 7008   1.198   4.007   0.208
 1672SOL    MW4 7009   1.133   3.960   0.244
 1673SOL     OW 7010   0.940   4.142   1.344
 1673SOL    HW2 7011   0.859   4.183   1.372
 1673SOL    HW3 7012   0.987   4.210   1.296
 1673SOL    MW4 7013   0.935   4.157   1.342
 1674SOL     OW 7014   1.200   4.480   0.967
 1674SOL    HW2 7015   1.213   4.574   0.977
 1674SOL    HW3 7016   1.161   4.470   0.881
 1674SOL    MW4 7017   1.196   4.491   0.957
 1675SOL     OW 7018   0.652   4.675   0.771
 1675SOL    HW2 7019   0.563   4.666   0.804
 1675SOL    HW3 7020   0.656   4.765   0.739
 1675SOL    MW4 7021   0.641   4.686   0.771
 1676SOL     OW 7022   1.451   4.258   0.766
 1676SOL    HW2 7023   1.396   4.179   0.765
 1676SOL    HW3 7024   1.433   4.299   0.850
 1676SOL    MW4 7025   1.441   4.253   0.775
 1677SOL     OW 7026   0.422   3.945   1.583
 1677SOL    HW2 7027   0.343   3.963   1.635
 1677SOL    HW3 7028   0.417   4.007   1.510
 1677SOL    MW4 7029   0.412   3.955   1.580
 1678SOL     OW 7030   1.070   4.462   0.723
 1678SOL    HW2 7031   1.007   4.394   0.747
 1678SOL    HW3 7032   1.090   4.443   0.631
 1678SOL    MW4 7033   1.064   4.449   0.715
 1679SOL     OW 7034   0.326   5.357   0.425
 1679SOL    HW2 7035   0.287   5.404   0.351
 1679SOL    HW3 7036   0.260   5.292   0.450
 1679SOL    MW4 7037   0.313   5.355   0.419
 1680SOL     OW 7038   0.818   4.766   0.449
 1680SOL    HW2 7039   0.820   4.740   0.356
 1680SOL    HW3 7040   0.876   4.703   0.492
 1680SOL    MW4 7041   0.826   4.755   0.443
 1681SOL     OW 7042   1.371   5.326   1.221
 1681SOL    HW2 7043   1.296   5.372   1.259
 1681SOL    HW3 7044   1.353   5.233   1.238
 1681SOL    MW4 7045   1.360   5.320   1.229
 1682SOL     OW 7046   1.375   5.534   0.651
 1682SOL    HW2 7047   1.318   5.487   0.590
 1682SOL    HW3 7048   1.461   5.495   0.638
 1682SOL    MW4 7049   1.378   5.525   0.641
 1683SOL     OW 7050   1.328   4.010   0.782
 1683SOL    HW2 7051   1.356   3.942   0.843
 1683SOL    HW3 7052   1.242   3.981   0.752
 1683SOL    MW4 7053   1.321   3.997   0.786
 1684SOL     OW 7054   0.133   4.944   0.716
 1684SOL    HW2 7055   0.197   4.976   0.779
 1684SOL    HW3 7056   0.182   4.880   0.664
 1684SOL    MW4 7057   0.148   4.940   0.717
 1685SOL     OW 7058   0.633   5.020   1.698
 1685SOL    HW2 7059   0.681   5.103   1.685
 1685SOL    HW3 7060   0.690   4.968   1.754
 1685SOL    MW4 7061   0.647   5.024   1.704
 1686SOL     OW 7062   0.209   5.262   1.838
 1686SOL    HW2 7063   0.265   5.186   1.853
 1686SOL    HW3 7064   0.158   5.240   1.760
 1686SOL    MW4 7065   0.209   5.249   1.829
 1687SOL     OW 7066   1.308   4.114   0.117
 1687SOL    HW2 7067   1.281   4.180   0.053
 1687SOL    HW3 7068   1.378   4.157   0.167
 1687SOL    MW4 7069   1.313   4.127   0.114
 1688SOL     OW 7070   0.976   3.819   0.054
 1688SOL    HW2 7071   1.032   3.811  -0.024
 1688SOL    HW3 7072   0.953   3.729   0.076
 1688SOL    MW4 7073   0.981   3.806   0.047
 1689SOL     OW 7074   1.481   4.670   0.259
 1689SOL    HW2 7075   1.448   4.759   0.249
 1689SOL    HW3 7076   1.446   4.641   0.344
 1689SOL    MW4 7077   1.471   4.679   0.270
 1690SOL     OW 7078   1.094   5.099   1.447
 1690SOL    HW2 7079   1.005   5.105   1.415
 1690SOL    HW3 7080   1.138   5.178   1.415
 1690SOL    MW4 7081   1.089   5.109   1.439
 1691SOL     OW 7082   0.387   3.767   1.789
 1691SOL    HW2 7083   0.315   3.732   1.737
 1691SOL    HW3 7084   0.445   3.808   1.724
 1691SOL    MW4 7085   0.385   3.768   1.774
 1692SOL     OW 7086   0.411   5.257   1.088
 1692SOL    HW2 7087   0.456   5.319   1.145
 1692SOL    HW3 7088   0.318   5.276   1.101
 1692SOL    MW4 7089   0.404   5.267   1.095
 1693SOL     OW 7090   1.851   4.786   1.442
 1693SOL    HW2 7091   1.766   4.799   1.401
 1693SOL    HW3 7092   1.831   4.750   1.529
 1693SOL    MW4 7093   1.838   4.782   1.447
 1694SOL     OW 7094   0.833   5.325   1.196
 1694SOL    HW2 7095   0.857   5.314   1.105
 1694SOL    HW3 7096   0.756   5.382   1.194
 1694SOL    MW4 7097   0.825   5.330   1.185
 1695SOL     OW 7098   0.475   4.708   0.051
 1695SOL    HW2 7099   0.398   4.721   0.107
 1695SOL    HW3 7100   0.439   4.672  -0.030
 1695SOL    MW4 7101   0.461   4.704   0.048
 1696SOL     OW 7102   1.128   4.681   0.294
 1696SOL    HW2 7103   1.038   4.702   0.269
 1696SOL    HW3 7104   1.155   4.754   0.350
 1696SOL    MW4 7105   1.120   4.693   0.297
 1697SOL     OW 7106   0.628   5.030   0.986
 1697SOL    HW2 7107   0.621   5.009   1.080
 1697SOL    HW3 7108   0.546   4.998   0.949
 1697SOL    MW4 7109   0.616   5.024   0.993
 1698SOL     OW 7110   1.492   4.040   1.388
 1698SOL    HW2 7111   1.439   4.042   1.468
 1698SOL    HW3 7112   1.477   3.953   1.351
 1698SOL    MW4 7113   1.484   4.030   1.393
 1699SOL     OW 7114   1.828   3.964   1.261
 1699SOL    HW2 7115   1.809   4.031   1.196
 1699SOL    HW3 7116   1.885   3.902   1.216
 1699SOL    MW4 7117   1.832   3.965   1.247
 1700SOL     OW 7118   0.074   5.122   1.649
 1700SOL    HW2 7119   0.118   5.055   1.595
 1700SOL    HW3 7120  -0.011   5.084   1.669
 1700SOL    MW4 7121   0.069   5.108   1.645
 1701SOL     OW 7122   0.757   3.797   0.701
 1701SOL    HW2 7123   0.686   3.858   0.683
 1701SOL    HW3 7124   0.808   3.794   0.620
 1701SOL    MW4 7125   0.753   3.803   0.688
 1702SOL     OW 7126   0.515   5.037   0.450
 1702SOL    HW2 7127   0.508   5.069   0.540
 1702SOL    HW3 7128   0.425   5.021   0.422
 1702SOL    MW4 7129   0.503   5.039   0.457
 1703SOL     OW 7130   1.110   5.430   1.359
 1703SOL    HW2 7131   1.030   5.415   1.309
 1703SOL    HW3 7132   1.117   5.525   1.366
 1703SOL    MW4 7133   1.101   5.441   1.353
 1704SOL     OW 7134   1.224   5.395   0.849
 1704SOL    HW2 7135   1.271   5.468   0.808
 1704SOL    HW3 7136   1.145   5.434   0.885
 1704SOL    MW4 7137   1.219   5.410   0.848
 1705SOL     OW 7138   1.632   5.490   1.124
 1705SOL    HW2 7139   1.675   5.460   1.204
 1705SOL    HW3 7140   1.551   5.438   1.121
 1705SOL    MW4 7141   1.627   5.479   1.134
 1706SOL     OW 7142   0.717   4.454   1.831
 1706SOL    HW2 7143   0.787   4.396   1.803
 1706SOL    HW3 7144   0.660   4.399   1.886
 1706SOL    MW4 7145   0.719   4.441   1.835
 1707SOL     OW 7146   1.504   4.666   1.464
 1707SOL    HW2 7147   1.509   4.719   1.544
 1707SOL    HW3 7148   1.466   4.583   1.492
 1707SOL    MW4 7149   1.500   4.661   1.479
 1708SOL     OW 7150   1.144   3.801   1.710
 1708SOL    HW2 7151   1.139   3.708   1.691
 1708SOL    HW3 7152   1.227   3.812   1.756
 1708SOL    MW4 7153   1.152   3.790   1.714
 1709SOL     OW 7154   0.518   4.321   0.164
 1709SOL    HW2 7155   0.484   4.377   0.234
 1709SOL    HW3 7156   0.589   4.271   0.204
 1709SOL    MW4 7157   0.524   4.322   0.178
 1710SOL     OW 7158   1.614   5.072   0.986
 1710SOL    HW2 7159   1.649   5.054   0.899
 1710SOL    HW3 7160   1.519   5.073   0.973
 1710SOL    MW4 7161   1.606   5.069   0.973
 1711SOL     OW 7162   1.043   4.720   1.355
 1711SOL    HW2 7163   1.086   4.755   1.433
 1711SOL    HW3 7164   1.026   4.797   1.301
 1711SOL    MW4 7165   1.046   4.735   1.358
 1712SOL     OW 7166   1.574   4.207   0.228
 1712SOL    HW2 7167   1.566   4.278   0.165
 1712SOL    HW3 7168   1.592   4.251   0.311
 1712SOL    MW4 7169   1.575   4.221   0.230
 1713SOL     OW 7170   0.434   3.862   0.657
 1713SOL    HW2 7171   0.484   3.905   0.588
 1713SOL    HW3 7172   0.349   3.906   0.657
 1713SOL    MW4 7173   0.431   3.875   0.648
 1714SOL     OW 7174   0.193   4.924   1.517
 1714SOL    HW2 7175   0.221   4.877   1.595
 1714SOL    HW3 7176   0.114   4.879   1.488
 1714SOL    MW4 7177   0.186   4.913   1.523
 1715SOL     OW 7178   0.701   4.251   1.484
 1715SOL    HW2 7179   0.673   4.339   1.508
 1715SOL    HW3 7180   0.670   4.195   1.555
 1715SOL    MW4 7181   0.693   4.254   1.496
 1716SOL     OW 7182   1.243   4.469   0.203
 1716SOL    HW2 7183   1.290   4.487   0.122
 1716SOL    HW3 7184   1.209   4.553   0.231
 1716SOL    MW4 7185   1.245   4.483   0.196
 1717SOL     OW 7186   0.356   4.647   0.697
 1717SOL    HW2 7187   0.414   4.703   0.645
 1717SOL    HW3 7188   0.400   4.562   0.699
 1717SOL    MW4 7189   0.369   4.644   0.690
 1718SOL     OW 7190   1.496   3.999   0.534
 1718SOL    HW2 7191   1.418   3.949   0.559
 1718SOL    HW3 7192   1.467   4.090   0.534
 1718SOL    MW4 7193   1.482   4.003   0.537
 1719SOL     OW 7194   1.082   3.961   0.693
 1719SOL    HW2 7195   1.102   4.036   0.637
 1719SOL    HW3 7196   1.062   4.000   0.778
 1719SOL    MW4 7197   1.083   3.977   0.697
 1720SOL     OW 7198   0.978   5.211   0.025
 1720SOL    HW2 7199   1.005   5.289  -0.023
 1720SOL    HW3 7200   0.885   5.226   0.044
 1720SOL    MW4 7201   0.969   5.224   0.021
 1721SOL     OW 7202   1.842   4.734   1.712
 1721SOL    HW2 7203   1.755   4.714   1.748
 1721SOL    HW3 7204   1.896   4.660   1.737
 1721SOL    MW4 7205   1.837   4.723   1.720
 1722SOL     OW 7206   0.063   5.247   0.869
 1722SOL    HW2 7207   0.095   5.251   0.960
 1722SOL    HW3 7208  -0.032   5.255   0.877
 1722SOL    MW4 7209   0.055   5.250   0.882
 1723SOL     OW 7210   0.018   4.373   0.416
 1723SOL    HW2 7211  -0.042   4.345   0.486
 1723SOL    HW3 7212   0.092   4.313   0.422
 1723SOL    MW4 7213   0.020   4.362   0.425
 1724SOL     OW 7214   1.586   5.585   1.850
 1724SOL    HW2 7215   1.631   5.509   1.815
 1724SOL    HW3 7216   1.624   5.598   1.937
 1724SOL    MW4 7217   1.596   5.578   1.856
 1725SOL     OW 7218   1.186   5.104   0.576
 1725SOL    HW2 7219   1.209   5.055   0.654
 1725SOL    HW3 7220   1.267   5.146   0.548
 1725SOL    MW4 7221   1.199   5.104   0.583
 1726SOL     OW 7222   0.444   4.112   1.305
 1726SOL    HW2 7223   0.477   4.193   1.345
 1726SOL    HW3 7224   0.417   4.138   1.217
 1726SOL    MW4 7225   0.443   4.126   1.299
 1727SOL     OW 7226   0.398   4.079   1.041
 1727SOL    HW2 7227   0.428   3.993   1.012
 1727SOL    HW3 7228   0.303   4.072   1.044
 1727SOL    MW4 7229   0.390   4.068   1.039
 1728SOL     OW 7230   1.227   4.288   1.732
 1728SOL    HW2 7231   1.279   4.223   1.685
 1728SOL    HW3 7232   1.185   4.339   1.662
 1728SOL    MW4 7233   1.228   4.285   1.715
 1729SOL     OW 7234   1.326   4.083   1.593
 1729SOL    HW2 7235   1.233   4.067   1.580
 1729SOL    HW3 7236   1.352   4.021   1.661
 1729SOL    MW4 7237   1.316   4.073   1.600
 1730SOL     OW 7238   0.541   3.857   0.932
 1730SOL    HW2 7239   0.551   3.766   0.958
 1730SOL    HW3 7240   0.497   3.853   0.847
 1730SOL    MW4 7241   0.537   3.845   0.924
 1731SOL     OW 7242   0.635   5.472   1.478
 1731SOL    HW2 7243   0.552   5.457   1.523
 1731SOL    HW3 7244   0.694   5.405   1.513
 1731SOL    MW4 7245   0.633   5.462   1.488
 1732SOL     OW 7246   1.692   4.179   1.103
 1732SOL    HW2 7247   1.625   4.212   1.163
 1732SOL    HW3 7248   1.735   4.257   1.069
 1732SOL    MW4 7249   1.690   4.194   1.107
 1733SOL     OW 7250   1.870   4.899   1.073
 1733SOL    HW2 7251   1.863   4.839   0.998
 1733SOL    HW3 7252   1.796   4.959   1.062
 1733SOL    MW4 7253   1.860   4.899   1.062
 1734SOL     OW 7254   1.252   4.761   0.991
 1734SOL    HW2 7255   1.266   4.733   1.082
 1734SOL    HW3 7256   1.338   4.792   0.963
 1734SOL    MW4 7257   1.265   4.762   1.000
 1735SOL     OW 7258   1.335   4.256   1.270
 1735SOL    HW2 7259   1.356   4.257   1.177
 1735SOL    HW3 7260   1.380   4.178   1.303
 1735SOL    MW4 7261   1.342   4.246   1.262
 1736SOL     OW 7262   1.828   4.387   1.812
 1736SOL    HW2 7263   1.865   4.332   1.881
 1736SOL    HW3 7264   1.853   4.344   1.730
 1736SOL    MW4 7265   1.835   4.375   1.811
 1737SOL     OW 7266   1.375   4.685   1.863
 1737SOL    HW2 7267   1.441   4.633   1.817
 1737SOL    HW3 7268   1.395   4.672   1.956
 1737SOL    MW4 7269   1.386   4.676   1.870
 1738SOL     OW 7270   1.326   3.771   0.212
 1738SOL    HW2 7271   1.400   3.815   0.255
 1738SOL    HW3 7272   1.250   3.825   0.234
 1738SOL    MW4 7273   1.326   3.783   0.220
 1739SOL     OW 7274   1.386   4.546   0.490
 1739SOL    HW2 7275   1.301   4.516   0.460
 1739SOL    HW3 7276   1.378   4.553   0.585
 1739SOL    MW4 7277   1.374   4.544   0.499
 1740SOL     OW 7278   0.462   5.009   1.221
 1740SOL    HW2 7279   0.474   5.036   1.312
 1740SOL    HW3 7280   0.443   5.090   1.174
 1740SOL    MW4 7281   0.461   5.024   1.226
 1741SOL     OW 7282   0.746   3.989   1.044
 1741SOL    HW2 7283   0.719   3.991   1.135
 1741SOL    HW3 7284   0.676   3.941   0.999
 1741SOL    MW4 7285   0.734   3.985   1.051
 1742SOL     OW 7286   0.600   5.481   1.206
 1742SOL    HW2 7287   0.652   5.558   1.183
 1742SOL    HW3 7288   0.609   5.473   1.301
 1742SOL    MW4 7289   0.609   5.488   1.217
 1743SOL     OW 7290   1.502   5.066   1.438
 1743SOL    HW2 7291   1.487   4.995   1.501
 1743SOL    HW3 7292   1.548   5.024   1.366
 1743SOL    MW4 7293   1.508   5.050   1.438
 1744SOL     OW 7294   0.576   4.797   1.555
 1744SOL    HW2 7295   0.613   4.802   1.467
 1744SOL    HW3 7296   0.615   4.870   1.602
 1744SOL    MW4 7297   0.586   4.807   1.550
 1745SOL     OW 7298   0.756   4.840   1.367
 1745SOL    HW2 7299   0.815   4.786   1.420
 1745SOL    HW3 7300   0.771   4.812   1.277
 1745SOL    MW4 7301   0.766   4.829   1.363
 1746SOL     OW 7302   0.759   4.212   0.216
 1746SOL    HW2 7303   0.832   4.261   0.179
 1746SOL    HW3 7304   0.775   4.121   0.190
 1746SOL    MW4 7305   0.771   4.207   0.209
 1747SOL     OW 7306   1.567   5.329   1.539
 1747SOL    HW2 7307   1.609   5.314   1.624
 1747SOL    HW3 7308   1.558   5.242   1.501
 1747SOL    MW4 7309   1.571   5.317   1.546
 1748SOL     OW 7310   1.227   3.808   1.130
 1748SOL    HW2 7311   1.282   3.817   1.052
 1748SOL    HW3 7312   1.282   3.842   1.201
 1748SOL    MW4 7313   1.241   3.813   1.129
 1749SOL     OW 7314   0.234   4.721   0.314
 1749SOL    HW2 7315   0.171   4.737   0.243
 1749SOL    HW3 7316   0.181   4.684   0.385
 1749SOL    MW4 7317   0.219   4.718   0.314
 1750SOL     OW 7318   0.590   5.075   0.173
 1750SOL    HW2 7319   0.605   5.051   0.265
 1750SOL    HW3 7320   0.498   5.053   0.157
 1750SOL    MW4 7321   0.580   5.068   0.183
 1751SOL     OW 7322   1.129   5.306   0.325
 1751SOL    HW2 7323   1.137   5.224   0.276
 1751SOL    HW3 7324   1.048   5.345   0.292
 1751SOL    MW4 7325   1.119   5.301   0.315
 1752SOL     OW 7326   0.388   5.464   0.894
 1752SOL    HW2 7327   0.392   5.375   0.929
 1752SOL    HW3 7328   0.414   5.455   0.803
 1752SOL    MW4 7329   0.391   5.452   0.886
 1753SOL     OW 7330   1.005   4.942   1.137
 1753SOL    HW2 7331   0.937   4.876   1.153
 1753SOL    HW3 7332   1.023   4.936   1.044
 1753SOL    MW4 7333   0.998   4.933   1.128
 1754SOL     OW 7334   0.094   5.217   1.388
 1754SOL    HW2 7335   0.084   5.175   1.474
 1754SOL    HW3 7336   0.015   5.270   1.378
 1754SOL    MW4 7337   0.083   5.218   1.399
 1755SOL     OW 7338   0.998   4.081   0.958
 1755SOL    HW2 7339   0.928   4.033   1.003
 1755SOL    HW3 7340   1.030   4.144   1.022
 1755SOL    MW4 7341   0.993   4.083   0.972
 1756SOL     OW 7342   0.649   4.517   1.578
 1756SOL    HW2 7343   0.642   4.612   1.566
 1756SOL    HW3 7344   0.658   4.506   1.673
 1756SOL    MW4 7345   0.650   4.529   1.588
 1757SOL     OW 7346   0.370   5.032   1.836
 1757SOL    HW2 7347   0.442   5.034   1.773
 1757SOL    HW3 7348   0.340   4.941   1.835
 1757SOL    MW4 7349   0.375   5.021   1.828
 1758SOL     OW 7350   1.454   3.795   1.303
 1758SOL    HW2 7351   1.525   3.741   1.267
 1758SOL    HW3 7352   1.453   3.774   1.396
 1758SOL    MW4 7353   1.463   3.786   1.311
 1759SOL     OW 7354   1.654   5.325   1.787
 1759SOL    HW2 7355   1.627   5.322   1.878
 1759SOL    HW3 7356   1.750   5.329   1.790
 1759SOL    MW4 7357   1.664   5.325   1.799
 1760SOL     OW 7358   0.465   4.187   0.771
 1760SOL    HW2 7359   0.536   4.135   0.734
 1760SOL    HW3 7360   0.451   4.152   0.858
 1760SOL    MW4 7361   0.473   4.176   0.778
 1761SOL     OW 7362   0.020   5.522   1.843
 1761SOL    HW2 7363   0.070   5.500   1.765
 1761SOL    HW3 7364   0.028   5.617   1.851
 1761SOL    MW4 7365   0.028   5.531   1.834
 1762SOL     OW 7366   0.781   5.280   0.847
 1762SOL    HW2 7367   0.709   5.217   0.860
 1762SOL    HW3 7368   0.742   5.365   0.865
 1762SOL    MW4 7369   0.765   5.283   0.850
 1763SOL     OW 7370   1.101   4.128   0.495
 1763SOL    HW2 7371   1.123   4.065   0.427
 1763SOL    HW3 7372   1.006   4.120   0.506
 1763SOL    MW4 7373   1.091   4.119   0.487
 1764SOL     OW 7374   0.186   3.818   0.427
 1764SOL    HW2 7375   0.257   3.839   0.366
 1764SOL    HW3 7376   0.140   3.746   0.385
 1764SOL    MW4 7377   0.190   3.812   0.413
 1765SOL     OW 7378   0.017   4.285   1.570
 1765SOL    HW2 7379   0.081   4.351   1.545
 1765SOL    HW3 7380  -0.064   4.312   1.527
 1765SOL    MW4 7381   0.015   4.297   1.562
 1766SOL     OW 7382   1.755   5.192   0.527
 1766SOL    HW2 7383   1.725   5.125   0.588
 1766SOL    HW3 7384   1.849   5.198   0.541
 1766SOL    MW4 7385   1.763   5.184   0.537
 1767SOL     OW 7386   1.311   4.869   0.457
 1767SOL    HW2 7387   1.283   4.955   0.490
 1767SOL    HW3 7388   1.339   4.885   0.367
 1767SOL    MW4 7389   1.311   4.883   0.449
 1768SOL     OW 7390   0.973   3.789   0.510
 1768SOL    HW2 7391   1.010   3.848   0.575
 1768SOL    HW3 7392   0.950   3.845   0.436
 1768SOL    MW4 7393   0.974   3.804   0.509
 1769SOL     OW 7394   1.826   4.671   0.932
 1769SOL    HW2 7395   1.817   4.703   0.843
 1769SOL    HW3 7396   1.779   4.587   0.932
 1769SOL    MW4 7397   1.819   4.664   0.922
 1770SOL     OW 7398   0.202   4.511   1.511
 1770SOL    HW2 7399   0.223   4.580   1.449
 1770SOL    HW3 7400   0.282   4.458   1.516
 1770SOL    MW4 7401   0.215   4.512   1.505
 1771SOL     OW 7402   1.738   4.602   0.633
 1771SOL    HW2 7403   1.832   4.591   0.621
 1771SOL    HW3 7404   1.714   4.674   0.574
 1771SOL    MW4 7405   1.748   4.610   0.624
 1772SOL     OW 7406   0.187   4.526   1.778
 1772SOL    HW2 7407   0.113   4.470   1.804
 1772SOL    HW3 7408   0.182   4.529   1.683
 1772SOL    MW4 7409   0.176   4.519   1.768
 1773SOL     OW 7410   0.353   3.813   1.228
 1773SOL    HW2 7411   0.396   3.897   1.248
 1773SOL    HW3 7412   0.426   3.751   1.221
 1773SOL    MW4 7413   0.368   3.816   1.229
 1774SOL     OW 7414   0.394   4.480   0.406
 1774SOL    HW2 7415   0.394   4.575   0.391
 1774SOL    HW3 7416   0.471   4.464   0.460
 1774SOL    MW4 7417   0.404   4.491   0.411
 1775SOL     OW 7418   1.170   4.339   1.470
 1775SOL    HW2 7419   1.206   4.312   1.386
 1775SOL    HW3 7420   1.083   4.373   1.449
 1775SOL    MW4 7421   1.164   4.340   1.457
 1776SOL     OW 7422   0.153   4.211   0.695
 1776SOL    HW2 7423   0.215   4.218   0.768
 1776SOL    HW3 7424   0.153   4.118   0.672
 1776SOL    MW4 7425   0.161   4.200   0.702
 1777SOL     OW 7426   1.700   5.551   0.227
 1777SOL    HW2 7427   1.767   5.584   0.167
 1777SOL    HW3 7428   1.657   5.630   0.261
 1777SOL    MW4 7429   1.702   5.566   0.223
 1778SOL     OW 7430   0.835   4.472   1.179
 1778SOL    HW2 7431   0.793   4.390   1.155
 1778SOL    HW3 7432   0.836   4.471   1.275
 1778SOL    MW4 7433   0.828   4.461   1.188
 1779SOL     OW 7434   1.506   5.605   1.578
 1779SOL    HW2 7435   1.509   5.511   1.561
 1779SOL    HW3 7436   1.529   5.613   1.670
 1779SOL    MW4 7437   1.509   5.593   1.588
 1780SOL     OW 7438   0.639   3.942   1.284
 1780SOL    HW2 7439   0.570   4.005   1.305
 1780SOL    HW3 7440   0.666   3.906   1.369
 1780SOL    MW4 7441   0.633   3.945   1.297
 1781SOL     OW 7442   0.022   4.783   0.153
 1781SOL    HW2 7443  -0.009   4.848   0.216
 1781SOL    HW3 7444  -0.029   4.705   0.172
 1781SOL    MW4 7445   0.012   4.780   0.163
 1782SOL     OW 7446   1.434   3.795   0.901
 1782SOL    HW2 7447   1.522   3.804   0.938
 1782SOL    HW3 7448   1.444   3.736   0.827
 1782SOL    MW4 7449   1.448   3.789   0.895
 1783SOL     OW 7450   1.466   4.534   0.745
 1783SOL    HW2 7451   1.546   4.549   0.694
 1783SOL    HW3 7452   1.459   4.439   0.751
 1783SOL    MW4 7453   1.475   4.523   0.740
 1784SOL     OW 7454   0.606   5.583   0.095
 1784SOL    HW2 7455   0.511   5.583   0.087
 1784SOL    HW3 7456   0.622   5.529   0.173
 1784SOL    MW4 7457   0.596   5.577   0.104
 1785SOL     OW 7458   0.916   4.460   1.442
 1785SOL    HW2 7459   0.985   4.527   1.439
 1785SOL    HW3 7460   0.849   4.498   1.498
 1785SOL    MW4 7461   0.917   4.473   1.449
 1786SOL     OW 7462   0.334   4.760   1.690
 1786SOL    HW2 7463   0.288   4.676   1.692
 1786SOL    HW3 7464   0.391   4.754   1.614
 1786SOL    MW4 7465   0.336   4.748   1.682
 1787SOL     OW 7466   1.451   4.403   0.011
 1787SOL    HW2 7467   1.379   4.379  -0.047
 1787SOL    HW3 7468   1.517   4.440  -0.047
 1787SOL    MW4 7469   1.450   4.405  -0.004
 1788SOL     OW 7470   0.585   5.135   0.691
 1788SOL    HW2 7471   0.650   5.068   0.712
 1788SOL    HW3 7472   0.637   5.212   0.668
 1788SOL    MW4 7473   0.600   5.137   0.690
 1789SOL     OW 7474   0.846   4.300   0.821
 1789SOL    HW2 7475   0.786   4.318   0.893
 1789SOL    HW3 7476   0.880   4.212   0.840
 1789SOL    MW4 7477   0.842   4.290   0.834
 1790SOL     OW 7478   1.787   3.799   1.490
 1790SOL    HW2 7479   1.708   3.845   1.518
 1790SOL    HW3 7480   1.822   3.853   1.419
 1790SOL    MW4 7481   1.781   3.812   1.484
 1791SOL     OW 7482   1.071   4.883   0.840
 1791SOL    HW2 7483   1.163   4.864   0.858
 1791SOL    HW3 7484   1.044   4.813   0.780
 1791SOL    MW4 7485   1.079   4.871   0.834
 1792SOL     OW 7486   0.864   4.703   0.195
 1792SOL    HW2 7487   0.850   4.615   0.160
 1792SOL    HW3 7488   0.815   4.760   0.136
 1792SOL    MW4 7489   0.856   4.698   0.183
 1793SOL     OW 7490   1.345   5.121   0.936
 1793SOL    HW2 7491   1.318   5.205   0.901
 1793SOL    HW3 7492   1.305   5.116   1.023
 1793SOL    MW4 7493   1.338   5.130   0.942
 1794SOL     OW 7494   1.264   5.069   1.204
 1794SOL    HW2 7495   1.275   5.036   1.293
 1794SOL    HW3 7496   1.183   5.028   1.173
 1794SOL    MW4 7497   1.254   5.061   1.210
 1795SOL     OW 7498   0.277   4.427   0.974
 1795SOL    HW2 7499   0.227   4.426   1.055
 1795SOL    HW3 7500   0.297   4.519   0.958
 1795SOL    MW4 7501   0.273   4.439   0.982
 1796SOL     OW 7502   1.344   5.191   1.736
 1796SOL    HW2 7503   1.344   5.285   1.752
 1796SOL    HW3 7504   1.389   5.181   1.652
 1796SOL    MW4 7505   1.350   5.201   1.727
 1797SOL     OW 7506   1.583   3.909   0.297
 1797SOL    HW2 7507   1.576   3.913   0.392
 1797SOL    HW3 7508   1.595   4.000   0.270
 1797SOL    MW4 7509   1.584   3.922   0.305
 1798SOL     OW 7510   0.872   4.472   0.411
 1798SOL    HW2 7511   0.852   4.458   0.318
 1798SOL    HW3 7512   0.965   4.451   0.418
 1798SOL    MW4 7513   0.882   4.467   0.400
 1799SOL     OW 7514   0.199   4.095   1.715
 1799SOL    HW2 7515   0.156   4.154   1.652
 1799SOL    HW3 7516   0.267   4.150   1.755
 1799SOL    MW4 7517   0.203   4.110   1.712
 1800SOL     OW 7518   1.311   4.715   1.260
 1800SOL    HW2 7519   1.374   4.712   1.333
 1800SOL    HW3 7520   1.227   4.733   1.302
 1800SOL    MW4 7521   1.307   4.717   1.275
 1801SOL     OW 7522   0.855   5.430   0.449
 1801SOL    HW2 7523   0.913   5.501   0.476
 1801SOL    HW3 7524   0.878   5.358   0.507
 1801SOL    MW4 7525   0.866   5.430   0.460
 1802SOL     OW 7526   1.650   3.892   1.039
 1802SOL    HW2 7527   1.695   3.810   1.058
 1802SOL    HW3 7528   1.670   3.948   1.115
 1802SOL    MW4 7529   1.660   3.888   1.051
 1803SOL     OW 7530   0.098   3.735   1.138
 1803SOL    HW2 7531   0.089   3.736   1.043
 1803SOL    HW3 7532   0.192   3.747   1.153
 1803SOL    MW4 7533   0.110   3.738   1.129
 1804SOL     OW 7534   1.735   4.928   0.758
 1804SOL    HW2 7535   1.714   4.874   0.681
 1804SOL    HW3 7536   1.831   4.926   0.762
 1804SOL    MW4 7537   1.744   4.921   0.747
 1805SOL     OW 7538   0.427   5.073   1.501
 1805SOL    HW2 7539   0.348   5.023   1.524
 1805SOL    HW3 7540   0.497   5.032   1.551
 1805SOL    MW4 7541   0.425   5.061   1.511
 1806SOL     OW 7542   0.311   3.862   0.184
 1806SOL    HW2 7543   0.240   3.917   0.152
 1806SOL    HW3 7544   0.353   3.828   0.105
 1806SOL    MW4 7545   0.307   3.864   0.170
 1807SOL     OW 7546   1.435   4.359   1.020
 1807SOL    HW2 7547   1.358   4.405   0.986
 1807SOL    HW3 7548   1.492   4.428   1.054
 1807SOL    MW4 7549   1.432   4.374   1.020
 1808SOL     OW 7550   0.067   3.961   0.033
 1808SOL    HW2 7551   0.034   4.040   0.077
 1808SOL    HW3 7552   0.122   3.994  -0.038
 1808SOL    MW4 7553   0.070   3.975   0.030
 1809SOL     OW 7554   0.101   5.218   0.222
 1809SOL    HW2 7555   0.118   5.302   0.264
 1809SOL    HW3 7556   0.136   5.227   0.134
 1809SOL    MW4 7557   0.106   5.231   0.216
 1810SOL     OW 7558   1.373   5.307   0.439
 1810SOL    HW2 7559   1.436   5.297   0.368
 1810SOL    HW3 7560   1.290   5.327   0.394
 1810SOL    MW4 7561   1.370   5.308   0.424
 1811SOL     OW 7562   1.736   4.575   2.125
 1811SOL    HW2 7563   1.777   4.517   2.190
 1811SOL    HW3 7564   1.643   4.567   2.142
 1811SOL    MW4 7565   1.730   4.567   2.135
 1812SOL     OW 7566   1.602   4.507   3.120
 1812SOL    HW2 7567   1.557   4.574   3.171
 1812SOL    HW3 7568   1.690   4.543   3.106
 1812SOL    MW4 7569   1.608   4.520   3.124
 1813SOL     OW 7570   0.530   4.758   2.354
 1813SOL    HW2 7571   0.620   4.733   2.338
 1813SOL    HW3 7572   0.526   4.851   2.331
 1813SOL    MW4 7573   0.542   4.767   2.349
 1814SOL     OW 7574   1.646   5.461   2.496
 1814SOL    HW2 7575   1.658   5.407   2.574
 1814SOL    HW3 7576   1.683   5.409   2.425
 1814SOL    MW4 7577   1.652   5.446   2.497
 1815SOL     OW 7578   1.025   5.346   3.497
 1815SOL    HW2 7579   1.066   5.382   3.418
 1815SOL    HW3 7580   1.060   5.257   3.504
 1815SOL    MW4 7581   1.036   5.339   3.488
 1816SOL     OW 7582   1.582   4.901   3.101
 1816SOL    HW2 7583   1.503   4.866   3.059
 1816SOL    HW3 7584   1.609   4.973   3.045
 1816SOL    MW4 7585   1.575   4.906   3.088
 1817SOL     OW 7586   0.814   4.214   2.367
 1817SOL    HW2 7587   0.789   4.302   2.395
 1817SOL    HW3 7588   0.811   4.217   2.271
 1817SOL    MW4 7589   0.810   4.226   2.359
 1818SOL     OW 7590   0.256   4.242   2.295
 1818SOL    HW2 7591   0.288   4.330   2.277
 1818SOL    HW3 7592   0.244   4.240   2.390
 1818SOL    MW4 7593   0.259   4.254   2.307
 1819SOL     OW 7594   0.334   4.655   3.196
 1819SOL    HW2 7595   0.397   4.602   3.147
 1819SOL    HW3 7596   0.315   4.729   3.139
 1819SOL    MW4 7597   0.340   4.657   3.183
 1820SOL     OW 7598   0.655   3.997   2.382
 1820SOL    HW2 7599   0.713   4.073   2.384
 1820SOL    HW3 7600   0.590   4.018   2.315
 1820SOL    MW4 7601   0.654   4.009   2.373
 1821SOL     OW 7602   0.742   4.924   2.557
 1821SOL    HW2 7603   0.822   4.927   2.609
 1821SOL    HW3 7604   0.770   4.891   2.471
 1821SOL    MW4 7605   0.756   4.920   2.552
 1822SOL     OW 7606   0.767   5.265   3.460
 1822SOL    HW2 7607   0.851   5.291   3.499
 1822SOL    HW3 7608   0.791   5.209   3.386
 1822SOL    MW4 7609   0.781   5.261   3.455
 1823SOL     OW 7610   0.519   4.428   2.548
 1823SOL    HW2 7611   0.504   4.348   2.599
 1823SOL    HW3 7612   0.601   4.463   2.582
 1823SOL    MW4 7613   0.527   4.420   2.560
 1824SOL     OW 7614   0.856   5.114   3.233
 1824SOL    HW2 7615   0.820   5.180   3.173
 1824SOL    HW3 7616   0.784   5.052   3.246
 1824SOL    MW4 7617   0.842   5.114   3.227
 1825SOL     OW 7618   0.661   4.254   2.925
 1825SOL    HW2 7619   0.567   4.250   2.943
 1825SOL    HW3 7620   0.691   4.163   2.934
 1825SOL    MW4 7621   0.652   4.242   2.928
 1826SOL     OW 7622   0.407   4.668   2.829
 1826SOL    HW2 7623   0.362   4.675   2.745
 1826SOL    HW3 7624   0.387   4.751   2.873
 1826SOL    MW4 7625   0.399   4.680   2.823
 1827SOL     OW 7626   0.104   5.514   2.704
 1827SOL    HW2 7627   0.193   5.506   2.739
 1827SOL    HW3 7628   0.068   5.426   2.709
 1827SOL    MW4 7629   0.111   5.501   2.709
 1828SOL     OW 7630   1.369   4.906   2.073
 1828SOL    HW2 7631   1.287   4.942   2.039
 1828SOL    HW3 7632   1.437   4.949   2.022
 1828SOL    MW4 7633   1.367   4.916   2.061
 1829SOL     OW 7634   0.368   5.041   2.739
 1829SOL    HW2 7635   0.344   5.094   2.815
 1829SOL    HW3 7636   0.424   5.099   2.687
 1829SOL    MW4 7637   0.372   5.056   2.742
 1830SOL     OW 7638   0.930   4.685   2.549
 1830SOL    HW2 7639   0.844   4.672   2.589
 1830SOL    HW3 7640   0.983   4.612   2.581
 1830SOL    MW4 7641   0.926   4.674   2.558
 1831SOL     OW 7642   0.338   5.337   3.334
 1831SOL    HW2 7643   0.246   5.313   3.319
 1831SOL    HW3 7644   0.382   5.254   3.351
 1831SOL    MW4 7645   0.332   5.322   3.333
 1832SOL     OW 7646   0.921   5.047   2.266
 1832SOL    HW2 7647   0.898   5.109   2.334
 1832SOL    HW3 7648   0.878   4.965   2.292
 1832SOL    MW4 7649   0.913   5.043   2.277
 1833SOL     OW 7650   1.794   4.048   2.722
 1833SOL    HW2 7651   1.731   4.028   2.791
 1833SOL    HW3 7652   1.784   3.977   2.659
 1833SOL    MW4 7653   1.784   4.035   2.723
 1834SOL     OW 7654   0.418   4.020   2.234
 1834SOL    HW2 7655   0.392   3.982   2.150
 1834SOL    HW3 7656   0.355   4.090   2.250
 1834SOL    MW4 7657   0.407   4.023   2.225
 1835SOL     OW 7658   0.253   4.981   2.271
 1835SOL    HW2 7659   0.201   5.049   2.227
 1835SOL    HW3 7660   0.250   4.907   2.211
 1835SOL    MW4 7661   0.245   4.980   2.258
 1836SOL     OW 7662   0.915   5.444   2.049
 1836SOL    HW2 7663   0.870   5.460   2.132
 1836SOL    HW3 7664   0.846   5.409   1.991
 1836SOL    MW4 7665   0.901   5.441   2.051
 1837SOL     OW 7666   1.850   4.217   2.024
 1837SOL    HW2 7667   1.759   4.219   2.052
 1837SOL    HW3 7668   1.895   4.279   2.082
 1837SOL    MW4 7669   1.843   4.225   2.034
 1838SOL     OW 7670   1.595   4.820   2.374
 1838SOL    HW2 7671   1.505   4.820   2.409
 1838SOL    HW3 7672   1.588   4.866   2.291
 1838SOL    MW4 7673   1.582   4.826   2.368
 1839SOL     OW 7674   1.395   4.455   3.446
 1839SOL    HW2 7675   1.464   4.393   3.423
 1839SOL    HW3 7676   1.320   4.429   3.393
 1839SOL    MW4 7677   1.395   4.442   3.437
 1840SOL     OW 7678   0.136   5.335   2.998
 1840SOL    HW2 7679   0.119   5.281   3.075
 1840SOL    HW3 7680   0.124   5.425   3.028
 1840SOL    MW4 7681   0.133   5.339   3.012
 1841SOL     OW 7682   1.131   4.842   3.438
 1841SOL    HW2 7683   1.116   4.935   3.423
 1841SOL    HW3 7684   1.226   4.832   3.438
 1841SOL    MW4 7685   1.140   4.852   3.435
 1842SOL     OW 7686   0.927   4.266   3.639
 1842SOL    HW2 7687   1.017   4.267   3.606
 1842SOL    HW3 7688   0.886   4.191   3.597
 1842SOL    MW4 7689   0.933   4.256   3.630
 1843SOL     OW 7690   1.502   4.798   2.766
 1843SOL    HW2 7691   1.505   4.732   2.697
 1843SOL    HW3 7692   1.587   4.841   2.762
 1843SOL    MW4 7693   1.514   4.794   2.757
 1844SOL     OW 7694   1.122   4.401   2.335
 1844SOL    HW2 7695   1.148   4.425   2.246
 1844SOL    HW3 7696   1.104   4.308   2.331
 1844SOL    MW4 7697   1.124   4.393   2.322
 1845SOL     OW 7698   1.787   5.021   2.186
 1845SOL    HW2 7699   1.743   5.062   2.261
 1845SOL    HW3 7700   1.844   5.089   2.151
 1845SOL    MW4 7701   1.789   5.035   2.191
 1846SOL     OW 7702   0.707   4.070   3.589
 1846SOL    HW2 7703   0.717   3.996   3.529
 1846SOL    HW3 7704   0.743   4.039   3.672
 1846SOL    MW4 7705   0.713   4.056   3.591
 1847SOL     OW 7706   0.443   5.437   2.504
 1847SOL    HW2 7707   0.475   5.525   2.482
 1847SOL    HW3 7708   0.396   5.409   2.426
 1847SOL    MW4 7709   0.442   5.445   2.491
 1848SOL     OW 7710   1.827   3.799   2.553
 1848SOL    HW2 7711   1.881   3.750   2.615
 1848SOL    HW3 7712   1.770   3.733   2.514
 1848SOL    MW4 7713   1.827   3.783   2.555
 1849SOL     OW 7714   0.159   5.497   2.081
 1849SOL    HW2 7715   0.188   5.587   2.073
 1849SOL    HW3 7716   0.109   5.480   2.002
 1849SOL    MW4 7717   0.157   5.505   2.070
 1850SOL     OW 7718   0.946   3.752   2.966
 1850SOL    HW2 7719   0.905   3.830   2.928
 1850SOL    HW3 7720   1.040   3.770   2.961
 1850SOL    MW4 7721   0.952   3.764   2.961
 1851SOL     OW 7722   1.563   5.305   2.052
 1851SOL    HW2 7723   1.611   5.374   2.098
 1851SOL    HW3 7724   1.484   5.349   2.021
 1851SOL    MW4 7725   1.558   5.319   2.055
 1852SOL     OW 7726   0.961   4.430   1.996
 1852SOL    HW2 7727   0.963   4.377   1.917
 1852SOL    HW3 7728   1.049   4.467   2.002
 1852SOL    MW4 7729   0.973   4.429   1.985
 1853SOL     OW 7730   1.575   4.356   2.332
 1853SOL    HW2 7731   1.614   4.356   2.419
 1853SOL    HW3 7732   1.516   4.432   2.332
 1853SOL    MW4 7733   1.572   4.367   2.343
 1854SOL     OW 7734   0.892   4.723   3.461
 1854SOL    HW2 7735   0.869   4.703   3.551
 1854SOL    HW3 7736   0.977   4.767   3.466
 1854SOL    MW4 7737   0.899   4.726   3.473
 1855SOL     OW 7738   0.972   3.860   3.221
 1855SOL    HW2 7739   0.978   3.822   3.134
 1855SOL    HW3 7740   0.961   3.954   3.206
 1855SOL    MW4 7741   0.973   3.868   3.209
 1856SOL     OW 7742   1.061   4.349   3.055
 1856SOL    HW2 7743   1.136   4.378   3.002
 1856SOL    HW3 7744   0.993   4.414   3.039
 1856SOL    MW4 7745   1.062   4.361   3.045
 1857SOL     OW 7746   1.611   4.317   3.332
 1857SOL    HW2 7747   1.592   4.226   3.311
 1857SOL    HW3 7748   1.589   4.366   3.253
 1857SOL    MW4 7749   1.606   4.310   3.319
 1858SOL     OW 7750   1.753   5.411   3.236
 1858SOL    HW2 7751   1.681   5.373   3.287
 1858SOL    HW3 7752   1.770   5.496   3.277
 1858SOL    MW4 7753   1.747   5.416   3.248
 1859SOL     OW 7754   1.058   4.055   3.438
 1859SOL    HW2 7755   1.024   4.094   3.357
 1859SOL    HW3 7756   1.036   3.963   3.431
 1859SOL    MW4 7757   1.051   4.048   3.428
 1860SOL     OW 7758   1.467   4.869   3.514
 1860SOL    HW2 7759   1.549   4.910   3.544
 1860SOL    HW3 7760   1.430   4.831   3.594
 1860SOL    MW4 7761   1.473   4.870   3.529
 1861SOL     OW 7762   1.762   4.242   2.498
 1861SOL    HW2 7763   1.851   4.211   2.515
 1861SOL    HW3 7764   1.705   4.182   2.546
 1861SOL    MW4 7765   1.765   4.230   2.507
 1862SOL     OW 7766   0.188   3.956   2.527
 1862SOL    HW2 7767   0.179   3.896   2.453
 1862SOL    HW3 7768   0.121   3.927   2.590
 1862SOL    MW4 7769   0.178   3.943   2.525
 1863SOL     OW 7770   1.131   5.049   2.088
 1863SOL    HW2 7771   1.081   5.051   2.170
 1863SOL    HW3 7772   1.065   5.067   2.020
 1863SOL    MW4 7773   1.117   5.051   2.090
 1864SOL     OW 7774   0.135   4.129   2.890
 1864SOL    HW2 7775   0.107   4.220   2.899
 1864SOL    HW3 7776   0.072   4.090   2.829
 1864SOL    MW4 7777   0.122   4.135   2.884
 1865SOL     OW 7778   0.594   5.467   2.196
 1865SOL    HW2 7779   0.515   5.425   2.229
 1865SOL    HW3 7780   0.660   5.450   2.263
 1865SOL    MW4 7781   0.593   5.459   2.209
 1866SOL     OW 7782   1.722   4.987   3.593
 1866SOL    HW2 7783   1.772   4.913   3.625
 1866SOL    HW3 7784   1.668   5.014   3.668
 1866SOL    MW4 7785   1.722   4.981   3.606
 1867SOL     OW 7786   0.730   4.882   1.903
 1867SOL    HW2 7787   0.652   4.828   1.890
 1867SOL    HW3 7788   0.701   4.955   1.956
 1867SOL    MW4 7789   0.716   4.884   1.908
 1868SOL     OW 7790   1.856   4.622   3.095
 1868SOL    HW2 7791   1.872   4.660   3.008
 1868SOL    HW3 7792   1.890   4.688   3.156
 1868SOL    MW4 7793   1.863   4.635   3.091
 1869SOL     OW 7794   1.648   5.331   2.764
 1869SOL    HW2 7795   1.677   5.398   2.825
 1869SOL    HW3 7796   1.629   5.255   2.819
 1869SOL    MW4 7797   1.650   5.331   2.779
 1870SOL     OW 7798   1.311   5.398   1.971
 1870SOL    HW2 7799   1.237   5.361   2.021
 1870SOL    HW3 7800   1.319   5.488   2.004
 1870SOL    MW4 7801   1.302   5.405   1.983
 1871SOL     OW 7802   0.119   4.404   3.060
 1871SOL    HW2 7803   0.181   4.434   3.126
 1871SOL    HW3 7804   0.053   4.473   3.054
 1871SOL    MW4 7805   0.118   4.417   3.067
 1872SOL     OW 7806   1.535   5.072   1.913
 1872SOL    HW2 7807   1.482   5.121   1.849
 1872SOL    HW3 7808   1.566   5.138   1.974
 1872SOL    MW4 7809   1.533   5.086   1.911
 1873SOL     OW 7810   0.760   3.961   1.968
 1873SOL    HW2 7811   0.708   3.881   1.956
 1873SOL    HW3 7812   0.847   3.938   1.936
 1873SOL    MW4 7813   0.763   3.947   1.962
 1874SOL     OW 7814   0.214   5.513   3.512
 1874SOL    HW2 7815   0.188   5.581   3.450
 1874SOL    HW3 7816   0.262   5.450   3.460
 1874SOL    MW4 7817   0.216   5.513   3.498
 1875SOL     OW 7818   0.266   4.832   3.019
 1875SOL    HW2 7819   0.319   4.907   3.044
 1875SOL    HW3 7820   0.185   4.870   2.985
 1875SOL    MW4 7821   0.262   4.847   3.019
 1876SOL     OW 7822   0.806   4.736   3.007
 1876SOL    HW2 7823   0.834   4.645   3.019
 1876SOL    HW3 7824   0.735   4.730   2.943
 1876SOL    MW4 7825   0.799   4.724   3.002
 1877SOL     OW 7826   0.121   4.601   2.425
 1877SOL    HW2 7827   0.212   4.616   2.452
 1877SOL    HW3 7828   0.124   4.522   2.371
 1877SOL    MW4 7829   0.133   4.593   2.423
 1878SOL     OW 7830   0.357   4.309   3.679
 1878SOL    HW2 7831   0.304   4.389   3.686
 1878SOL    HW3 7832   0.427   4.321   3.744
 1878SOL    MW4 7833   0.359   4.322   3.687
 1879SOL     OW 7834   0.743   3.859   3.386
 1879SOL    HW2 7835   0.720   3.767   3.388
 1879SOL    HW3 7836   0.829   3.861   3.343
 1879SOL    MW4 7837   0.750   3.849   3.382
 1880SOL     OW 7838   0.427   4.383   3.425
 1880SOL    HW2 7839   0.507   4.433   3.411
 1880SOL    HW3 7840   0.418   4.377   3.520
 1880SOL    MW4 7841   0.436   4.389   3.435
 1881SOL     OW 7842   0.748   5.533   2.799
 1881SOL    HW2 7843   0.837   5.548   2.829
 1881SOL    HW3 7844   0.743   5.580   2.715
 1881SOL    MW4 7845   0.758   5.541   2.792
 1882SOL     OW 7846   1.404   3.908   3.696
 1882SOL    HW2 7847   1.460   3.835   3.722
 1882SOL    HW3 7848   1.374   3.946   3.778
 1882SOL    MW4 7849   1.408   3.903   3.709
 1883SOL     OW 7850   0.129   5.213   2.464
 1883SOL    HW2 7851   0.101   5.252   2.546
 1883SOL    HW3 7852   0.149   5.122   2.486
 1883SOL    MW4 7853   0.127   5.205   2.477
 1884SOL     OW 7854   0.962   5.256   2.499
 1884SOL    HW2 7855   1.045   5.210   2.483
 1884SOL    HW3 7856   0.952   5.255   2.595
 1884SOL    MW4 7857   0.972   5.249   2.509
 1885SOL     OW 7858   1.794   4.401   2.813
 1885SOL    HW2 7859   1.883   4.431   2.795
 1885SOL    HW3 7860   1.774   4.341   2.742
 1885SOL    MW4 7861   1.803   4.398   2.802
 1886SOL     OW 7862   1.645   4.580   3.693
 1886SOL    HW2 7863   1.700   4.504   3.674
 1886SOL    HW3 7864   1.647   4.588   3.788
 1886SOL    MW4 7865   1.653   4.571   3.701
 1887SOL     OW 7866   0.695   5.313   1.904
 1887SOL    HW2 7867   0.635   5.382   1.874
 1887SOL    HW3 7868   0.640   5.255   1.957
 1887SOL    MW4 7869   0.679   5.315   1.906
 1888SOL     OW 7870   1.133   3.958   2.127
 1888SOL    HW2 7871   1.066   3.934   2.064
 1888SOL    HW3 7872   1.198   4.007   2.076
 1888SOL    MW4 7873   1.133   3.960   2.112
 1889SOL     OW 7874   0.940   4.142   3.212
 1889SOL    HW2 7875   0.859   4.183   3.240
 1889SOL    HW3 7876   0.987   4.210   3.164
 1889SOL    MW4 7877   0.935   4.157   3.210
 1890SOL     OW 7878   1.200   4.480   2.835
 1890SOL    HW2 7879   1.213   4.574   2.845
 1890SOL    HW3 7880   1.161   4.470   2.749
 1890SOL    MW4 7881   1.196   4.491   2.825
 1891SOL     OW 7882   0.652   4.675   2.639
 1891SOL    HW2 7883   0.563   4.666   2.672
 1891SOL    HW3 7884   0.656   4.765   2.607
 1891SOL    MW4 7885   0.641   4.686   2.639
 1892SOL     OW 7886   1.451   4.258   2.634
 1892SOL    HW2 7887   1.396   4.179   2.633
 1892SOL    HW3 7888   1.433   4.299   2.718
 1892SOL    MW4 7889   1.441   4.253   2.643
 1893SOL     OW 7890   0.422   3.945   3.451
 1893SOL    HW2 7891   0.343   3.963   3.503
 1893SOL    HW3 7892   0.417   4.007   3.378
 1893SOL    MW4 7893   0.412   3.955   3.448
 1894SOL     OW 7894   1.070   4.462   2.591
 1894SOL    HW2 7895   1.007   4.394   2.615
 1894SOL    HW3 7896   1.090   4.443   2.499
 1894SOL    MW4 7897   1.064   4.449   2.583
 1895SOL     OW 7898   0.326   5.357   2.293
 1895SOL    HW2 7899   0.287   5.404   2.219
 1895SOL    HW3 7900   0.260   5.292   2.318
 1895SOL    MW4 7901   0.313   5.355   2.287
 1896SOL     OW 7902   0.818   4.766   2.317
 1896SOL    HW2 7903   0.820   4.740   2.224
 1896SOL    HW3 7904   0.876   4.703   2.360
 1896SOL    MW4 7905   0.826   4.755   2.311
 1897SOL     OW 7906   1.371   5.326   3.089
 1897SOL    HW2 7907   1.296   5.372   3.127
 1897SOL    HW3 7908   1.353   5.233   3.106
 1897SOL    MW4 7909   1.360   5.320   3.097
 1898SOL     OW 7910   1.375   5.534   2.519
 1898SOL    HW2 7911   1.318   5.487   2.458
 1898SOL    HW3 7912   1.461   5.495   2.506
 1898SOL    MW4 7913   1.378   5.525   2.509
 1899SOL     OW 7914   1.328   4.010   2.650
 1899SOL    HW2 7915   1.356   3.942   2.711
 1899SOL    HW3 7916   1.242   3.981   2.620
 1899SOL    MW4 7917   1.321   3.997   2.654
 1900SOL     OW 7918   0.133   4.944   2.584
 1900SOL    HW2 7919   0.197   4.976   2.647
 1900SOL    HW3 7920   0.182   4.880   2.532
 1900SOL    MW4 7921   0.148   4.940   2.585
 1901SOL     OW 7922   0.633   5.020   3.566
 1901SOL    HW2 7923   0.681   5.103   3.553
 1901SOL    HW3 7924   0.690   4.968   3.622
 1901SOL    MW4 7925   0.647   5.024   3.572
 1902SOL     OW 7926   0.209   5.262   3.706
 1902SOL    HW2 7927   0.265   5.186   3.721
 1902SOL    HW3 7928   0.158   5.240   3.628
 1902SOL    MW4 7929   0.209   5.249   3.697
 1903SOL     OW 7930   1.308   4.114   1.985
 1903SOL    HW2 7931   1.281   4.180   1.921
 1903SOL    HW3 7932   1.378   4.157   2.035
 1903SOL    MW4 7933   1.313   4.127   1.982
 1904SOL     OW 7934   0.976   3.819   1.922
 1904SOL    HW2 7935   1.032   3.811   1.844
 1904SOL    HW3 7936   0.953   3.729   1.944
 1904SOL    MW4 7937   0.981   3.806   1.915
 1905SOL     OW 7938   1.481   4.670   2.127
 1905SOL    HW2 7939   1.448   4.759   2.117
 1905SOL    HW3 7940   1.446   4.641   2.212
 1905SOL    MW4 7941   1.471   4.679   2.138
 1906SOL     OW 7942   1.094   5.099   3.315
 1906SOL    HW2 7943   1.005   5.105   3.283
 1906SOL    HW3 7944   1.138   5.178   3.283
 1906SOL    MW4 7945   1.089   5.109   3.307
 1907SOL     OW 7946   0.387   3.767   3.657
 1907SOL    HW2 7947   0.315   3.732   3.605
 1907SOL    HW3 7948   0.445   3.808   3.592
 1907SOL    MW4 7949   0.385   3.768   3.642
 1908SOL     OW 7950   0.411   5.257   2.956
 1908SOL    HW2 7951   0.456   5.319   3.013
 1908SOL    HW3 7952   0.318   5.276   2.969
 1908SOL    MW4 7953   0.404   5.267   2.963
 1909SOL     OW 7954   1.851   4.786   3.310
 1909SOL    HW2 7955   1.766   4.799   3.269
 1909SOL    HW3 7956   1.831   4.750   3.397
 1909SOL    MW4 7957   1.838   4.782   3.315
 1910SOL     OW 7958   0.833   5.325   3.064
 1910SOL    HW2 7959   0.857   5.314   2.973
 1910SOL    HW3 7960   0.756   5.382   3.062
 1910SOL    MW4 7961   0.825   5.330   3.053
 1911SOL     OW 7962   0.475   4.708   1.919
 1911SOL    HW2 7963   0.398   4.721   1.975
 1911SOL    HW3 7964   0.439   4.672   1.838
 1911SOL    MW4 7965   0.461   4.704   1.916
 1912SOL     OW 7966   1.128   4.681   2.162
 1912SOL    HW2 7967   1.038   4.702   2.137
 1912SOL    HW3 7968   1.155   4.754   2.218
 1912SOL    MW4 7969   1.120   4.693   2.165
 1913SOL     OW 7970   0.628   5.030   2.854
 1913SOL    HW2 7971   0.621   5.009   2.948
 1913SOL    HW3 7972   0.546   4.998   2.817
 1913SOL    MW4 7973   0.616   5.024   2.861
 1914SOL     OW 7974   1.492   4.040   3.256
 1914SOL    HW2 7975   1.439   4.042   3.336
 1914SOL    HW3 7976   1.477   3.953   3.219
 1914SOL    MW4 7977   1.484   4.030   3.261
 1915SOL     OW 7978   1.828   3.964   3.129
 1915SOL    HW2 7979   1.809   4.031   3.064
 1915SOL    HW3 7980   1.885   3.902   3.084
 1915SOL    MW4 7981   1.832   3.965   3.115
 1916SOL     OW 7982   0.074   5.122   3.517
 1916SOL    HW2 7983   0.118   5.055   3.463
 1916SOL    HW3 7984  -0.011   5.084   3.537
 1916SOL    MW4 7985   0.069   5.108   3.513
 1917SOL     OW 7986   0.757   3.797   2.569
 1917SOL    HW2 7987   0.686   3.858   2.551
 1917SOL    HW3 7988   0.808   3.794   2.488
 1917SOL    MW4 7989   0.753   3.803   2.556
 1918SOL     OW 7990   0.515   5.037   2.318
 1918SOL    HW2 7991   0.508   5.069   2.408
 1918SOL    HW3 7992   0.425   5.021   2.290
 1918SOL    MW4 7993   0.503   5.039   2.325
 1919SOL     OW 7994   1.110   5.430   3.227
 1919SOL    HW2 7995   1.030   5.415   3.177
 1919SOL    HW3 7996   1.117   5.525   3.234
 1919SOL    MW4 7997   1.101   5.441   3.221
 1920SOL     OW 7998   1.224   5.395   2.717
 1920SOL    HW2 7999   1.271   5.468   2.676
 1920SOL    HW3 8000   1.145   5.434   2.753
 1920SOL    MW4 8001   1.219   5.410   2.716
 1921SOL     OW 8002   1.632   5.490   2.992
 1921SOL    HW2 8003   1.675   5.460   3.072
 1921SOL    HW3 8004   1.551   5.438   2.989
 1921SOL    MW4 8005   1.627   5.479   3.002
 1922SOL     OW 8006   0.717   4.454   3.699
 1922SOL    HW2 8007   0.787   4.396   3.671
 1922SOL    HW3 8008   0.660   4.399   3.754
 1922SOL    MW4 8009   0.719   4.441   3.703
 1923SOL     OW 8010   1.504   4.666   3.332
 1923SOL    HW2 8011   1.509   4.719   3.412
 1923SOL    HW3 8012   1.466   4.583   3.360
 1923SOL    MW4 8013   1.500   4.661   3.347
 1924SOL     OW 8014   1.144   3.801   3.578
 1924SOL    HW2 8015   1.139   3.708   3.559
 1924SOL    HW3 8016   1.227   3.812   3.624
 1924SOL    MW4 8017   1.152   3.790   3.582
 1925SOL     OW 8018   0.518   4.321   2.032
 1925SOL    HW2 8019   0.484   4.377   2.102
 1925SOL    HW3 8020   0.589   4.271   2.072
 1925SOL    MW4 8021   0.524   4.322   2.046
 1926SOL     OW 8022   1.614   5.072   2.854
 1926SOL    HW2 8023   1.649   5.054   2.767
 1926SOL    HW3 8024   1.519   5.073   2.841
 1926SOL    MW4 8025   1.606   5.069   2.841
 1927SOL     OW 8026   1.043   4.720   3.223
 1927SOL    HW2 8027   1.086   4.755   3.301
 1927SOL    HW3 8028   1.026   4.797   3.169
 1927SOL    MW4 8029   1.046   4.735   3.226
 1928SOL     OW 8030   1.574   4.207   2.096
 1928SOL    HW2 8031   1.566   4.278   2.033
 1928SOL    HW3 8032   1.592   4.251   2.179
 1928SOL    MW4 8033   1.575   4.221   2.098
 1929SOL     OW 8034   0.434   3.862   2.525
 1929SOL    HW2 8035   0.484   3.905   2.456
 1929SOL    HW3 8036   0.349   3.906   2.525
 1929SOL    MW4 8037   0.431   3.875   2.516
 1930SOL     OW 8038   0.193   4.924   3.385
 1930SOL    HW2 8039   0.221   4.877   3.463
 1930SOL    HW3 8040   0.114   4.879   3.356
 1930SOL    MW4 8041   0.186   4.913   3.391
 1931SOL     OW 8042   0.701   4.251   3.352
 1931SOL    HW2 8043   0.673   4.339   3.376
 1931SOL    HW3 8044   0.670   4.195   3.423
 1931SOL    MW4 8045   0.693   4.254   3.364
 1932SOL     OW 8046   1.243   4.469   2.071
 1932SOL    HW2 8047   1.290   4.487   1.990
 1932SOL    HW3 8048   1.209   4.553   2.099
 1932SOL    MW4 8049   1.245   4.483   2.064
 1933SOL     OW 8050   0.356   4.647   2.565
 1933SOL    HW2 8051   0.414   4.703   2.513
 1933SOL    HW3 8052   0.400   4.562   2.567
 1933SOL    MW4 8053   0.369   4.644   2.558
 1934SOL     OW 8054   1.496   3.999   2.402
 1934SOL    HW2 8055   1.418   3.949   2.427
 1934SOL    HW3 8056   1.467   4.090   2.402
 1934SOL    MW4 8057   1.482   4.003   2.405
 1935SOL     OW 8058   1.082   3.961   2.561
 1935SOL    HW2 8059   1.102   4.036   2.505
 1935SOL    HW3 8060   1.062   4.000   2.646
 1935SOL    MW4 8061   1.083   3.977   2.565
 1936SOL     OW 8062   0.978   5.211   1.893
 1936SOL    HW2 8063   1.005   5.289   1.845
 1936SOL    HW3 8064   0.885   5.226   1.912
 1936SOL    MW4 8065   0.969   5.224   1.889
 1937SOL     OW 8066   1.842   4.734   3.580
 1937SOL    HW2 8067   1.755   4.714   3.616
 1937SOL    HW3 8068   1.896   4.660   3.605
 1937SOL    MW4 8069   1.837   4.723   3.588
 1938SOL     OW 8070   0.063   5.247   2.737
 1938SOL    HW2 8071   0.095   5.251   2.828
 1938SOL    HW3 8072  -0.032   5.255   2.745
 1938SOL    MW4 8073   0.055   5.250   2.750
 1939SOL     OW 8074   0.018   4.373   2.284
 1939SOL    HW2 8075  -0.042   4.345   2.354
 1939SOL    HW3 8076   0.092   4.313   2.290
 1939SOL    MW4 8077   0.020   4.362   2.293
 1940SOL     OW 8078   1.586   5.585   3.718
 1940SOL    HW2 8079   1.631   5.509   3.683
 1940SOL    HW3 8080   1.624   5.598   3.805
 1940SOL    MW4 8081   1.596   5.578   3.724
 1941SOL     OW 8082   1.186   5.104   2.444
 1941SOL    HW2 8083   1.209   5.055   2.522
 1941SOL    HW3 8084   1.267   5.146   2.416
 1941SOL    MW4 8085   1.199   5.104   2.451
 1942SOL     OW 8086   0.444   4.112   3.173
 1942SOL    HW2 8087   0.477   4.193   3.213
 1942SOL    HW3 8088   0.417   4.138   3.085
 1942SOL    MW4 8089   0.443   4.126   3.167
 1943SOL     OW 8090   0.398   4.079   2.909
 1943SOL    HW2 8091   0.428   3.993   2.880
 1943SOL    HW3 8092   0.303   4.072   2.912
 1943SOL    MW4 8093   0.390   4.068   2.907
 1944SOL     OW 8094   1.227   4.288   3.600
 1944SOL    HW2 8095   1.279   4.223   3.553
 1944SOL    HW3 8096   1.185   4.339   3.530
 1944SOL    MW4 8097   1.228   4.285   3.583
 1945SOL     OW 8098   1.326   4.083   3.461
 1945SOL    HW2 8099   1.233   4.067   3.448
 1945SOL    HW3 8100   1.352   4.021   3.529
 1945SOL    MW4 8101   1.316   4.073   3.468
 1946SOL     OW 8102   0.541   3.857   2.800
 1946SOL    HW2 8103   0.551   3.766   2.826
 1946SOL    HW3 8104   0.497   3.853   2.715
 1946SOL    MW4 8105   0.537   3.845   2.792
 1947SOL     OW 8106   0.635   5.472   3.346
 1947SOL    HW2 8107   0.552   5.457   3.391
 1947SOL    HW3 8108   0.694   5.405   3.381
 1947SOL    MW4 8109   0.633   5.462   3.356
 1948SOL     OW 8110   1.692   4.179   2.971
 1948SOL    HW2 8111   1.625   4.212   3.031
 1948SOL    HW3 8112   1.735   4.257   2.937
 1948SOL    MW4 8113   1.690   4.194   2.975
 1949SOL     OW 8114   1.870   4.899   2.941
 1949SOL    HW2 8115   1.863   4.839   2.866
 1949SOL    HW3 8116   1.796   4.959   2.930
 1949SOL    MW4 8117   1.860   4.899   2.930
 1950SOL     OW 8118   1.252   4.761   2.859
 1950SOL    HW2 8119   1.266   4.733   2.950
 1950SOL    HW3 8120   1.338   4.792   2.831
 1950SOL    MW4 8121   1.265   4.762   2.868
 1951SOL     OW 8122   1.335   4.256   3.138
 1951SOL    HW2 8123   1.356   4.257   3.045
 1951SOL    HW3 8124   1.380   4.178   3.171
 1951SOL    MW4 8125   1.342   4.246   3.130
 1952SOL     OW 8126   1.828   4.387   3.680
 1952SOL    HW2 8127   1.865   4.332   3.749
 1952SOL    HW3 8128   1.853   4.344   3.598
 1952SOL    MW4 8129   1.835   4.375   3.679
 1953SOL     OW 8130   1.375   4.685   3.731
 1953SOL    HW2 8131   1.441   4.633   3.685
 1953SOL    HW3 8132   1.395   4.672   3.824
 1953SOL    MW4 8133   1.386   4.676   3.738
 1954SOL     OW 8134   1.326   3.771   2.080
 1954SOL    HW2 8135   1.400   3.815   2.123
 1954SOL    HW3 8136   1.250   3.825   2.102
 1954SOL    MW4 8137   1.326   3.783   2.088
 1955SOL     OW 8138   1.386   4.546   2.358
 1955SOL    HW2 8139   1.301   4.516   2.328
 1955SOL    HW3 8140   1.378   4.553   2.453
 1955SOL    MW4 8141   1.374   4.544   2.367
 1956SOL     OW 8142   0.462   5.009   3.089
 1956SOL    HW2 8143   0.474   5.036   3.180
 1956SOL    HW3 8144   0.443   5.090   3.042
 1956SOL    MW4 8145   0.461   5.024   3.094
 1957SOL     OW 8146   0.746   3.989   2.912
 1957SOL    HW2 8147   0.719   3.991   3.003
 1957SOL    HW3 8148   0.676   3.941   2.867
 1957SOL    MW4 8149   0.734   3.985   2.919
 1958SOL     OW 8150   0.600   5.481   3.074
 1958SOL    HW2 8151   0.652   5.558   3.051
 1958SOL    HW3 8152   0.609   5.473   3.169
 1958SOL    MW4 8153   0.609   5.488   3.085
 1959SOL     OW 8154   1.502   5.066   3.306
 1959SOL    HW2 8155   1.487   4.995   3.369
 1959SOL    HW3 8156   1.548   5.024   3.234
 1959SOL    MW4 8157   1.508   5.050   3.306
 1960SOL     OW 8158   0.576   4.797   3.423
 1960SOL    HW2 8159   0.613   4.802   3.335
 1960SOL    HW3 8160   0.615   4.870   3.470
 1960SOL    MW4 8161   0.586   4.807   3.418
 1961SOL     OW 8162   0.756   4.840   3.235
 1961SOL    HW2 8163   0.815   4.786   3.288
 1961SOL    HW3 8164   0.771   4.812   3.145
 1961SOL    MW4 8165   0.766   4.829   3.231
 1962SOL     OW 8166   0.759   4.212   2.084
 1962SOL    HW2 8167   0.832   4.261   2.047
 1962SOL    HW3 8168   0.775   4.121   2.058
 1962SOL    MW4 8169   0.771   4.207   2.077
 1963SOL     OW 8170   1.567   5.329   3.407
 1963SOL    HW2 8171   1.609   5.314   3.492
 1963SOL    HW3 8172   1.558   5.242   3.369
 1963SOL    MW4 8173   1.571   5.317   3.414
 1964SOL     OW 8174   1.227   3.808   2.998
 1964SOL    HW2 8175   1.282   3.817   2.920
 1964SOL    HW3 8176   1.282   3.842   3.069
 1964SOL    MW4 8177   1.241   3.813   2.997
 1965SOL     OW 8178   0.234   4.721   2.182
 1965SOL    HW2 8179   0.171   4.737   2.111
 1965SOL    HW3 8180   0.181   4.684   2.253
 1965SOL    MW4 8181   0.219   4.718   2.182
 1966SOL     OW 8182   0.590   5.075   2.041
 1966SOL    HW2 8183   0.605   5.051   2.133
 1966SOL    HW3 8184   0.498   5.053   2.025
 1966SOL    MW4 8185   0.580   5.068   2.051
 1967SOL     OW 8186   1.129   5.306   2.193
 1967SOL    HW2 8187   1.137   5.224   2.144
 1967SOL    HW3 8188   1.048   5.345   2.160
 1967SOL    MW4 8189   1.119   5.301   2.183
 1968SOL     OW 8190   0.388   5.464   2.762
 1968SOL    HW2 8191   0.392   5.375   2.797
 1968SOL    HW3 8192   0.414   5.455   2.671
 1968SOL    MW4 8193   0.391   5.452   2.754
 1969SOL     OW 8194   1.005   4.942   3.005
 1969SOL    HW2 8195   0.937   4.876   3.021
 1969SOL    HW3 8196   1.023   4.936   2.912
 1969SOL    MW4 8197   0.998   4.933   2.996
 1970SOL     OW 8198   0.094   5.217   3.256
 1970SOL    HW2 8199   0.084   5.175   3.342
 1970SOL    HW3 8200   0.015   5.270   3.246
 1970SOL    MW4 8201   0.083   5.218   3.267
 1971SOL     OW 8202   0.998   4.081   2.826
 1971SOL    HW2 8203   0.928   4.033   2.871
 1971SOL    HW3 8204   1.030   4.144   2.890
 1971SOL    MW4 8205   0.993   4.083   2.840
 1972SOL     OW 8206   0.649   4.517   3.446
 1972SOL    HW2 8207   0.642   4.612   3.434
 1972SOL    HW3 8208   0.658   4.506   3.541
 1972SOL    MW4 8209   0.650   4.529   3.456
 1973SOL     OW 8210   0.370   5.032   3.704
 1973SOL    HW2 8211   0.442   5.034   3.641
 1973SOL    HW3 8212   0.340   4.941   3.703
 1973SOL    MW4 8213   0.375   5.021   3.696
 1974SOL     OW 8214   1.454   3.795   3.171
 1974SOL    HW2 8215   1.525   3.741   3.135
 1974SOL    HW3 8216   1.453   3.774   3.264
 1974SOL    MW4 8217   1.463   3.786   3.179
 1975SOL     OW 8218   1.654   5.325   3.655
 1975SOL    HW2 8219   1.627   5.322   3.746
 1975SOL    HW3 8220   1.750   5.329   3.658
 1975SOL    MW4 8221   1.664   5.325   3.667
 1976SOL     OW 8222   0.465   4.187   2.639
 1976SOL    HW2 8223   0.536   4.135   2.602
 1976SOL    HW3 8224   0.451   4.152   2.726
 1976SOL    MW4 8225   0.473   4.176   2.646
 1977SOL     OW 8226   0.020   5.522   3.711
 1977SOL    HW2 8227   0.070   5.500   3.633
 1977SOL    HW3 8228   0.028   5.617   3.719
 1977SOL    MW4 8229   0.028   5.531   3.702
 1978SOL     OW 8230   0.781   5.280   2.715
 1978SOL    HW2 8231   0.709   5.217   2.728
 1978SOL    HW3 8232   0.742   5.365   2.733
 1978SOL    MW4 8233   0.765   5.283   2.718
 1979SOL     OW 8234   1.101   4.128   2.363
 1979SOL    HW2 8235   1.123   4.065   2.295
 1979SOL    HW3 8236   1.006   4.120   2.374
 1979SOL    MW4 8237   1.091   4.119   2.355
 1980SOL     OW 8238   0.186   3.818   2.295
 1980SOL    HW2 8239   0.257   3.839   2.234
 1980SOL    HW3 8240   0.140   3.746   2.253
 1980SOL    MW4 8241   0.190   3.812   2.281
 1981SOL     OW 8242   0.017   4.285   3.438
 1981SOL    HW2 8243   0.081   4.351   3.413
 1981SOL    HW3 8244  -0.064   4.312   3.395
 1981SOL    MW4 8245   0.015   4.297   3.430
 1982SOL     OW 8246   1.755   5.192   2.395
 1982SOL    HW2 8247   1.725   5.125   2.456
 1982SOL    HW3 8248   1.849   5.198   2.409
 1982SOL    MW4 8249   1.763   5.184   2.405
 1983SOL     OW 8250   1.311   4.869   2.325
 1983SOL    HW2 8251   1.283   4.955   2.358
 1983SOL    HW3 8252   1.339   4.885   2.235
 1983SOL    MW4 8253   1.311   4.883   2.317
 1984SOL     OW 8254   0.973   3.789   2.378
 1984SOL    HW2 8255   1.010   3.848   2.443
 1984SOL    HW3 8256   0.950   3.845   2.304
 1984SOL    MW4 8257   0.974   3.804   2.377
 1985SOL     OW 8258   1.826   4.671   2.800
 1985SOL    HW2 8259   1.817   4.703   2.711
 1985SOL    HW3 8260   1.779   4.587   2.800
 1985SOL    MW4 8261   1.819   4.664   2.790
 1986SOL     OW 8262   0.202   4.511   3.379
 1986SOL    HW2 8263   0.223   4.580   3.317
 1986SOL    HW3 8264   0.282   4.458   3.384
 1986SOL    MW4 8265   0.215   4.512   3.373
 1987SOL     OW 8266   1.738   4.602   2.501
 1987SOL    HW2 8267   1.832   4.591   2.489
 1987SOL    HW3 8268   1.714   4.674   2.442
 1987SOL    MW4 8269   1.748   4.610   2.492
 1988SOL     OW 8270   0.187   4.526   3.646
 1988SOL    HW2 8271   0.113   4.470   3.672
 1988SOL    HW3 8272   0.182   4.529   3.551
 1988SOL    MW4 8273   0.176   4.519   3.636
 1989SOL     OW 8274   0.353   3.813   3.096
 1989SOL    HW2 8275   0.396   3.897   3.116
 1989SOL    HW3 8276   0.426   3.751   3.089
 1989SOL    MW4 8277   0.368   3.816   3.097
 1990SOL     OW 8278   0.394   4.480   2.274
 1990SOL    HW2 8279   0.394   4.575   2.259
 1990SOL    HW3 8280   0.471   4.464   2.328
 1990SOL    MW4 8281   0.404   4.491   2.279
 1991SOL     OW 8282   1.170   4.339   3.338
 1991SOL    HW2 8283   1.206   4.312   3.254
 1991SOL    HW3 8284   1.083   4.373   3.317
 1991SOL    MW4 8285   1.164   4.340   3.325
 1992SOL     OW 8286   0.153   4.211   2.563
 1992SOL    HW2 8287   0.215   4.218   2.636
 1992SOL    HW3 8288   0.153   4.118   2.540
 1992SOL    MW4 8289   0.161   4.200   2.570
 1993SOL     OW 8290   1.700   5.551   2.095
 1993SOL    HW2 8291   1.767   5.584   2.035
 1993SOL    HW3 8292   1.657   5.630   2.129
 1993SOL    MW4 8293   1.702   5.566   2.091
 1994SOL     OW 8294   0.835   4.472   3.047
 1994SOL    HW2 8295   0.793   4.390   3.023
 1994SOL    HW3 8296   0.836   4.471   3.143
 1994SOL    MW4 8297   0.828   4.461   3.056
 1995SOL     OW 8298   1.506   5.605   3.446
 1995SOL    HW2 8299   1.509   5.511   3.429
 1995SOL    HW3 8300   1.529   5.613   3.538
 1995SOL    MW4 8301   1.509   5.593   3.456
 1996SOL     OW 8302   0.639   3.942   3.152
 1996SOL    HW2 8303   0.570   4.005   3.173
 1996SOL    HW3 8304   0.666   3.906   3.237
 1996SOL    MW4 8305   0.633   3.945   3.165
 1997SOL     OW 8306   0.022   4.783   2.021
 1997SOL    HW2 8307  -0.009   4.848   2.084
 1997SOL    HW3 8308  -0.029   4.705   2.040
 1997SOL    MW4 8309   0.012   4.780   2.031
 1998SOL     OW 8310   1.434   3.795   2.769
 1998SOL    HW2 8311   1.522   3.804   2.806
 1998SOL    HW3 8312   1.444   3.736   2.695
 1998SOL    MW4 8313   1.448   3.789   2.763
 1999SOL     OW 8314   1.466   4.534   2.613
 1999SOL    HW2 8315   1.546   4.549   2.562
 1999SOL    HW3 8316   1.459   4.439   2.619
 1999SOL    MW4 8317   1.475   4.523   2.608
 2000SOL     OW 8318   0.606   5.583   1.963
 2000SOL    HW2 8319   0.511   5.583   1.955
 2000SOL    HW3 8320   0.622   5.529   2.041
 2000SOL    MW4 8321   0.596   5.577   1.972
 2001SOL     OW 8322   0.916   4.460   3.310
 2001SOL    HW2 8323   0.985   4.527   3.307
 2001SOL    HW3 8324   0.849   4.498   3.366
 2001SOL    MW4 8325   0.917   4.473   3.317
 2002SOL     OW 8326   0.334   4.760   3.558
 2002SOL    HW2 8327   0.288   4.676   3.560
 2002SOL    HW3 8328   0.391   4.754   3.482
 2002SOL    MW4 8329   0.336   4.748   3.550
 2003SOL     OW 8330   1.451   4.403   1.879
 2003SOL    HW2 8331   1.379   4.379   1.821
 2003SOL    HW3 8332   1.517   4.440   1.821
 2003SOL    MW4 8333   1.450   4.405   1.864
 2004SOL     OW 8334   0.585   5.135   2.559
 2004SOL    HW2 8335   0.650   5.068   2.580
 2004SOL    HW3 8336   0.637   5.212   2.536
 2004SOL    MW4 8337   0.600   5.137   2.558
 2005SOL     OW 8338   0.846   4.300   2.689
 2005SOL    HW2 8339   0.786   4.318   2.761
 2005SOL    HW3 8340   0.880   4.212   2.708
 2005SOL    MW4 8341   0.842   4.290   2.702
 2006SOL     OW 8342   1.787   3.799   3.358
 2006SOL    HW2 8343   1.708   3.845   3.386
 2006SOL    HW3 8344   1.822   3.853   3.287
 2006SOL    MW4 8345   1.781   3.812   3.352
 2007SOL     OW 8346   1.071   4.883   2.708
 2007SOL    HW2 8347   1.163   4.864   2.726
 2007SOL    HW3 8348   1.044   4.813   2.648
 2007SOL    MW4 8349   1.079   4.871   2.702
 2008SOL     OW 8350   0.864   4.703   2.063
 2008SOL    HW2 8351   0.850   4.615   2.028
 2008SOL    HW3 8352   0.815   4.760   2.004
 2008SOL    MW4 8353   0.856   4.698   2.051
 2009SOL     OW 8354   1.345   5.121   2.804
 2009SOL    HW2 8355   1.318   5.205   2.769
 2009SOL    HW3 8356   1.305   5.116   2.891
 2009SOL    MW4 8357   1.338   5.130   2.810
 2010SOL     OW 8358   1.264   5.069   3.072
 2010SOL    HW2 8359   1.275   5.036   3.161
 2010SOL    HW3 8360   1.183   5.028   3.041
 2010SOL    MW4 8361   1.254   5.061   3.078
 2011SOL     OW 8362   0.277   4.427   2.842
 2011SOL    HW2 8363   0.227   4.426   2.923
 2011SOL    HW3 8364   0.297   4.519   2.826
 2011SOL    MW4 8365   0.273   4.439   2.850
 2012SOL     OW 8366   1.344   5.191   3.604
 2012SOL    HW2 8367   1.344   5.285   3.620
 2012SOL    HW3 8368   1.389   5.181   3.520
 2012SOL    MW4 8369   1.350   5.201   3.595
 2013SOL     OW 8370   1.583   3.909   2.165
 2013SOL    HW2 8371   1.576   3.913   2.260
 2013SOL    HW3 8372   1.595   4.000   2.138
 2013SOL    MW4 8373   1.584   3.922   2.173
 2014SOL     OW 8374   0.872   4.472   2.279
 2014SOL    HW2 8375   0.852   4.458   2.186
 2014SOL    HW3 8376   0.965   4.451   2.286
 2014SOL    MW4 8377   0.882   4.467   2.268
 2015SOL     OW 8378   0.199   4.095   3.583
 2015SOL    HW2 8379   0.156   4.154   3.520
 2015SOL    HW3 8380   0.267   4.150   3.623
 2015SOL    MW4 8381   0.203   4.110   3.580
 2016SOL     OW 8382   1.311   4.715   3.128
 2016SOL    HW2 8383   1.374   4.712   3.201
 2016SOL    HW3 8384   1.227   4.733   3.170
 2016SOL    MW4 8385   1.307   4.717   3.143
 2017SOL     OW 8386   0.855   5.430   2.317
 2017SOL    HW2 8387   0.913   5.501   2.344
 2017SOL    HW3 8388   0.878   5.358   2.375
 2017SOL    MW4 8389   0.866   5.430   2.328
 2018SOL     OW 8390   1.650   3.892   2.907
 2018SOL    HW2 8391   1.695   3.810   2.926
 2018SOL    HW3 8392   1.670   3.948   2.983
 2018SOL    MW4 8393   1.660   3.888   2.919
 2019SOL     OW 8394   0.098   3.735   3.006
 2019SOL    HW2 8395   0.089   3.736   2.911
 2019SOL    HW3 8396   0.192   3.747   3.021
 2019SOL    MW4 8397   0.110   3.738   2.997
 2020SOL     OW 8398   1.735   4.928   2.626
 2020SOL    HW2 8399   1.714   4.874   2.549
 2020SOL    HW3 8400   1.831   4.926   2.630
 2020SOL    MW4 8401   1.744   4.921   2.615
 2021SOL     OW 8402   0.427   5.073   3.369
 2021SOL    HW2 8403   0.348   5.023   3.392
 2021SOL    HW3 8404   0.497   5.032   3.419
 2021SOL    MW4 8405   0.425   5.061   3.379
 2022SOL     OW 8406   0.311   3.862   2.052
 2022SOL    HW2 8407   0.240   3.917   2.020
 2022SOL    HW3 8408   0.353   3.828   1.973
 2022SOL    MW4 8409   0.307   3.864   2.038
 2023SOL     OW 8410   1.435   4.359   2.888
 2023SOL    HW2 8411   1.358   4.405   2.854
 2023SOL    HW3 8412   1.492   4.428   2.922
 2023SOL    MW4 8413   1.432   4.374   2.888
 2024SOL     OW 8414   0.067   3.961   1.901
 2024SOL    HW2 8415   0.034   4.040   1.945
 2024SOL    HW3 8416   0.122   3.994   1.830
 2024SOL    MW4 8417   0.070   3.975   1.898
 2025SOL     OW 8418   0.101   5.218   2.090
 2025SOL    HW2 8419   0.118   5.302   2.132
 2025SOL    HW3 8420   0.136   5.227   2.002
 2025SOL    MW4 8421   0.106   5.231   2.084
 2026SOL     OW 8422   1.373   5.307   2.307
 2026SOL    HW2 8423   1.436   5.297   2.236
 2026SOL    HW3 8424   1.290   5.327   2.262
 2026SOL    MW4 8425   1.370   5.308   2.292
 2027SOL     OW 8426   1.736   4.575   3.993
 2027SOL    HW2 8427   1.777   4.517   4.058
 2027SOL    HW3 8428   1.643   4.567   4.010
 2027SOL    MW4 8429   1.730   4.567   4.003
 2028SOL     OW 8430   1.602   4.507   4.988
 2028SOL    HW2 8431   1.557   4.574   5.039
 2028SOL    HW3 8432   1.690   4.543   4.974
 2028SOL    MW4 8433   1.608   4.520   4.992
 2029SOL     OW 8434   0.530   4.758   4.222
 2029SOL    HW2 8435   0.620   4.733   4.206
 2029SOL    HW3 8436   0.526   4.851   4.199
 2029SOL    MW4 8437   0.542   4.767   4.217
 2030SOL     OW 8438   1.646   5.461   4.364
 2030SOL    HW2 8439   1.658   5.407   4.442
 2030SOL    HW3 8440   1.683   5.409   4.293
 2030SOL    MW4 8441   1.652   5.446   4.365
 2031SOL     OW 8442   1.025   5.346   5.365
 2031SOL    HW2 8443   1.066   5.382   5.286
 2031SOL    HW3 8444   1.060   5.257   5.372
 2031SOL    MW4 8445   1.036   5.339   5.356
 2032SOL     OW 8446   1.582   4.901   4.969
 2032SOL    HW2 8447   1.503   4.866   4.927
 2032SOL    HW3 8448   1.609   4.973   4.913
 2032SOL    MW4 8449   1.575   4.906   4.956
 2033SOL     OW 8450   0.814   4.214   4.235
 2033SOL    HW2 8451   0.789   4.302   4.263
 2033SOL    HW3 8452   0.811   4.217   4.139
 2033SOL    MW4 8453   0.810   4.226   4.227
 2034SOL     OW 8454   0.256   4.242   4.163
 2034SOL    HW2 8455   0.288   4.330   4.145
 2034SOL    HW3 8456   0.244   4.240   4.258
 2034SOL    MW4 8457   0.259   4.254   4.175
 2035SOL     OW 8458   0.334   4.655   5.064
 2035SOL    HW2 8459   0.397   4.602   5.015
 2035SOL    HW3 8460   0.315   4.729   5.007
 2035SOL    MW4 8461   0.340   4.657   5.051
 2036SOL     OW 8462   0.655   3.997   4.250
 2036SOL    HW2 8463   0.713   4.073   4.252
 2036SOL    HW3 8464   0.590   4.018   4.183
 2036SOL    MW4 8465   0.654   4.009   4.241
 2037SOL     OW 8466   0.742   4.924   4.425
 2037SOL    HW2 8467   0.822   4.927   4.477
 2037SOL    HW3 8468   0.770   4.891   4.339
 2037SOL    MW4 8469   0.756   4.920   4.420
 2038SOL     OW 8470   0.767   5.265   5.328
 2038SOL    HW2 8471   0.851   5.291   5.367
 2038SOL    HW3 8472   0.791   5.209   5.254
 2038SOL    MW4 8473   0.781   5.261   5.323
 2039SOL     OW 8474   0.519   4.428   4.416
 2039SOL    HW2 8475   0.504   4.348   4.467
 2039SOL    HW3 8476   0.601   4.463   4.450
 2039SOL    MW4 8477   0.527   4.420   4.428
 2040SOL     OW 8478   0.856   5.114   5.101
 2040SOL    HW2 8479   0.820   5.180   5.041
 2040SOL    HW3 8480   0.784   5.052   5.114
 2040SOL    MW4 8481   0.842   5.114   5.095
 2041SOL     OW 8482   0.661   4.254   4.793
 2041SOL    HW2 8483   0.567   4.250   4.811
 2041SOL    HW3 8484   0.691   4.163   4.802
 2041SOL    MW4 8485   0.652   4.242   4.796
 2042SOL     OW 8486   0.407   4.668   4.697
 2042SOL    HW2 8487   0.362   4.675   4.613
 2042SOL    HW3 8488   0.387   4.751   4.741
 2042SOL    MW4 8489   0.399   4.680   4.691
 2043SOL     OW 8490   0.104   5.514   4.572
 2043SOL    HW2 8491   0.193   5.506   4.607
 2043SOL    HW3 8492   0.068   5.426   4.577
 2043SOL    MW4 8493   0.111   5.501   4.577
 2044SOL     OW 8494   1.369   4.906   3.941
 2044SOL    HW2 8495   1.287   4.942   3.907
 2044SOL    HW3 8496   1.437   4.949   3.890
 2044SOL    MW4 8497   1.367   4.916   3.929
 2045SOL     OW 8498   0.368   5.041   4.607
 2045SOL    HW2 8499   0.344   5.094   4.683
 2045SOL    HW3 8500   0.424   5.099   4.555
 2045SOL    MW4 8501   0.372   5.056   4.610
 2046SOL     OW 8502   0.930   4.685   4.417
 2046SOL    HW2 8503   0.844   4.672   4.457
 2046SOL    HW3 8504   0.983   4.612   4.449
 2046SOL    MW4 8505   0.926   4.674   4.426
 2047SOL     OW 8506   0.338   5.337   5.202
 2047SOL    HW2 8507   0.246   5.313   5.187
 2047SOL    HW3 8508   0.382   5.254   5.219
 2047SOL    MW4 8509   0.332   5.322   5.201
 2048SOL     OW 8510   0.921   5.047   4.134
 2048SOL    HW2 8511   0.898   5.109   4.202
 2048SOL    HW3 8512   0.878   4.965   4.160
 2048SOL    MW4 8513   0.913   5.043   4.145
 2049SOL     OW 8514   1.794   4.048   4.590
 2049SOL    HW2 8515   1.731   4.028   4.659
 2049SOL    HW3 8516   1.784   3.977   4.527
 2049SOL    MW4 8517   1.784   4.035   4.591
 2050SOL     OW 8518   0.418   4.020   4.102
 2050SOL    HW2 8519   0.392   3.982   4.018
 2050SOL    HW3 8520   0.355   4.090   4.118
 2050SOL    MW4 8521   0.407   4.023   4.093
 2051SOL     OW 8522   0.253   4.981   4.139
 2051SOL    HW2 8523   0.201   5.049   4.095
 2051SOL    HW3 8524   0.250   4.907   4.079
 2051SOL    MW4 8525   0.245   4.980   4.126
 2052SOL     OW 8526   0.915   5.444   3.917
 2052SOL    HW2 8527   0.870   5.460   4.000
 2052SOL    HW3 8528   0.846   5.409   3.859
 2052SOL    MW4 8529   0.901   5.441   3.919
 2053SOL     OW 8530   1.850   4.217   3.892
 2053SOL    HW2 8531   1.759   4.219   3.920
 2053SOL    HW3 8532   1.895   4.279   3.950
 2053SOL    MW4 8533   1.843   4.225   3.902
 2054SOL     OW 8534   1.595   4.820   4.242
 2054SOL    HW2 8535   1.505   4.820   4.277
 2054SOL    HW3 8536   1.588   4.866   4.159
 2054SOL    MW4 8537   1.582   4.826   4.236
 2055SOL     OW 8538   1.395   4.455   5.314
 2055SOL    HW2 8539   1.464   4.393   5.291
 2055SOL    HW3 8540   1.320   4.429   5.261
 2055SOL    MW4 8541   1.395   4.442   5.305
 2056SOL     OW 8542   0.136   5.335   4.866
 2056SOL    HW2 8543   0.119   5.281   4.943
 2056SOL    HW3 8544   0.124   5.425   4.896
 2056SOL    MW4 8545   0.133   5.339   4.880
 2057SOL     OW 8546   1.131   4.842   5.306
 2057SOL    HW2 8547   1.116   4.935   5.291
 2057SOL    HW3 8548   1.226   4.832   5.306
 2057SOL    MW4 8549   1.140   4.852   5.303
 2058SOL     OW 8550   0.927   4.266   5.507
 2058SOL    HW2 8551   1.017   4.267   5.474
 2058SOL    HW3 8552   0.886   4.191   5.465
 2058SOL    MW4 8553   0.933   4.256   5.498
 2059SOL     OW 8554   1.502   4.798   4.634
 2059SOL    HW2 8555   1.505   4.732   4.565
 2059SOL    HW3 8556   1.587   4.841   4.630
 2059SOL    MW4 8557   1.514   4.794   4.625
 2060SOL     OW 8558   1.122   4.401   4.203
 2060SOL    HW2 8559   1.148   4.425   4.114
 2060SOL    HW3 8560   1.104   4.308   4.199
 2060SOL    MW4 8561   1.124   4.393   4.190
 2061SOL     OW 8562   1.787   5.021   4.054
 2061SOL    HW2 8563   1.743   5.062   4.129
 2061SOL    HW3 8564   1.844   5.089   4.019
 2061SOL    MW4 8565   1.789   5.035   4.059
 2062SOL     OW 8566   0.707   4.070   5.457
 2062SOL    HW2 8567   0.717   3.996   5.397
 2062SOL    HW3 8568   0.743   4.039   5.540
 2062SOL    MW4 8569   0.713   4.056   5.459
 2063SOL     OW 8570   0.443   5.437   4.372
 2063SOL    HW2 8571   0.475   5.525   4.350
 2063SOL    HW3 8572   0.396   5.409   4.294
 2063SOL    MW4 8573   0.442   5.445   4.359
 2064SOL     OW 8574   1.827   3.799   4.421
 2064SOL    HW2 8575   1.881   3.750   4.483
 2064SOL    HW3 8576   1.770   3.733   4.382
 2064SOL    MW4 8577   1.827   3.783   4.423
 2065SOL     OW 8578   0.159   5.497   3.949
 2065SOL    HW2 8579   0.188   5.587   3.941
 2065SOL    HW3 8580   0.109   5.480   3.870
 2065SOL    MW4 8581   0.157   5.505   3.938
 2066SOL     OW 8582   0.946   3.752   4.834
 2066SOL    HW2 8583   0.905   3.830   4.796
 2066SOL    HW3 8584   1.040   3.770   4.829
 2066SOL    MW4 8585   0.952   3.764   4.829
 2067SOL     OW 8586   1.563   5.305   3.920
 2067SOL    HW2 8587   1.611   5.374   3.966
 2067SOL    HW3 8588   1.484   5.349   3.889
 2067SOL    MW4 8589   1.558   5.319   3.923
 2068SOL     OW 8590   0.961   4.430   3.864
 2068SOL    HW2 8591   0.963   4.377   3.785
 2068SOL    HW3 8592   1.049   4.467   3.870
 2068SOL    MW4 8593   0.973   4.429   3.853
 2069SOL     OW 8594   1.575   4.356   4.200
 2069SOL    HW2 8595   1.614   4.356   4.287
 2069SOL    HW3 8596   1.516   4.432   4.200
 2069SOL    MW4 8597   1.572   4.367   4.211
 2070SOL     OW 8598   0.892   4.723   5.329
 2070SOL    HW2 8599   0.869   4.703   5.419
 2070SOL    HW3 8600   0.977   4.767   5.334
 2070SOL    MW4 8601   0.899   4.726   5.341
 2071SOL     OW 8602   0.972   3.860   5.089
 2071SOL    HW2 8603   0.978   3.822   5.002
 2071SOL    HW3 8604   0.961   3.954   5.074
 2071SOL    MW4 8605   0.973   3.868   5.077
 2072SOL     OW 8606   1.061   4.349   4.923
 2072SOL    HW2 8607   1.136   4.378   4.870
 2072SOL    HW3 8608   0.993   4.414   4.907
 2072SOL    MW4 8609   1.062   4.361   4.913
 2073SOL     OW 8610   1.611   4.317   5.200
 2073SOL    HW2 8611   1.592   4.226   5.179
 2073SOL    HW3 8612   1.589   4.366   5.121
 2073SOL    MW4 8613   1.606   4.310   5.187
 2074SOL     OW 8614   1.753   5.411   5.104
 2074SOL    HW2 8615   1.681   5.373   5.155
 2074SOL    HW3 8616   1.770   5.496   5.145
 2074SOL    MW4 8617   1.747   5.416   5.116
 2075SOL     OW 8618   1.058   4.055   5.306
 2075SOL    HW2 8619   1.024   4.094   5.225
 2075SOL    HW3 8620   1.036   3.963   5.299
 2075SOL    MW4 8621   1.051   4.048   5.296
 2076SOL     OW 8622   1.467   4.869   5.382
 2076SOL    HW2 8623   1.549   4.910   5.412
 2076SOL    HW3 8624   1.430   4.831   5.462
 2076SOL    MW4 8625   1.473   4.870   5.397
 2077SOL     OW 8626   1.762   4.242   4.366
 2077SOL    HW2 8627   1.851   4.211   4.383
 2077SOL    HW3 8628   1.705   4.182   4.414
 2077SOL    MW4 8629   1.765   4.230   4.375
 2078SOL     OW 8630   0.188   3.956   4.395
 2078SOL    HW2 8631   0.179   3.896   4.321
 2078SOL    HW3 8632   0.121   3.927   4.458
 2078SOL    MW4 8633   0.178   3.943   4.393
 2079SOL     OW 8634   1.131   5.049   3.956
 2079SOL    HW2 8635   1.081   5.051   4.038
 2079SOL    HW3 8636   1.065   5.067   3.888
 2079SOL    MW4 8637   1.117   5.051   3.958
 2080SOL     OW 8638   0.135   4.129   4.758
 2080SOL    HW2 8639   0.107   4.220   4.767
 2080SOL    HW3 8640   0.072   4.090   4.697
 2080SOL    MW4 8641   0.122   4.135   4.752
 2081SOL     OW 8642   0.594   5.467   4.064
 2081SOL    HW2 8643   0.515   5.425   4.097
 2081SOL    HW3 8644   0.660   5.450   4.131
 2081SOL    MW4 8645   0.593   5.459   4.077
 2082SOL     OW 8646   1.722   4.987   5.461
 2082SOL    HW2 8647   1.772   4.913   5.493
 2082SOL    HW3 8648   1.668   5.014   5.536
 2082SOL    MW4 8649   1.722   4.981   5.474
 2083SOL     OW 8650   0.730   4.882   3.771
 2083SOL    HW2 8651   0.652   4.828   3.758
 2083SOL    HW3 8652   0.701   4.955   3.824
 2083SOL    MW4 8653   0.716   4.884   3.776
 2084SOL     OW 8654   1.856   4.622   4.963
 2084SOL    HW2 8655   1.872   4.660   4.876
 2084SOL    HW3 8656   1.890   4.688   5.024
 2084SOL    MW4 8657   1.863   4.635   4.959
 2085SOL     OW 8658   1.648   5.331   4.632
 2085SOL    HW2 8659   1.677   5.398   4.693
 2085SOL    HW3 8660   1.629   5.255   4.687
 2085SOL    MW4 8661   1.650   5.331   4.647
 2086SOL     OW 8662   1.311   5.398   3.839
 2086SOL    HW2 8663   1.237   5.361   3.889
 2086SOL    HW3 8664   1.319   5.488   3.872
 2086SOL    MW4 8665   1.302   5.405   3.851
 2087SOL     OW 8666   0.119   4.404   4.928
 2087SOL    HW2 8667   0.181   4.434   4.994
 2087SOL    HW3 8668   0.053   4.473   4.922
 2087SOL    MW4 8669   0.118   4.417   4.935
 2088SOL     OW 8670   1.535   5.072   3.781
 2088SOL    HW2 8671   1.482   5.121   3.717
 2088SOL    HW3 8672   1.566   5.138   3.842
 2088SOL    MW4 8673   1.533   5.086   3.779
 2089SOL     OW 8674   0.760   3.961   3.836
 2089SOL    HW2 8675   0.708   3.881   3.824
 2089SOL    HW3 8676   0.847   3.938   3.804
 2089SOL    MW4 8677   0.763   3.947   3.830
 2090SOL     OW 8678   0.214   5.513   5.380
 2090SOL    HW2 8679   0.188   5.581   5.318
 2090SOL    HW3 8680   0.262   5.450   5.328
 2090SOL    MW4 8681   0.216   5.513   5.366
 2091SOL     OW 8682   0.266   4.832   4.887
 2091SOL    HW2 8683   0.319   4.907   4.912
 2091SOL    HW3 8684   0.185   4.870   4.853
 2091SOL    MW4 8685   0.262   4.847   4.887
 2092SOL     OW 8686   0.806   4.736   4.875
 2092SOL    HW2 8687   0.834   4.645   4.887
 2092SOL    HW3 8688   0.735   4.730   4.811
 2092SOL    MW4 8689   0.799   4.724   4.870
 2093SOL     OW 8690   0.121   4.601   4.293
 2093SOL    HW2 8691   0.212   4.616   4.320
 2093SOL    HW3 8692   0.124   4.522   4.239
 2093SOL    MW4 8693   0.133   4.593   4.291
 2094SOL     OW 8694   0.357   4.309   5.547
 2094SOL    HW2 8695   0.304   4.389   5.554
 2094SOL    HW3 8696   0.427   4.321   5.612
 2094SOL    MW4 8697   0.359   4.322   5.555
 2095SOL     OW 8698   0.743   3.859   5.254
 2095SOL    HW2 8699   0.720   3.767   5.256
 2095SOL    HW3 8700   0.829   3.861   5.211
 2095SOL    MW4 8701   0.750   3.849   5.250
 2096SOL     OW 8702   0.427   4.383   5.293
 2096SOL    HW2 8703   0.507   4.433   5.279
 2096SOL    HW3 8704   0.418   4.377   5.388
 2096SOL    MW4 8705   0.436   4.389   5.303
 2097SOL     OW 8706   0.748   5.533   4.667
 2097SOL    HW2 8707   0.837   5.548   4.697
 2097SOL    HW3 8708   0.743   5.580   4.583
 2097SOL    MW4 8709   0.758   5.541   4.660
 2098SOL     OW 8710   1.404   3.908   5.564
 2098SOL    HW2 8711   1.460   3.835   5.590
 2098SOL    HW3 8712   1.374   3.946   5.646
 2098SOL    MW4 8713   1.408   3.903   5.577
 2099SOL     OW 8714   0.129   5.213   4.332
 2099SOL    HW2 8715   0.101   5.252   4.414
 2099SOL    HW3 8716   0.149   5.122   4.354
 2099SOL    MW4 8717   0.127   5.205   4.345
 2100SOL     OW 8718   0.962   5.256   4.367
 2100SOL    HW2 8719   1.045   5.210   4.351
 2100SOL    HW3 8720   0.952   5.255   4.463
 2100SOL    MW4 8721   0.972   5.249   4.377
 2101SOL     OW 8722   1.794   4.401   4.681
 2101SOL    HW2 8723   1.883   4.431   4.663
 2101SOL    HW3 8724   1.774   4.341   4.610
 2101SOL    MW4 8725   1.803   4.398   4.670
 2102SOL     OW 8726   1.645   4.580   5.561
 2102SOL    HW2 8727   1.700   4.504   5.542
 2102SOL    HW3 8728   1.647   4.588   5.656
 2102SOL    MW4 8729   1.653   4.571   5.569
 2103SOL     OW 8730   0.695   5.313   3.772
 2103SOL    HW2 8731   0.635   5.382   3.742
 2103SOL    HW3 8732   0.640   5.255   3.825
 2103SOL    MW4 8733   0.679   5.315   3.774
 2104SOL     OW 8734   1.133   3.958   3.995
 2104SOL    HW2 8735   1.066   3.934   3.932
 2104SOL    HW3 8736   1.198   4.007   3.944
 2104SOL    MW4 8737   1.133   3.960   3.980
 2105SOL     OW 8738   0.940   4.142   5.080
 2105SOL    HW2 8739   0.859   4.183   5.108
 2105SOL    HW3 8740   0.987   4.210   5.032
 2105SOL    MW4 8741   0.935   4.157   5.078
 2106SOL     OW 8742   1.200   4.480   4.703
 2106SOL    HW2 8743   1.213   4.574   4.713
 2106SOL    HW3 8744   1.161   4.470   4.617
 2106SOL    MW4 8745   1.196   4.491   4.693
 2107SOL     OW 8746   0.652   4.675   4.507
 2107SOL    HW2 8747   0.563   4.666   4.540
 2107SOL    HW3 8748   0.656   4.765   4.475
 2107SOL    MW4 8749   0.641   4.686   4.507
 2108SOL     OW 8750   1.451   4.258   4.502
 2108SOL    HW2 8751   1.396   4.179   4.501
 2108SOL    HW3 8752   1.433   4.299   4.586
 2108SOL    MW4 8753   1.441   4.253   4.511
 2109SOL     OW 8754   0.422   3.945   5.319
 2109SOL    HW2 8755   0.343   3.963   5.371
 2109SOL    HW3 8756   0.417   4.007   5.246
 2109SOL    MW4 8757   0.412   3.955   5.316
 2110SOL     OW 8758   1.070   4.462   4.459
 2110SOL    HW2 8759   1.007   4.394   4.483
 2110SOL    HW3 8760   1.090   4.443   4.367
 2110SOL    MW4 8761   1.064   4.449   4.451
 2111SOL     OW 8762   0.326   5.357   4.161
 2111SOL    HW2 8763   0.287   5.404   4.087
 2111SOL    HW3 8764   0.260   5.292   4.186
 2111SOL    MW4 8765   0.313   5.355   4.155
 2112SOL     OW 8766   0.818   4.766   4.185
 2112SOL    HW2 8767   0.820   4.740   4.092
 2112SOL    HW3 8768   0.876   4.703   4.228
 2112SOL    MW4 8769   0.826   4.755   4.179
 2113SOL     OW 8770   1.371   5.326   4.957
 2113SOL    HW2 8771   1.296   5.372   4.995
 2113SOL    HW3 8772   1.353   5.233   4.974
 2113SOL    MW4 8773   1.360   5.320   4.965
 2114SOL     OW 8774   1.375   5.534   4.387
 2114SOL    HW2 8775   1.318   5.487   4.326
 2114SOL    HW3 8776   1.461   5.495   4.374
 2114SOL    MW4 8777   1.378   5.525   4.377
 2115SOL     OW 8778   1.328   4.010   4.518
 2115SOL    HW2 8779   1.356   3.942   4.579
 2115SOL    HW3 8780   1.242   3.981   4.488
 2115SOL    MW4 8781   1.321   3.997   4.522
 2116SOL     OW 8782   0.133   4.944   4.452
 2116SOL    HW2 8783   0.197   4.976   4.515
 2116SOL    HW3 8784   0.182   4.880   4.400
 2116SOL    MW4 8785   0.148   4.940   4.453
 2117SOL     OW 8786   0.633   5.020   5.434
 2117SOL    HW2 8787   0.681   5.103   5.421
 2117SOL    HW3 8788   0.690   4.968   5.490
 2117SOL    MW4 8789   0.647   5.024   5.440
 2118SOL     OW 8790   0.209   5.262   5.574
 2118SOL    HW2 8791   0.265   5.186   5.589
 2118SOL    HW3 8792   0.158   5.240   5.496
 2118SOL    MW4 8793   0.209   5.249   5.565
 2119SOL     OW 8794   1.308   4.114   3.853
 2119SOL    HW2 8795   1.281   4.180   3.789
 2119SOL    HW3 8796   1.378   4.157   3.903
 2119SOL    MW4 8797   1.313   4.127   3.850
 2120SOL     OW 8798   0.976   3.819   3.790
 2120SOL    HW2 8799   1.032   3.811   3.712
 2120SOL    HW3 8800   0.953   3.729   3.812
 2120SOL    MW4 8801   0.981   3.806   3.783
 2121SOL     OW 8802   1.481   4.670   3.995
 2121SOL    HW2 8803   1.448   4.759   3.985
 2121SOL    HW3 8804   1.446   4.641   4.080
 2121SOL    MW4 8805   1.471   4.679   4.006
 2122SOL     OW 8806   1.094   5.099   5.183
 2122SOL    HW2 8807   1.005   5.105   5.151
 2122SOL    HW3 8808   1.138   5.178   5.151
 2122SOL    MW4 8809   1.089   5.109   5.175
 2123SOL     OW 8810   0.387   3.767   5.525
 2123SOL    HW2 8811   0.315   3.732   5.473
 2123SOL    HW3 8812   0.445   3.808   5.460
 2123SOL    MW4 8813   0.385   3.768   5.510
 2124SOL     OW 8814   0.411   5.257   4.824
 2124SOL    HW2 8815   0.456   5.319   4.881
 2124SOL    HW3 8816   0.318   5.276   4.837
 2124SOL    MW4 8817   0.404   5.267   4.831
 2125SOL     OW 8818   1.851   4.786   5.178
 2125SOL    HW2 8819   1.766   4.799   5.137
 2125SOL    HW3 8820   1.831   4.750   5.265
 2125SOL    MW4 8821   1.838   4.782   5.183
 2126SOL     OW 8822   0.833   5.325   4.932
 2126SOL    HW2 8823   0.857   5.314   4.841
 2126SOL    HW3 8824   0.756   5.382   4.930
 2126SOL    MW4 8825   0.825   5.330   4.921
 2127SOL     OW 8826   0.475   4.708   3.787
 2127SOL    HW2 8827   0.398   4.721   3.843
 2127SOL    HW3 8828   0.439   4.672   3.706
 2127SOL    MW4 8829   0.461   4.704   3.784
 2128SOL     OW 8830   1.128   4.681   4.030
 2128SOL    HW2 8831   1.038   4.702   4.005
 2128SOL    HW3 8832   1.155   4.754   4.086
 2128SOL    MW4 8833   1.120   4.693   4.033
 2129SOL     OW 8834   0.628   5.030   4.722
 2129SOL    HW2 8835   0.621   5.009   4.816
 2129SOL    HW3 8836   0.546   4.998   4.685
 2129SOL    MW4 8837   0.616   5.024   4.729
 2130SOL     OW 8838   1.492   4.040   5.124
 2130SOL    HW2 8839   1.439   4.042   5.204
 2130SOL    HW3 8840   1.477   3.953   5.087
 2130SOL    MW4 8841   1.484   4.030   5.129
 2131SOL     OW 8842   1.828   3.964   4.997
 2131SOL    HW2 8843   1.809   4.031   4.932
 2131SOL    HW3 8844   1.885   3.902   4.952
 2131SOL    MW4 8845   1.832   3.965   4.983
 2132SOL     OW 8846   0.074   5.122   5.385
 2132SOL    HW2 8847   0.118   5.055   5.331
 2132SOL    HW3 8848  -0.011   5.084   5.405
 2132SOL    MW4 8849   0.069   5.108   5.381
 2133SOL     OW 8850   0.757   3.797   4.437
 2133SOL    HW2 8851   0.686   3.858   4.419
 2133SOL    HW3 8852   0.808   3.794   4.356
 2133SOL    MW4 8853   0.753   3.803   4.424
 2134SOL     OW 8854   0.515   5.037   4.186
 2134SOL    HW2 8855   0.508   5.069   4.276
 2134SOL    HW3 8856   0.425   5.021   4.158
 2134SOL    MW4 8857   0.503   5.039   4.193
 2135SOL     OW 8858   1.110   5.430   5.095
 2135SOL    HW2 8859   1.030   5.415   5.045
 2135SOL    HW3 8860   1.117   5.525   5.102
 2135SOL    MW4 8861   1.101   5.441   5.089
 2136SOL     OW 8862   1.224   5.395   4.585
 2136SOL    HW2 8863   1.271   5.468   4.544
 2136SOL    HW3 8864   1.145   5.434   4.621
 2136SOL    MW4 8865   1.219   5.410   4.584
 2137SOL     OW 8866   1.632   5.490   4.860
 2137SOL    HW2 8867   1.675   5.460   4.940
 2137SOL    HW3 8868   1.551   5.438   4.857
 2137SOL    MW4 8869   1.627   5.479   4.870
 2138SOL     OW 8870   0.717   4.454   5.567
 2138SOL    HW2 8871   0.787   4.396   5.539
 2138SOL    HW3 8872   0.660   4.399   5.622
 2138SOL    MW4 8873   0.719   4.441   5.571
 2139SOL     OW 8874   1.504   4.666   5.200
 2139SOL    HW2 8875   1.509   4.719   5.280
 2139SOL    HW3 8876   1.466   4.583   5.228
 2139SOL    MW4 8877   1.500   4.661   5.215
 2140SOL     OW 8878   1.144   3.801   5.446
 2140SOL    HW2 8879   1.139   3.708   5.427
 2140SOL    HW3 8880   1.227   3.812   5.492
 2140SOL    MW4 8881   1.152   3.790   5.450
 2141SOL     OW 8882   0.518   4.321   3.900
 2141SOL    HW2 8883   0.484   4.377   3.970
 2141SOL    HW3 8884   0.589   4.271   3.940
 2141SOL    MW4 8885   0.524   4.322   3.914
 2142SOL     OW 8886   1.614   5.072   4.722
 2142SOL    HW2 8887   1.649   5.054   4.635
 2142SOL    HW3 8888   1.519   5.073   4.709
 2142SOL    MW4 8889   1.606   5.069   4.709
 2143SOL     OW 8890   1.043   4.720   5.091
 2143SOL    HW2 8891   1.086   4.755   5.169
 2143SOL    HW3 8892   1.026   4.797   5.037
 2143SOL    MW4 8893   1.046   4.735   5.094
 2144SOL     OW 8894   1.574   4.207   3.964
 2144SOL    HW2 8895   1.566   4.278   3.901
 2144SOL    HW3 8896   1.592   4.251   4.047
 2144SOL    MW4 8897   1.575   4.221   3.966
 2145SOL     OW 8898   0.434   3.862   4.393
 2145SOL    HW2 8899   0.484   3.905   4.324
 2145SOL    HW3 8900   0.349   3.906   4.393
 2145SOL    MW4 8901   0.431   3.875   4.384
 2146SOL     OW 8902   0.193   4.924   5.253
 2146SOL    HW2 8903   0.221   4.877   5.331
 2146SOL    HW3 8904   0.114   4.879   5.224
 2146SOL    MW4 8905   0.186   4.913   5.259
 2147SOL     OW 8906   0.701   4.251   5.220
 2147SOL    HW2 8907   0.673   4.339   5.244
 2147SOL    HW3 8908   0.670   4.195   5.291
 2147SOL    MW4 8909   0.693   4.254   5.232
 2148SOL     OW 8910   1.243   4.469   3.939
 2148SOL    HW2 8911   1.290   4.487   3.858
 2148SOL    HW3 8912   1.209   4.553   3.967
 2148SOL    MW4 8913   1.245   4.483   3.932
 2149SOL     OW 8914   0.356   4.647   4.433
 2149SOL    HW2 8915   0.414   4.703   4.381
 2149SOL    HW3 8916   0.400   4.562   4.435
 2149SOL    MW4 8917   0.369   4.644   4.426
 2150SOL     OW 8918   1.496   3.999   4.270
 2150SOL    HW2 8919   1.418   3.949   4.295
 2150SOL    HW3 8920   1.467   4.090   4.270
 2150SOL    MW4 8921   1.482   4.003   4.273
 2151SOL     OW 8922   1.082   3.961   4.429
 2151SOL    HW2 8923   1.102   4.036   4.373
 2151SOL    HW3 8924   1.062   4.000   4.514
 2151SOL    MW4 8925   1.083   3.977   4.433
 2152SOL     OW 8926   0.978   5.211   3.761
 2152SOL    HW2 8927   1.005   5.289   3.713
 2152SOL    HW3 8928   0.885   5.226   3.780
 2152SOL    MW4 8929   0.969   5.224   3.757
 2153SOL     OW 8930   1.842   4.734   5.448
 2153SOL    HW2 8931   1.755   4.714   5.484
 2153SOL    HW3 8932   1.896   4.660   5.473
 2153SOL    MW4 8933   1.837   4.723   5.456
 2154SOL     OW 8934   0.063   5.247   4.605
 2154SOL    HW2 8935   0.095   5.251   4.696
 2154SOL    HW3 8936  -0.032   5.255   4.613
 2154SOL    MW4 8937   0.055   5.250   4.618
 2155SOL     OW 8938   0.018   4.373   4.152
 2155SOL    HW2 8939  -0.042   4.345   4.222
 2155SOL    HW3 8940   0.092   4.313   4.158
 2155SOL    MW4 8941   0.020   4.362   4.161
 2156SOL     OW 8942   1.586   5.585   5.586
 2156SOL    HW2 8943   1.631   5.509   5.551
 2156SOL    HW3 8944   1.624   5.598   5.673
 2156SOL    MW4 8945   1.596   5.578   5.592
 2157SOL     OW 8946   1.186   5.104   4.312
 2157SOL    HW2 8947   1.209   5.055   4.390
 2157SOL    HW3 8948   1.267   5.146   4.284
 2157SOL    MW4 8949   1.199   5.104   4.319
 2158SOL     OW 8950   0.444   4.112   5.041
 2158SOL    HW2 8951   0.477   4.193   5.081
 2158SOL    HW3 8952   0.417   4.138   4.953
 2158SOL    MW4 8953   0.443   4.126   5.035
 2159SOL     OW 8954   0.398   4.079   4.777
 2159SOL    HW2 8955   0.428   3.993   4.748
 2159SOL    HW3 8956   0.303   4.072   4.780
 2159SOL    MW4 8957   0.390   4.068   4.775
 2160SOL     OW 8958   1.227   4.288   5.468
 2160SOL    HW2 8959   1.279   4.223   5.421
 2160SOL    HW3 8960   1.185   4.339   5.398
 2160SOL    MW4 8961   1.228   4.285   5.451
 2161SOL     OW 8962   1.326   4.083   5.329
 2161SOL    HW2 8963   1.233   4.067   5.316
 2161SOL    HW3 8964   1.352   4.021   5.397
 2161SOL    MW4 8965   1.316   4.073   5.336
 2162SOL     OW 8966   0.541   3.857   4.668
 2162SOL    HW2 8967   0.551   3.766   4.694
 2162SOL    HW3 8968   0.497   3.853   4.583
 2162SOL    MW4 8969   0.537   3.845   4.660
 2163SOL     OW 8970   0.635   5.472   5.214
 2163SOL    HW2 8971   0.552   5.457   5.259
 2163SOL    HW3 8972   0.694   5.405   5.249
 2163SOL    MW4 8973   0.633   5.462   5.224
 2164SOL     OW 8974   1.692   4.179   4.839
 2164SOL    HW2 8975   1.625   4.212   4.899
 2164SOL    HW3 8976   1.735   4.257   4.805
 2164SOL    MW4 8977   1.690   4.194   4.843
 2165SOL     OW 8978   1.870   4.899   4.809
 2165SOL    HW2 8979   1.863   4.839   4.734
 2165SOL    HW3 8980   1.796   4.959   4.798
 2165SOL    MW4 8981   1.860   4.899   4.798
 2166SOL     OW 8982   1.252   4.761   4.727
 2166SOL    HW2 8983   1.266   4.733   4.818
 2166SOL    HW3 8984   1.338   4.792   4.699
 2166SOL    MW4 8985   1.265   4.762   4.736
 2167SOL     OW 8986   1.335   4.256   5.006
 2167SOL    HW2 8987   1.356   4.257   4.913
 2167SOL    HW3 8988   1.380   4.178   5.039
 2167SOL    MW4 8989   1.342   4.246   4.998
 2168SOL     OW 8990   1.828   4.387   5.548
 2168SOL    HW2 8991   1.865   4.332   5.617
 2168SOL    HW3 8992   1.853   4.344   5.466
 2168SOL    MW4 8993   1.835   4.375   5.547
 2169SOL     OW 8994   1.375   4.685   5.600
 2169SOL    HW2 8995   1.441   4.633   5.554
 2169SOL    HW3 8996   1.395   4.672   5.693
 2169SOL    MW4 8997   1.386   4.676   5.607
 2170SOL     OW 8998   1.326   3.771   3.948
 2170SOL    HW2 8999   1.400   3.815   3.991
 2170SOL    HW3 9000   1.250   3.825   3.970
 2170SOL    MW4 9001   1.326   3.783   3.956
 2171SOL     OW 9002   1.386   4.546   4.226
 2171SOL    HW2 9003   1.301   4.516   4.196
 2171SOL    HW3 9004   1.378   4.553   4.321
 2171SOL    MW4 9005   1.374   4.544   4.235
 2172SOL     OW 9006   0.462   5.009   4.957
 2172SOL    HW2 9007   0.474   5.036   5.048
 2172SOL    HW3 9008   0.443   5.090   4.910
 2172SOL    MW4 9009   0.461   5.024   4.962
 2173SOL     OW 9010   0.746   3.989   4.780
 2173SOL    HW2 9011   0.719   3.991   4.871
 2173SOL    HW3 9012   0.676   3.941   4.735
 2173SOL    MW4 9013   0.734   3.985   4.787
 2174SOL     OW 9014   0.600   5.481   4.942
 2174SOL    HW2 9015   0.652   5.558   4.919
 2174SOL    HW3 9016   0.609   5.473   5.037
 2174SOL    MW4 9017   0.609   5.488   4.953
 2175SOL     OW 9018   1.502   5.066   5.174
 2175SOL    HW2 9019   1.487   4.995   5.237
 2175SOL    HW3 9020   1.548   5.024   5.102
 2175SOL    MW4 9021   1.508   5.050   5.174
 2176SOL     OW 9022   0.576   4.797   5.291
 2176SOL    HW2 9023   0.613   4.802   5.203
 2176SOL    HW3 9024   0.615   4.870   5.338
 2176SOL    MW4 9025   0.586   4.807   5.286
 2177SOL     OW 9026   0.756   4.840   5.103
 2177SOL    HW2 9027   0.815   4.786   5.156
 2177SOL    HW3 9028   0.771   4.812   5.013
 2177SOL    MW4 9029   0.766   4.829   5.099
 2178SOL     OW 9030   0.759   4.212   3.952
 2178SOL    HW2 9031   0.832   4.261   3.915
 2178SOL    HW3 9032   0.775   4.121   3.926
 2178SOL    MW4 9033   0.771   4.207   3.945
 2179SOL     OW 9034   1.567   5.329   5.275
 2179SOL    HW2 9035   1.609   5.314   5.360
 2179SOL    HW3 9036   1.558   5.242   5.237
 2179SOL    MW4 9037   1.571   5.317   5.282
 2180SOL     OW 9038   1.227   3.808   4.866
 2180SOL    HW2 9039   1.282   3.817   4.788
 2180SOL    HW3 9040   1.282   3.842   4.937
 2180SOL    MW4 9041   1.241   3.813   4.865
 2181SOL     OW 9042   0.234   4.721   4.050
 2181SOL    HW2 9043   0.171   4.737   3.979
 2181SOL    HW3 9044   0.181   4.684   4.121
 2181SOL    MW4 9045   0.219   4.718   4.050
 2182SOL     OW 9046   0.590   5.075   3.909
 2182SOL    HW2 9047   0.605   5.051   4.001
 2182SOL    HW3 9048   0.498   5.053   3.893
 2182SOL    MW4 9049   0.580   5.068   3.919
 2183SOL     OW 9050   1.129   5.306   4.061
 2183SOL    HW2 9051   1.137   5.224   4.012
 2183SOL    HW3 9052   1.048   5.345   4.028
 2183SOL    MW4 9053   1.119   5.301   4.051
 2184SOL     OW 9054   0.388   5.464   4.630
 2184SOL    HW2 9055   0.392   5.375   4.665
 2184SOL    HW3 9056   0.414   5.455   4.539
 2184SOL    MW4 9057   0.391   5.452   4.622
 2185SOL     OW 9058   1.005   4.942   4.873
 2185SOL    HW2 9059   0.937   4.876   4.889
 2185SOL    HW3 9060   1.023   4.936   4.780
 2185SOL    MW4 9061   0.998   4.933   4.864
 2186SOL     OW 9062   0.094   5.217   5.124
 2186SOL    HW2 9063   0.084   5.175   5.210
 2186SOL    HW3 9064   0.015   5.270   5.114
 2186SOL    MW4 9065   0.083   5.218   5.135
 2187SOL     OW 9066   0.998   4.081   4.694
 2187SOL    HW2 9067   0.928   4.033   4.739
 2187SOL    HW3 9068   1.030   4.144   4.758
 2187SOL    MW4 9069   0.993   4.083   4.708
 2188SOL     OW 9070   0.649   4.517   5.314
 2188SOL    HW2 9071   0.642   4.612   5.302
 2188SOL    HW3 9072   0.658   4.506   5.409
 2188SOL    MW4 9073   0.650   4.529   5.324
 2189SOL     OW 9074   0.370   5.032   5.572
 2189SOL    HW2 9075   0.442   5.034   5.509
 2189SOL    HW3 9076   0.340   4.941   5.571
 2189SOL    MW4 9077   0.375   5.021   5.564
 2190SOL     OW 9078   1.454   3.795   5.039
 2190SOL    HW2 9079   1.525   3.741   5.003
 2190SOL    HW3 9080   1.453   3.774   5.132
 2190SOL    MW4 9081   1.463   3.786   5.047
 2191SOL     OW 9082   1.654   5.325   5.523
 2191SOL    HW2 9083   1.627   5.322   5.614
 2191SOL    HW3 9084   1.750   5.329   5.526
 2191SOL    MW4 9085   1.664   5.325   5.535
 2192SOL     OW 9086   0.465   4.187   4.507
 2192SOL    HW2 9087   0.536   4.135   4.470
 2192SOL    HW3 9088   0.451   4.152   4.594
 2192SOL    MW4 9089   0.473   4.176   4.514
 2193SOL     OW 9090   0.020   5.522   5.579
 2193SOL    HW2 9091   0.070   5.500   5.501
 2193SOL    HW3 9092   0.028   5.617   5.587
 2193SOL    MW4 9093   0.028   5.531   5.570
 2194SOL     OW 9094   0.781   5.280   4.583
 2194SOL    HW2 9095   0.709   5.217   4.596
 2194SOL    HW3 9096   0.742   5.365   4.601
 2194SOL    MW4 9097   0.765   5.283   4.586
 2195SOL     OW 9098   1.101   4.128   4.231
 2195SOL    HW2 9099   1.123   4.065   4.163
 2195SOL    HW3 9100   1.006   4.120   4.242
 2195SOL    MW4 9101   1.091   4.119   4.223
 2196SOL     OW 9102   0.186   3.818   4.163
 2196SOL    HW2 9103   0.257   3.839   4.102
 2196SOL    HW3 9104   0.140   3.746   4.121
 2196SOL    MW4 9105   0.190   3.812   4.149
 2197SOL     OW 9106   0.017   4.285   5.306
 2197SOL    HW2 9107   0.081   4.351   5.281
 2197SOL    HW3 9108  -0.064   4.312   5.263
 2197SOL    MW4 9109   0.015   4.297   5.298
 2198SOL     OW 9110   1.755   5.192   4.263
 2198SOL    HW2 9111   1.725   5.125   4.324
 2198SOL    HW3 9112   1.849   5.198   4.277
 2198SOL    MW4 9113   1.763   5.184   4.273
 2199SOL     OW 9114   1.311   4.869   4.193
 2199SOL    HW2 9115   1.283   4.955   4.226
 2199SOL    HW3 9116   1.339   4.885   4.103
 2199SOL    MW4 9117   1.311   4.883   4.185
 2200SOL     OW 9118   0.973   3.789   4.246
 2200SOL    HW2 9119   1.010   3.848   4.311
 2200SOL    HW3 9120   0.950   3.845   4.172
 2200SOL    MW4 9121   0.974   3.804   4.245
 2201SOL     OW 9122   1.826   4.671   4.668
 2201SOL    HW2 9123   1.817   4.703   4.579
 2201SOL    HW3 9124   1.779   4.587   4.668
 2201SOL    MW4 9125   1.819   4.664   4.658
 2202SOL     OW 9126   0.202   4.511   5.247
 2202SOL    HW2 9127   0.223   4.580   5.185
 2202SOL    HW3 9128   0.282   4.458   5.252
 2202SOL    MW4 9129   0.215   4.512   5.241
 2203SOL     OW 9130   1.738   4.602   4.369
 2203SOL    HW2 9131   1.832   4.591   4.357
 2203SOL    HW3 9132   1.714   4.674   4.310
 2203SOL    MW4 9133   1.748   4.610   4.360
 2204SOL     OW 9134   0.187   4.526   5.514
 2204SOL    HW2 9135   0.113   4.470   5.540
 2204SOL    HW3 9136   0.182   4.529   5.419
 2204SOL    MW4 9137   0.176   4.519   5.504
 2205SOL     OW 9138   0.353   3.813   4.964
 2205SOL    HW2 9139   0.396   3.897   4.984
 2205SOL    HW3 9140   0.426   3.751   4.957
 2205SOL    MW4 9141   0.368   3.816   4.965
 2206SOL     OW 9142   0.394   4.480   4.142
 2206SOL    HW2 9143   0.394   4.575   4.127
 2206SOL    HW3 9144   0.471   4.464   4.196
 2206SOL    MW4 9145   0.404   4.491   4.147
 2207SOL     OW 9146   1.170   4.339   5.206
 2207SOL    HW2 9147   1.206   4.312   5.122
 2207SOL    HW3 9148   1.083   4.373   5.185
 2207SOL    MW4 9149   1.164   4.340   5.193
 2208SOL     OW 9150   0.153   4.211   4.431
 2208SOL    HW2 9151   0.215   4.218   4.504
 2208SOL    HW3 9152   0.153   4.118   4.408
 2208SOL    MW4 9153   0.161   4.200   4.438
 2209SOL     OW 9154   1.700   5.551   3.963
 2209SOL    HW2 9155   1.767   5.584   3.903
 2209SOL    HW3 9156   1.657   5.630   3.997
 2209SOL    MW4 9157   1.702   5.566   3.959
 2210SOL     OW 9158   0.835   4.472   4.915
 2210SOL    HW2 9159   0.793   4.390   4.891
 2210SOL    HW3 9160   0.836   4.471   5.011
 2210SOL    MW4 9161   0.828   4.461   4.924
 2211SOL     OW 9162   1.506   5.605   5.314
 2211SOL    HW2 9163   1.509   5.511   5.297
 2211SOL    HW3 9164   1.529   5.613   5.406
 2211SOL    MW4 9165   1.509   5.593   5.324
 2212SOL     OW 9166   0.639   3.942   5.020
 2212SOL    HW2 9167   0.570   4.005   5.041
 2212SOL    HW3 9168   0.666   3.906   5.105
 2212SOL    MW4 9169   0.633   3.945   5.033
 2213SOL     OW 9170   0.022   4.783   3.889
 2213SOL    HW2 9171  -0.009   4.848   3.952
 2213SOL    HW3 9172  -0.029   4.705   3.908
 2213SOL    MW4 9173   0.012   4.780   3.899
 2214SOL     OW 9174   1.434   3.795   4.637
 2214SOL    HW2 9175   1.522   3.804   4.674
 2214SOL    HW3 9176   1.444   3.736   4.563
 2214SOL    MW4 9177   1.448   3.789   4.631
 2215SOL     OW 9178   1.466   4.534   4.481
 2215SOL    HW2 9179   1.546   4.549   4.430
 2215SOL    HW3 9180   1.459   4.439   4.487
 2215SOL    MW4 9181   1.475   4.523   4.476
 2216SOL     OW 9182   0.606   5.583   3.831
 2216SOL    HW2 9183   0.511   5.583   3.823
 2216SOL    HW3 9184   0.622   5.529   3.909
 2216SOL    MW4 9185   0.596   5.577   3.840
 2217SOL     OW 9186   0.916   4.460   5.178
 2217SOL    HW2 9187   0.985   4.527   5.175
 2217SOL    HW3 9188   0.849   4.498   5.234
 2217SOL    MW4 9189   0.917   4.473   5.185
 2218SOL     OW 9190   0.334   4.760   5.426
 2218SOL    HW2 9191   0.288   4.676   5.428
 2218SOL    HW3 9192   0.391   4.754   5.350
 2218SOL    MW4 9193   0.336   4.748   5.418
 2219SOL     OW 9194   1.451   4.403   3.747
 2219SOL    HW2 9195   1.379   4.379   3.689
 2219SOL    HW3 9196   1.517   4.440   3.689
 2219SOL    MW4 9197   1.450   4.405   3.732
 2220SOL     OW 9198   0.585   5.135   4.427
 2220SOL    HW2 9199   0.650   5.068   4.448
 2220SOL    HW3 9200   0.637   5.212   4.404
 2220SOL    MW4 9201   0.600   5.137   4.426
 2221SOL     OW 9202   0.846   4.300   4.557
 2221SOL    HW2 9203   0.786   4.318   4.629
 2221SOL    HW3 9204   0.880   4.212   4.576
 2221SOL    MW4 9205   0.842   4.290   4.570
 2222SOL     OW 9206   1.787   3.799   5.226
 2222SOL    HW2 9207   1.708   3.845   5.254
 2222SOL    HW3 9208   1.822   3.853   5.155
 2222SOL    MW4 9209   1.781   3.812   5.220
 2223SOL     OW 9210   1.071   4.883   4.576
 2223SOL    HW2 9211   1.163   4.864   4.594
 2223SOL    HW3 9212   1.044   4.813   4.516
 2223SOL    MW4 9213   1.079   4.871   4.570
 2224SOL     OW 9214   0.864   4.703   3.931
 2224SOL    HW2 9215   0.850   4.615   3.896
 2224SOL    HW3 9216   0.815   4.760   3.872
 2224SOL    MW4 9217   0.856   4.698   3.919
 2225SOL     OW 9218   1.345   5.121   4.672
 2225SOL    HW2 9219   1.318   5.205   4.637
 2225SOL    HW3 9220   1.305   5.116   4.759
 2225SOL    MW4 9221   1.338   5.130   4.678
 2226SOL     OW 9222   1.264   5.069   4.940
 2226SOL    HW2 9223   1.275   5.036   5.029
 2226SOL    HW3 9224   1.183   5.028   4.909
 2226SOL    MW4 9225   1.254   5.061   4.946
 2227SOL     OW 9226   0.277   4.427   4.710
 2227SOL    HW2 9227   0.227   4.426   4.791
 2227SOL    HW3 9228   0.297   4.519   4.694
 2227SOL    MW4 9229   0.273   4.439   4.718
 2228SOL     OW 9230   1.344   5.191   5.472
 2228SOL    HW2 9231   1.344   5.285   5.488
 2228SOL    HW3 9232   1.389   5.181   5.388
 2228SOL    MW4 9233   1.350   5.201   5.463
 2229SOL     OW 9234   1.583   3.909   4.033
 2229SOL    HW2 9235   1.576   3.913   4.128
 2229SOL    HW3 9236   1.595   4.000   4.006
 2229SOL    MW4 9237   1.584   3.922   4.041
 2230SOL     OW 9238   0.872   4.472   4.147
 2230SOL    HW2 9239   0.852   4.458   4.054
 2230SOL    HW3 9240   0.965   4.451   4.154
 2230SOL    MW4 9241   0.882   4.467   4.136
 2231SOL     OW 9242   0.199   4.095   5.451
 2231SOL    HW2 9243   0.156   4.154   5.388
 2231SOL    HW3 9244   0.267   4.150   5.491
 2231SOL    MW4 9245   0.203   4.110   5.448
 2232SOL     OW 9246   1.311   4.715   4.996
 2232SOL    HW2 9247   1.374   4.712   5.069
 2232SOL    HW3 9248   1.227   4.733   5.038
 2232SOL    MW4 9249   1.307   4.717   5.011
 2233SOL     OW 9250   0.855   5.430   4.185
 2233SOL    HW2 9251   0.913   5.501   4.212
 2233SOL    HW3 9252   0.878   5.358   4.243
 2233SOL    MW4 9253   0.866   5.430   4.196
 2234SOL     OW 9254   1.650   3.892   4.775
 2234SOL    HW2 9255   1.695   3.810   4.794
 2234SOL    HW3 9256   1.670   3.948   4.851
 2234SOL    MW4 9257   1.660   3.888   4.787
 2235SOL     OW 9258   0.098   3.735   4.874
 2235SOL    HW2 9259   0.089   3.736   4.779
 2235SOL    HW3 9260   0.192   3.747   4.889
 2235SOL    MW4 9261   0.110   3.738   4.865
 2236SOL     OW 9262   1.735   4.928   4.494
 2236SOL    HW2 9263   1.714   4.874   4.417
 2236SOL    HW3 9264   1.831   4.926   4.498
 2236SOL    MW4 9265   1.744   4.921   4.483
 2237SOL     OW 9266   0.427   5.073   5.237
 2237SOL    HW2 9267   0.348   5.023   5.260
 2237SOL    HW3 9268   0.497   5.032   5.287
 2237SOL    MW4 9269   0.425   5.061   5.247
 2238SOL     OW 9270   0.311   3.862   3.920
 2238SOL    HW2 9271   0.240   3.917   3.888
 2238SOL    HW3 9272   0.353   3.828   3.841
 2238SOL    MW4 9273   0.307   3.864   3.906
 2239SOL     OW 9274   1.435   4.359   4.756
 2239SOL    HW2 9275   1.358   4.405   4.722
 2239SOL    HW3 9276   1.492   4.428   4.790
 2239SOL    MW4 9277   1.432   4.374   4.756
 2240SOL     OW 9278   0.067   3.961   3.769
 2240SOL    HW2 9279   0.034   4.040   3.813
 2240SOL    HW3 9280   0.122   3.994   3.698
 2240SOL    MW4 9281   0.070   3.975   3.766
 2241SOL     OW 9282   0.101   5.218   3.958
 2241SOL    HW2 9283   0.118   5.302   4.000
 2241SOL    HW3 9284   0.136   5.227   3.870
 2241SOL    MW4 9285   0.106   5.231   3.952
 2242SOL     OW 9286   1.373   5.307   4.175
 2242SOL    HW2 9287   1.436   5.297   4.104
 2242SOL    HW3 9288   1.290   5.327   4.130
 2242SOL    MW4 9289   1.370   5.308   4.160
 2243SOL     OW 9290   1.736   4.575   5.862
 2243SOL    HW2 9291   1.777   4.517   5.927
 2243SOL    HW3 9292   1.643   4.567   5.879
 2243SOL    MW4 9293   1.730   4.567   5.872
 2244SOL     OW 9294   0.530   4.758   6.091
 2244SOL    HW2 9295   0.620   4.733   6.075
 2244SOL    HW3 9296   0.526   4.851   6.068
 2244SOL    MW4 9297   0.542   4.767   6.086
 2245SOL     OW 9298   1.646   5.461   6.233
 2245SOL    HW2 9299   1.658   5.407   6.311
 2245SOL    HW3 9300   1.683   5.409   6.162
 2245SOL    MW4 9301   1.652   5.446   6.234
 2246SOL     OW 9302   0.814   4.214   6.104
 2246SOL    HW2 9303   0.789   4.302   6.132
 2246SOL    HW3 9304   0.811   4.217   6.008
 2246SOL    MW4 9305   0.810   4.226   6.096
 2247SOL     OW 9306   0.256   4.242   6.032
 2247SOL    HW2 9307   0.288   4.330   6.014
 2247SOL    HW3 9308   0.244   4.240   6.127
 2247SOL    MW4 9309   0.259   4.254   6.044
 2248SOL     OW 9310   0.655   3.997   6.119
 2248SOL    HW2 9311   0.713   4.073   6.121
 2248SOL    HW3 9312   0.590   4.018   6.052
 2248SOL    MW4 9313   0.654   4.009   6.110
 2249SOL     OW 9314   0.742   4.924   6.294
 2249SOL    HW2 9315   0.822   4.927   6.346
 2249SOL    HW3 9316   0.770   4.891   6.208
 2249SOL    MW4 9317   0.756   4.920   6.289
 2250SOL     OW 9318   0.519   4.428   6.285
 2250SOL    HW2 9319   0.504   4.348   6.336
 2250SOL    HW3 9320   0.601   4.463   6.319
 2250SOL    MW4 9321   0.527   4.420   6.297
 2251SOL     OW 9322   0.661   4.254   6.662
 2251SOL    HW2 9323   0.567   4.250   6.680
 2251SOL    HW3 9324   0.691   4.163   6.671
 2251SOL    MW4 9325   0.652   4.242   6.665
 2252SOL     OW 9326   0.407   4.668   6.566
 2252SOL    HW2 9327   0.362   4.675   6.482
 2252SOL    HW3 9328   0.387   4.751   6.610
 2252SOL    MW4 9329   0.399   4.680   6.560
 2253SOL     OW 9330   0.104   5.514   6.441
 2253SOL    HW2 9331   0.193   5.506   6.476
 2253SOL    HW3 9332   0.068   5.426   6.446
 2253SOL    MW4 9333   0.111   5.501   6.446
 2254SOL     OW 9334   1.369   4.906   5.810
 2254SOL    HW2 9335   1.287   4.942   5.776
 2254SOL    HW3 9336   1.437   4.949   5.759
 2254SOL    MW4 9337   1.367   4.916   5.798
 2255SOL     OW 9338   0.368   5.041   6.476
 2255SOL    HW2 9339   0.344   5.094   6.552
 2255SOL    HW3 9340   0.424   5.099   6.424
 2255SOL    MW4 9341   0.372   5.056   6.479
 2256SOL     OW 9342   0.930   4.685   6.286
 2256SOL    HW2 9343   0.844   4.672   6.326
 2256SOL    HW3 9344   0.983   4.612   6.318
 2256SOL    MW4 9345   0.926   4.674   6.295
 2257SOL     OW 9346   0.921   5.047   6.003
 2257SOL    HW2 9347   0.898   5.109   6.071
 2257SOL    HW3 9348   0.878   4.965   6.029
 2257SOL    MW4 9349   0.913   5.043   6.014
 2258SOL     OW 9350   1.794   4.048   6.459
 2258SOL    HW2 9351   1.731   4.028   6.528
 2258SOL    HW3 9352   1.784   3.977   6.396
 2258SOL    MW4 9353   1.784   4.035   6.460
 2259SOL     OW 9354   0.418   4.020   5.971
 2259SOL    HW2 9355   0.392   3.982   5.887
 2259SOL    HW3 9356   0.355   4.090   5.987
 2259SOL    MW4 9357   0.407   4.023   5.962
 2260SOL     OW 9358   0.253   4.981   6.008
 2260SOL    HW2 9359   0.201   5.049   5.964
 2260SOL    HW3 9360   0.250   4.907   5.948
 2260SOL    MW4 9361   0.245   4.980   5.995
 2261SOL     OW 9362   0.915   5.444   5.786
 2261SOL    HW2 9363   0.870   5.460   5.869
 2261SOL    HW3 9364   0.846   5.409   5.728
 2261SOL    MW4 9365   0.901   5.441   5.788
 2262SOL     OW 9366   1.850   4.217   5.761
 2262SOL    HW2 9367   1.759   4.219   5.789
 2262SOL    HW3 9368   1.895   4.279   5.819
 2262SOL    MW4 9369   1.843   4.225   5.771
 2263SOL     OW 9370   1.595   4.820   6.111
 2263SOL    HW2 9371   1.505   4.820   6.146
 2263SOL    HW3 9372   1.588   4.866   6.028
 2263SOL    MW4 9373   1.582   4.826   6.105
 2264SOL     OW 9374   0.136   5.335   6.735
 2264SOL    HW2 9375   0.119   5.281   6.812
 2264SOL    HW3 9376   0.124   5.425   6.765
 2264SOL    MW4 9377   0.133   5.339   6.749
 2265SOL     OW 9378   1.502   4.798   6.503
 2265SOL    HW2 9379   1.505   4.732   6.434
 2265SOL    HW3 9380   1.587   4.841   6.499
 2265SOL    MW4 9381   1.514   4.794   6.494
 2266SOL     OW 9382   1.122   4.401   6.072
 2266SOL    HW2 9383   1.148   4.425   5.983
 2266SOL    HW3 9384   1.104   4.308   6.068
 2266SOL    MW4 9385   1.124   4.393   6.059
 2267SOL     OW 9386   1.787   5.021   5.923
 2267SOL    HW2 9387   1.743   5.062   5.998
 2267SOL    HW3 9388   1.844   5.089   5.888
 2267SOL    MW4 9389   1.789   5.035   5.928
 2268SOL     OW 9390   0.443   5.437   6.241
 2268SOL    HW2 9391   0.475   5.525   6.219
 2268SOL    HW3 9392   0.396   5.409   6.163
 2268SOL    MW4 9393   0.442   5.445   6.228
 2269SOL     OW 9394   1.827   3.799   6.290
 2269SOL    HW2 9395   1.881   3.750   6.352
 2269SOL    HW3 9396   1.770   3.733   6.251
 2269SOL    MW4 9397   1.827   3.783   6.292
 2270SOL     OW 9398   0.159   5.497   5.818
 2270SOL    HW2 9399   0.188   5.587   5.810
 2270SOL    HW3 9400   0.109   5.480   5.739
 2270SOL    MW4 9401   0.157   5.505   5.807
 2271SOL     OW 9402   0.946   3.752   6.703
 2271SOL    HW2 9403   0.905   3.830   6.665
 2271SOL    HW3 9404   1.040   3.770   6.698
 2271SOL    MW4 9405   0.952   3.764   6.698
 2272SOL     OW 9406   1.563   5.305   5.789
 2272SOL    HW2 9407   1.611   5.374   5.835
 2272SOL    HW3 9408   1.484   5.349   5.758
 2272SOL    MW4 9409   1.558   5.319   5.792
 2273SOL     OW 9410   0.961   4.430   5.733
 2273SOL    HW2 9411   0.963   4.377   5.654
 2273SOL    HW3 9412   1.049   4.467   5.739
 2273SOL    MW4 9413   0.973   4.429   5.722
 2274SOL     OW 9414   1.575   4.356   6.069
 2274SOL    HW2 9415   1.614   4.356   6.156
 2274SOL    HW3 9416   1.516   4.432   6.069
 2274SOL    MW4 9417   1.572   4.367   6.080
 2275SOL     OW 9418   1.061   4.349   6.792
 2275SOL    HW2 9419   1.136   4.378   6.739
 2275SOL    HW3 9420   0.993   4.414   6.776
 2275SOL    MW4 9421   1.062   4.361   6.782
 2276SOL     OW 9422   1.762   4.242   6.235
 2276SOL    HW2 9423   1.851   4.211   6.252
 2276SOL    HW3 9424   1.705   4.182   6.283
 2276SOL    MW4 9425   1.765   4.230   6.244
 2277SOL     OW 9426   0.188   3.956   6.264
 2277SOL    HW2 9427   0.179   3.896   6.190
 2277SOL    HW3 9428   0.121   3.927   6.327
 2277SOL    MW4 9429   0.178   3.943   6.262
 2278SOL     OW 9430   1.131   5.049   5.825
 2278SOL    HW2 9431   1.081   5.051   5.907
 2278SOL    HW3 9432   1.065   5.067   5.757
 2278SOL    MW4 9433   1.117   5.051   5.827
 2279SOL     OW 9434   0.135   4.129   6.627
 2279SOL    HW2 9435   0.107   4.220   6.636
 2279SOL    HW3 9436   0.072   4.090   6.566
 2279SOL    MW4 9437   0.122   4.135   6.621
 2280SOL     OW 9438   0.594   5.467   5.933
 2280SOL    HW2 9439   0.515   5.425   5.966
 2280SOL    HW3 9440   0.660   5.450   6.000
 2280SOL    MW4 9441   0.593   5.459   5.946
 2281SOL     OW 9442   0.730   4.882   5.640
 2281SOL    HW2 9443   0.652   4.828   5.627
 2281SOL    HW3 9444   0.701   4.955   5.693
 2281SOL    MW4 9445   0.716   4.884   5.645
 2282SOL     OW 9446   1.856   4.622   6.832
 2282SOL    HW2 9447   1.872   4.660   6.745
 2282SOL    HW3 9448   1.890   4.688   6.893
 2282SOL    MW4 9449   1.863   4.635   6.828
 2283SOL     OW 9450   1.648   5.331   6.501
 2283SOL    HW2 9451   1.677   5.398   6.562
 2283SOL    HW3 9452   1.629   5.255   6.556
 2283SOL    MW4 9453   1.650   5.331   6.516
 2284SOL     OW 9454   1.311   5.398   5.708
 2284SOL    HW2 9455   1.237   5.361   5.758
 2284SOL    HW3 9456   1.319   5.488   5.741
 2284SOL    MW4 9457   1.302   5.405   5.720
 2285SOL     OW 9458   1.535   5.072   5.650
 2285SOL    HW2 9459   1.482   5.121   5.586
 2285SOL    HW3 9460   1.566   5.138   5.711
 2285SOL    MW4 9461   1.533   5.086   5.648
 2286SOL     OW 9462   0.760   3.961   5.705
 2286SOL    HW2 9463   0.708   3.881   5.693
 2286SOL    HW3 9464   0.847   3.938   5.673
 2286SOL    MW4 9465   0.763   3.947   5.699
 2287SOL     OW 9466   0.266   4.832   6.756
 2287SOL    HW2 9467   0.319   4.907   6.781
 2287SOL    HW3 9468   0.185   4.870   6.722
 2287SOL    MW4 9469   0.262   4.847   6.756
 2288SOL     OW 9470   0.806   4.736   6.744
 2288SOL    HW2 9471   0.834   4.645   6.756
 2288SOL    HW3 9472   0.735   4.730   6.680
 2288SOL    MW4 9473   0.799   4.724   6.739
 2289SOL     OW 9474   0.121   4.601   6.162
 2289SOL    HW2 9475   0.212   4.616   6.189
 2289SOL    HW3 9476   0.124   4.522   6.108
 2289SOL    MW4 9477   0.133   4.593   6.160
 2290SOL     OW 9478   0.748   5.533   6.536
 2290SOL    HW2 9479   0.837   5.548   6.566
 2290SOL    HW3 9480   0.743   5.580   6.452
 2290SOL    MW4 9481   0.758   5.541   6.529
 2291SOL     OW 9482   0.129   5.213   6.201
 2291SOL    HW2 9483   0.101   5.252   6.283
 2291SOL    HW3 9484   0.149   5.122   6.223
 2291SOL    MW4 9485   0.127   5.205   6.214
 2292SOL     OW 9486   0.962   5.256   6.236
 2292SOL    HW2 9487   1.045   5.210   6.220
 2292SOL    HW3 9488   0.952   5.255   6.332
 2292SOL    MW4 9489   0.972   5.249   6.246
 2293SOL     OW 9490   1.794   4.401   6.550
 2293SOL    HW2 9491   1.883   4.431   6.532
 2293SOL    HW3 9492   1.774   4.341   6.479
 2293SOL    MW4 9493   1.803   4.398   6.539
 2294SOL     OW 9494   0.695   5.313   5.641
 2294SOL    HW2 9495   0.635   5.382   5.611
 2294SOL    HW3 9496   0.640   5.255   5.694
 2294SOL    MW4 9497   0.679   5.315   5.643
 2295SOL     OW 9498   1.133   3.958   5.864
 2295SOL    HW2 9499   1.066   3.934   5.801
 2295SOL    HW3 9500   1.198   4.007   5.813
 2295SOL    MW4 9501   1.133   3.960   5.849
 2296SOL     OW 9502   1.200   4.480   6.572
 2296SOL    HW2 9503   1.213   4.574   6.582
 2296SOL    HW3 9504   1.161   4.470   6.486
 2296SOL    MW4 9505   1.196   4.491   6.562
 2297SOL     OW 9506   0.652   4.675   6.376
 2297SOL    HW2 9507   0.563   4.666   6.409
 2297SOL    HW3 9508   0.656   4.765   6.344
 2297SOL    MW4 9509   0.641   4.686   6.376
 2298SOL     OW 9510   1.451   4.258   6.371
 2298SOL    HW2 9511   1.396   4.179   6.370
 2298SOL    HW3 9512   1.433   4.299   6.455
 2298SOL    MW4 9513   1.441   4.253   6.380
 2299SOL     OW 9514   1.070   4.462   6.328
 2299SOL    HW2 9515   1.007   4.394   6.352
 2299SOL    HW3 9516   1.090   4.443   6.236
 2299SOL    MW4 9517   1.064   4.449   6.320
 2300SOL     OW 9518   0.326   5.357   6.030
 2300SOL    HW2 9519   0.287   5.404   5.956
 2300SOL    HW3 9520   0.260   5.292   6.055
 2300SOL    MW4 9521   0.313   5.355   6.024
 2301SOL     OW 9522   0.818   4.766   6.054
 2301SOL    HW2 9523   0.820   4.740   5.961
 2301SOL    HW3 9524   0.876   4.703   6.097
 2301SOL    MW4 9525   0.826   4.755   6.048
 2302SOL     OW 9526   1.375   5.534   6.256
 2302SOL    HW2 9527   1.318   5.487   6.195
 2302SOL    HW3 9528   1.461   5.495   6.243
 2302SOL    MW4 9529   1.378   5.525   6.246
 2303SOL     OW 9530   1.328   4.010   6.387
 2303SOL    HW2 9531   1.356   3.942   6.448
 2303SOL    HW3 9532   1.242   3.981   6.357
 2303SOL    MW4 9533   1.321   3.997   6.391
 2304SOL     OW 9534   0.133   4.944   6.321
 2304SOL    HW2 9535   0.197   4.976   6.384
 2304SOL    HW3 9536   0.182   4.880   6.269
 2304SOL    MW4 9537   0.148   4.940   6.322
 2305SOL     OW 9538   1.308   4.114   5.722
 2305SOL    HW2 9539   1.281   4.180   5.658
 2305SOL    HW3 9540   1.378   4.157   5.772
 2305SOL    MW4 9541   1.313   4.127   5.719
 2306SOL     OW 9542   0.976   3.819   5.659
 2306SOL    HW2 9543   1.032   3.811   5.581
 2306SOL    HW3 9544   0.953   3.729   5.681
 2306SOL    MW4 9545   0.981   3.806   5.652
 2307SOL     OW 9546   1.481   4.670   5.864
 2307SOL    HW2 9547   1.448   4.759   5.854
 2307SOL    HW3 9548   1.446   4.641   5.949
 2307SOL    MW4 9549   1.471   4.679   5.875
 2308SOL     OW 9550   0.411   5.257   6.693
 2308SOL    HW2 9551   0.456   5.319   6.750
 2308SOL    HW3 9552   0.318   5.276   6.706
 2308SOL    MW4 9553   0.404   5.267   6.700
 2309SOL     OW 9554   0.833   5.325   6.801
 2309SOL    HW2 9555   0.857   5.314   6.710
 2309SOL    HW3 9556   0.756   5.382   6.799
 2309SOL    MW4 9557   0.825   5.330   6.790
 2310SOL     OW 9558   0.475   4.708   5.656
 2310SOL    HW2 9559   0.398   4.721   5.712
 2310SOL    HW3 9560   0.439   4.672   5.575
 2310SOL    MW4 9561   0.461   4.704   5.653
 2311SOL     OW 9562   1.128   4.681   5.899
 2311SOL    HW2 9563   1.038   4.702   5.874
 2311SOL    HW3 9564   1.155   4.754   5.955
 2311SOL    MW4 9565   1.120   4.693   5.902
 2312SOL     OW 9566   0.628   5.030   6.591
 2312SOL    HW2 9567   0.621   5.009   6.685
 2312SOL    HW3 9568   0.546   4.998   6.554
 2312SOL    MW4 9569   0.616   5.024   6.598
 2313SOL     OW 9570   0.757   3.797   6.306
 2313SOL    HW2 9571   0.686   3.858   6.288
 2313SOL    HW3 9572   0.808   3.794   6.225
 2313SOL    MW4 9573   0.753   3.803   6.293
 2314SOL     OW 9574   0.515   5.037   6.055
 2314SOL    HW2 9575   0.508   5.069   6.145
 2314SOL    HW3 9576   0.425   5.021   6.027
 2314SOL    MW4 9577   0.503   5.039   6.062
 2315SOL     OW 9578   1.224   5.395   6.454
 2315SOL    HW2 9579   1.271   5.468   6.413
 2315SOL    HW3 9580   1.145   5.434   6.490
 2315SOL    MW4 9581   1.219   5.410   6.453
 2316SOL     OW 9582   1.632   5.490   6.729
 2316SOL    HW2 9583   1.675   5.460   6.809
 2316SOL    HW3 9584   1.551   5.438   6.726
 2316SOL    MW4 9585   1.627   5.479   6.739
 2317SOL     OW 9586   0.518   4.321   5.769
 2317SOL    HW2 9587   0.484   4.377   5.839
 2317SOL    HW3 9588   0.589   4.271   5.809
 2317SOL    MW4 9589   0.524   4.322   5.783
 2318SOL     OW 9590   1.614   5.072   6.591
 2318SOL    HW2 9591   1.649   5.054   6.504
 2318SOL    HW3 9592   1.519   5.073   6.578
 2318SOL    MW4 9593   1.606   5.069   6.578
 2319SOL     OW 9594   1.574   4.207   5.833
 2319SOL    HW2 9595   1.566   4.278   5.770
 2319SOL    HW3 9596   1.592   4.251   5.916
 2319SOL    MW4 9597   1.575   4.221   5.835
 2320SOL     OW 9598   0.434   3.862   6.262
 2320SOL    HW2 9599   0.484   3.905   6.193
 2320SOL    HW3 9600   0.349   3.906   6.262
 2320SOL    MW4 9601   0.431   3.875   6.253
 2321SOL     OW 9602   1.243   4.469   5.808
 2321SOL    HW2 9603   1.290   4.487   5.727
 2321SOL    HW3 9604   1.209   4.553   5.836
 2321SOL    MW4 9605   1.245   4.483   5.801
 2322SOL     OW 9606   0.356   4.647   6.302
 2322SOL    HW2 9607   0.414   4.703   6.250
 2322SOL    HW3 9608   0.400   4.562   6.304
 2322SOL    MW4 9609   0.369   4.644   6.295
 2323SOL     OW 9610   1.496   3.999   6.139
 2323SOL    HW2 9611   1.418   3.949   6.164
 2323SOL    HW3 9612   1.467   4.090   6.139
 2323SOL    MW4 9613   1.482   4.003   6.142
 2324SOL     OW 9614   1.082   3.961   6.298
 2324SOL    HW2 9615   1.102   4.036   6.242
 2324SOL    HW3 9616   1.062   4.000   6.383
 2324SOL    MW4 9617   1.083   3.977   6.302
 2325SOL     OW 9618   0.978   5.211   5.630
 2325SOL    HW2 9619   1.005   5.289   5.582
 2325SOL    HW3 9620   0.885   5.226   5.649
 2325SOL    MW4 9621   0.969   5.224   5.626
 2326SOL     OW 9622   0.063   5.247   6.474
 2326SOL    HW2 9623   0.095   5.251   6.565
 2326SOL    HW3 9624  -0.032   5.255   6.482
 2326SOL    MW4 9625   0.055   5.250   6.487
 2327SOL     OW 9626   0.018   4.373   6.021
 2327SOL    HW2 9627  -0.042   4.345   6.091
 2327SOL    HW3 9628   0.092   4.313   6.027
 2327SOL    MW4 9629   0.020   4.362   6.030
 2328SOL     OW 9630   1.186   5.104   6.181
 2328SOL    HW2 9631   1.209   5.055   6.259
 2328SOL    HW3 9632   1.267   5.146   6.153
 2328SOL    MW4 9633   1.199   5.104   6.188
 2329SOL     OW 9634   0.398   4.079   6.646
 2329SOL    HW2 9635   0.428   3.993   6.617
 2329SOL    HW3 9636   0.303   4.072   6.649
 2329SOL    MW4 9637   0.390   4.068   6.644
 2330SOL     OW 9638   0.541   3.857   6.537
 2330SOL    HW2 9639   0.551   3.766   6.563
 2330SOL    HW3 9640   0.497   3.853   6.452
 2330SOL    MW4 9641   0.537   3.845   6.529
 2331SOL     OW 9642   1.692   4.179   6.708
 2331SOL    HW2 9643   1.625   4.212   6.768
 2331SOL    HW3 9644   1.735   4.257   6.674
 2331SOL    MW4 9645   1.690   4.194   6.712
 2332SOL     OW 9646   1.870   4.899   6.678
 2332SOL    HW2 9647   1.863   4.839   6.603
 2332SOL    HW3 9648   1.796   4.959   6.667
 2332SOL    MW4 9649   1.860   4.899   6.667
 2333SOL     OW 9650   1.252   4.761   6.596
 2333SOL    HW2 9651   1.266   4.733   6.687
 2333SOL    HW3 9652   1.338   4.792   6.568
 2333SOL    MW4 9653   1.265   4.762   6.605
 2334SOL     OW 9654   1.326   3.771   5.817
 2334SOL    HW2 9655   1.400   3.815   5.860
 2334SOL    HW3 9656   1.250   3.825   5.839
 2334SOL    MW4 9657   1.326   3.783   5.825
 2335SOL     OW 9658   1.386   4.546   6.095
 2335SOL    HW2 9659   1.301   4.516   6.065
 2335SOL    HW3 9660   1.378   4.553   6.190
 2335SOL    MW4 9661   1.374   4.544   6.104
 2336SOL     OW 9662   0.746   3.989   6.649
 2336SOL    HW2 9663   0.719   3.991   6.740
 2336SOL    HW3 9664   0.676   3.941   6.604
 2336SOL    MW4 9665   0.734   3.985   6.656
 2337SOL     OW 9666   0.759   4.212   5.821
 2337SOL    HW2 9667   0.832   4.261   5.784
 2337SOL    HW3 9668   0.775   4.121   5.795
 2337SOL    MW4 9669   0.771   4.207   5.814
 2338SOL     OW 9670   1.227   3.808   6.735
 2338SOL    HW2 9671   1.282   3.817   6.657
 2338SOL    HW3 9672   1.282   3.842   6.806
 2338SOL    MW4 9673   1.241   3.813   6.734
 2339SOL     OW 9674   0.234   4.721   5.919
 2339SOL    HW2 9675   0.171   4.737   5.848
 2339SOL    HW3 9676   0.181   4.684   5.990
 2339SOL    MW4 9677   0.219   4.718   5.919
 2340SOL     OW 9678   0.590   5.075   5.778
 2340SOL    HW2 9679   0.605   5.051   5.870
 2340SOL    HW3 9680   0.498   5.053   5.762
 2340SOL    MW4 9681   0.580   5.068   5.788
 2341SOL     OW 9682   1.129   5.306   5.930
 2341SOL    HW2 9683   1.137   5.224   5.881
 2341SOL    HW3 9684   1.048   5.345   5.897
 2341SOL    MW4 9685   1.119   5.301   5.920
 2342SOL     OW 9686   0.388   5.464   6.499
 2342SOL    HW2 9687   0.392   5.375   6.534
 2342SOL    HW3 9688   0.414   5.455   6.408
 2342SOL    MW4 9689   0.391   5.452   6.491
 2343SOL     OW 9690   1.005   4.942   6.742
 2343SOL    HW2 9691   0.937   4.876   6.758
 2343SOL    HW3 9692   1.023   4.936   6.649
 2343SOL    MW4 9693   0.998   4.933   6.733
 2344SOL     OW 9694   0.998   4.081   6.563
 2344SOL    HW2 9695   0.928   4.033   6.608
 2344SOL    HW3 9696   1.030   4.144   6.627
 2344SOL    MW4 9697   0.993   4.083   6.577
 2345SOL     OW 9698   0.465   4.187   6.376
 2345SOL    HW2 9699   0.536   4.135   6.339
 2345SOL    HW3 9700   0.451   4.152   6.463
 2345SOL    MW4 9701   0.473   4.176   6.383
 2346SOL     OW 9702   0.781   5.280   6.452
 2346SOL    HW2 9703   0.709   5.217   6.465
 2346SOL    HW3 9704   0.742   5.365   6.470
 2346SOL    MW4 9705   0.765   5.283   6.455
 2347SOL     OW 9706   1.101   4.128   6.100
 2347SOL    HW2 9707   1.123   4.065   6.032
 2347SOL    HW3 9708   1.006   4.120   6.111
 2347SOL    MW4 9709   1.091   4.119   6.092
 2348SOL     OW 9710   0.186   3.818   6.032
 2348SOL    HW2 9711   0.257   3.839   5.971
 2348SOL    HW3 9712   0.140   3.746   5.990
 2348SOL    MW4 9713   0.190   3.812   6.018
 2349SOL     OW 9714   1.755   5.192   6.132
 2349SOL    HW2 9715   1.725   5.125   6.193
 2349SOL    HW3 9716   1.849   5.198   6.146
 2349SOL    MW4 9717   1.763   5.184   6.142
 2350SOL     OW 9718   1.311   4.869   6.062
 2350SOL    HW2 9719   1.283   4.955   6.095
 2350SOL    HW3 9720   1.339   4.885   5.972
 2350SOL    MW4 9721   1.311   4.883   6.054
 2351SOL     OW 9722   0.973   3.789   6.115
 2351SOL    HW2 9723   1.010   3.848   6.180
 2351SOL    HW3 9724   0.950   3.845   6.041
 2351SOL    MW4 9725   0.974   3.804   6.114
 2352SOL     OW 9726   1.826   4.671   6.537
 2352SOL    HW2 9727   1.817   4.703   6.448
 2352SOL    HW3 9728   1.779   4.587   6.537
 2352SOL    MW4 9729   1.819   4.664   6.527
 2353SOL     OW 9730   1.738   4.602   6.238
 2353SOL    HW2 9731   1.832   4.591   6.226
 2353SOL    HW3 9732   1.714   4.674   6.179
 2353SOL    MW4 9733   1.748   4.610   6.229
 2354SOL     OW 9734   0.394   4.480   6.011
 2354SOL    HW2 9735   0.394   4.575   5.996
 2354SOL    HW3 9736   0.471   4.464   6.065
 2354SOL    MW4 9737   0.404   4.491   6.016
 2355SOL     OW 9738   0.153   4.211   6.300
 2355SOL    HW2 9739   0.215   4.218   6.373
 2355SOL    HW3 9740   0.153   4.118   6.277
 2355SOL    MW4 9741   0.161   4.200   6.307
 2356SOL     OW 9742   1.700   5.551   5.832
 2356SOL    HW2 9743   1.767   5.584   5.772
 2356SOL    HW3 9744   1.657   5.630   5.866
 2356SOL    MW4 9745   1.702   5.566   5.828
 2357SOL     OW 9746   0.835   4.472   6.784
 2357SOL    HW2 9747   0.793   4.390   6.760
 2357SOL    HW3 9748   0.836   4.471   6.880
 2357SOL    MW4 9749   0.828   4.461   6.793
 2358SOL     OW 9750   0.022   4.783   5.758
 2358SOL    HW2 9751  -0.009   4.848   5.821
 2358SOL    HW3 9752  -0.029   4.705   5.777
 2358SOL    MW4 9753   0.012   4.780   5.768
 2359SOL     OW 9754   1.434   3.795   6.506
 2359SOL    HW2 9755   1.522   3.804   6.543
 2359SOL    HW3 9756   1.444   3.736   6.432
 2359SOL    MW4 9757   1.448   3.789   6.500
 2360SOL     OW 9758   1.466   4.534   6.350
 2360SOL    HW2 9759   1.546   4.549   6.299
 2360SOL    HW3 9760   1.459   4.439   6.356
 2360SOL    MW4 9761   1.475   4.523   6.345
 2361SOL     OW 9762   0.606   5.583   5.700
 2361SOL    HW2 9763   0.511   5.583   5.692
 2361SOL    HW3 9764   0.622   5.529   5.778
 2361SOL    MW4 9765   0.596   5.577   5.709
 2362SOL     OW 9766   1.451   4.403   5.615
 2362SOL    HW2 9767   1.379   4.379   5.557
 2362SOL    HW3 9768   1.517   4.440   5.557
 2362SOL    MW4 9769   1.450   4.405   5.600
 2363SOL     OW 9770   0.585   5.135   6.296
 2363SOL    HW2 9771   0.650   5.068   6.317
 2363SOL    HW3 9772   0.637   5.212   6.273
 2363SOL    MW4 9773   0.600   5.137   6.295
 2364SOL     OW 9774   0.846   4.300   6.426
 2364SOL    HW2 9775   0.786   4.318   6.498
 2364SOL    HW3 9776   0.880   4.212   6.445
 2364SOL    MW4 9777   0.842   4.290   6.439
 2365SOL     OW 9778   1.071   4.883   6.445
 2365SOL    HW2 9779   1.163   4.864   6.463
 2365SOL    HW3 9780   1.044   4.813   6.385
 2365SOL    MW4 9781   1.079   4.871   6.439
 2366SOL     OW 9782   0.864   4.703   5.800
 2366SOL    HW2 9783   0.850   4.615   5.765
 2366SOL    HW3 9784   0.815   4.760   5.741
 2366SOL    MW4 9785   0.856   4.698   5.788
 2367SOL     OW 9786   1.345   5.121   6.541
 2367SOL    HW2 9787   1.318   5.205   6.506
 2367SOL    HW3 9788   1.305   5.116   6.628
 2367SOL    MW4 9789   1.338   5.130   6.547
 2368SOL     OW 9790   0.277   4.427   6.579
 2368SOL    HW2 9791   0.227   4.426   6.660
 2368SOL    HW3 9792   0.297   4.519   6.563
 2368SOL    MW4 9793   0.273   4.439   6.587
 2369SOL     OW 9794   1.583   3.909   5.902
 2369SOL    HW2 9795   1.576   3.913   5.997
 2369SOL    HW3 9796   1.595   4.000   5.875
 2369SOL    MW4 9797   1.584   3.922   5.910
 2370SOL     OW 9798   0.872   4.472   6.016
 2370SOL    HW2 9799   0.852   4.458   5.923
 2370SOL    HW3 9800   0.965   4.451   6.023
 2370SOL    MW4 9801   0.882   4.467   6.005
 2371SOL     OW 9802   0.855   5.430   6.054
 2371SOL    HW2 9803   0.913   5.501   6.081
 2371SOL    HW3 9804   0.878   5.358   6.112
 2371SOL    MW4 9805   0.866   5.430   6.065
 2372SOL     OW 9806   1.650   3.892   6.644
 2372SOL    HW2 9807   1.695   3.810   6.663
 2372SOL    HW3 9808   1.670   3.948   6.720
 2372SOL    MW4 9809   1.660   3.888   6.656
 2373SOL     OW 9810   0.098   3.735   6.743
 2373SOL    HW2 9811   0.089   3.736   6.648
 2373SOL    HW3 9812   0.192   3.747   6.758
 2373SOL    MW4 9813   0.110   3.738   6.734
 2374SOL     OW 9814   1.735   4.928   6.363
 2374SOL    HW2 9815   1.714   4.874   6.286
 2374SOL    HW3 9816   1.831   4.926   6.367
 2374SOL    MW4 9817   1.744   4.921   6.352
 2375SOL     OW 9818   0.311   3.862   5.789
 2375SOL    HW2 9819   0.240   3.917   5.757
 2375SOL    HW3 9820   0.353   3.828   5.710
 2375SOL    MW4 9821   0.307   3.864   5.775
 2376SOL     OW 9822   1.435   4.359   6.625
 2376SOL    HW2 9823   1.358   4.405   6.591
 2376SOL    HW3 9824   1.492   4.428   6.659
 2376SOL    MW4 9825   1.432   4.374   6.625
 2377SOL     OW 9826   0.067   3.961   5.638
 2377SOL    HW2 9827   0.034   4.040   5.682
 2377SOL    HW3 9828   0.122   3.994   5.567
 2377SOL    MW4 9829   0.070   3.975   5.635
 2378SOL     OW 9830   0.101   5.218   5.827
 2378SOL    HW2 9831   0.118   5.302   5.869
 2378SOL    HW3 9832   0.136   5.227   5.739
 2378SOL    MW4 9833   0.106   5.231   5.821
 2379SOL     OW 9834   1.373   5.307   6.044
 2379SOL    HW2 9835   1.436   5.297   5.973
 2379SOL    HW3 9836   1.290   5.327   5.999
 2379SOL    MW4 9837   1.370   5.308   6.029
 2380SOL     OW 9838   1.736   6.444   0.257
 2380SOL    HW2 9839   1.777   6.386   0.322
 2380SOL    HW3 9840   1.643   6.436   0.274
 2380SOL    MW4 9841   1.730   6.436   0.267
 2381SOL     OW 9842   1.602   6.376   1.252
 2381SOL    HW2 9843   1.557   6.443   1.303
 2381SOL    HW3 9844   1.690   6.412   1.238
 2381SOL    MW4 9845   1.608   6.389   1.256
 2382SOL     OW 9846   0.530   6.627   0.486
 2382SOL    HW2 9847   0.620   6.602   0.470
 2382SOL    HW3 9848   0.526   6.720   0.463
 2382SOL    MW4 9849   0.542   6.636   0.481
 2383SOL     OW 9850   1.646   7.330   0.628
 2383SOL    HW2 9851   1.658   7.276   0.706
 2383SOL    HW3 9852   1.683   7.278   0.557
 2383SOL    MW4 9853   1.652   7.315   0.629
 2384SOL     OW 9854   1.025   7.215   1.629
 2384SOL    HW2 9855   1.066   7.251   1.550
 2384SOL    HW3 9856   1.060   7.126   1.636
 2384SOL    MW4 9857   1.036   7.208   1.620
 2385SOL     OW 9858   1.582   6.770   1.233
 2385SOL    HW2 9859   1.503   6.735   1.191
 2385SOL    HW3 9860   1.609   6.842   1.177
 2385SOL    MW4 9861   1.575   6.775   1.220
 2386SOL     OW 9862   0.814   6.083   0.499
 2386SOL    HW2 9863   0.789   6.171   0.527
 2386SOL    HW3 9864   0.811   6.086   0.403
 2386SOL    MW4 9865   0.810   6.095   0.491
 2387SOL     OW 9866   0.256   6.111   0.427
 2387SOL    HW2 9867   0.288   6.199   0.409
 2387SOL    HW3 9868   0.244   6.109   0.522
 2387SOL    MW4 9869   0.259   6.123   0.439
 2388SOL     OW 9870   0.334   6.524   1.328
 2388SOL    HW2 9871   0.397   6.471   1.279
 2388SOL    HW3 9872   0.315   6.598   1.271
 2388SOL    MW4 9873   0.340   6.526   1.315
 2389SOL     OW 9874   0.655   5.866   0.514
 2389SOL    HW2 9875   0.713   5.942   0.516
 2389SOL    HW3 9876   0.590   5.887   0.447
 2389SOL    MW4 9877   0.654   5.878   0.505
 2390SOL     OW 9878   0.742   6.793   0.689
 2390SOL    HW2 9879   0.822   6.796   0.741
 2390SOL    HW3 9880   0.770   6.760   0.603
 2390SOL    MW4 9881   0.756   6.789   0.684
 2391SOL     OW 9882   0.767   7.134   1.592
 2391SOL    HW2 9883   0.851   7.160   1.631
 2391SOL    HW3 9884   0.791   7.078   1.518
 2391SOL    MW4 9885   0.781   7.130   1.587
 2392SOL     OW 9886   0.519   6.297   0.680
 2392SOL    HW2 9887   0.504   6.217   0.731
 2392SOL    HW3 9888   0.601   6.332   0.714
 2392SOL    MW4 9889   0.527   6.289   0.692
 2393SOL     OW 9890   0.856   6.983   1.365
 2393SOL    HW2 9891   0.820   7.049   1.305
 2393SOL    HW3 9892   0.784   6.921   1.378
 2393SOL    MW4 9893   0.842   6.983   1.359
 2394SOL     OW 9894   0.661   6.123   1.057
 2394SOL    HW2 9895   0.567   6.119   1.075
 2394SOL    HW3 9896   0.691   6.032   1.066
 2394SOL    MW4 9897   0.652   6.111   1.060
 2395SOL     OW 9898   0.407   6.537   0.961
 2395SOL    HW2 9899   0.362   6.544   0.877
 2395SOL    HW3 9900   0.387   6.620   1.005
 2395SOL    MW4 9901   0.399   6.549   0.955
 2396SOL     OW 9902   0.104   7.383   0.836
 2396SOL    HW2 9903   0.193   7.375   0.871
 2396SOL    HW3 9904   0.068   7.295   0.841
 2396SOL    MW4 9905   0.111   7.370   0.841
 2397SOL     OW 9906   1.369   6.775   0.205
 2397SOL    HW2 9907   1.287   6.811   0.171
 2397SOL    HW3 9908   1.437   6.818   0.154
 2397SOL    MW4 9909   1.367   6.785   0.193
 2398SOL     OW 9910   0.368   6.910   0.871
 2398SOL    HW2 9911   0.344   6.963   0.947
 2398SOL    HW3 9912   0.424   6.968   0.819
 2398SOL    MW4 9913   0.372   6.925   0.874
 2399SOL     OW 9914   0.930   6.554   0.681
 2399SOL    HW2 9915   0.844   6.541   0.721
 2399SOL    HW3 9916   0.983   6.481   0.713
 2399SOL    MW4 9917   0.926   6.543   0.690
 2400SOL     OW 9918   0.338   7.206   1.466
 2400SOL    HW2 9919   0.246   7.182   1.451
 2400SOL    HW3 9920   0.382   7.123   1.483
 2400SOL    MW4 9921   0.332   7.191   1.465
 2401SOL     OW 9922   0.921   6.916   0.398
 2401SOL    HW2 9923   0.898   6.978   0.466
 2401SOL    HW3 9924   0.878   6.834   0.424
 2401SOL    MW4 9925   0.913   6.912   0.409
 2402SOL     OW 9926   1.794   5.917   0.854
 2402SOL    HW2 9927   1.731   5.897   0.923
 2402SOL    HW3 9928   1.784   5.846   0.791
 2402SOL    MW4 9929   1.784   5.904   0.855
 2403SOL     OW 9930   0.418   5.889   0.366
 2403SOL    HW2 9931   0.392   5.851   0.282
 2403SOL    HW3 9932   0.355   5.959   0.382
 2403SOL    MW4 9933   0.407   5.892   0.357
 2404SOL     OW 9934   0.253   6.850   0.403
 2404SOL    HW2 9935   0.201   6.918   0.359
 2404SOL    HW3 9936   0.250   6.776   0.343
 2404SOL    MW4 9937   0.245   6.849   0.390
 2405SOL     OW 9938   0.915   7.313   0.181
 2405SOL    HW2 9939   0.870   7.329   0.264
 2405SOL    HW3 9940   0.846   7.278   0.123
 2405SOL    MW4 9941   0.901   7.310   0.183
 2406SOL     OW 9942   1.850   6.086   0.156
 2406SOL    HW2 9943   1.759   6.088   0.184
 2406SOL    HW3 9944   1.895   6.148   0.214
 2406SOL    MW4 9945   1.843   6.094   0.166
 2407SOL     OW 9946   1.595   6.689   0.506
 2407SOL    HW2 9947   1.505   6.689   0.541
 2407SOL    HW3 9948   1.588   6.735   0.423
 2407SOL    MW4 9949   1.582   6.695   0.500
 2408SOL     OW 9950   1.395   6.324   1.578
 2408SOL    HW2 9951   1.464   6.262   1.555
 2408SOL    HW3 9952   1.320   6.298   1.525
 2408SOL    MW4 9953   1.395   6.311   1.569
 2409SOL     OW 9954   0.136   7.204   1.130
 2409SOL    HW2 9955   0.119   7.150   1.207
 2409SOL    HW3 9956   0.124   7.294   1.160
 2409SOL    MW4 9957   0.133   7.208   1.144
 2410SOL     OW 9958   1.131   6.711   1.570
 2410SOL    HW2 9959   1.116   6.804   1.555
 2410SOL    HW3 9960   1.226   6.701   1.570
 2410SOL    MW4 9961   1.140   6.721   1.567
 2411SOL     OW 9962   0.927   6.135   1.771
 2411SOL    HW2 9963   1.017   6.136   1.738
 2411SOL    HW3 9964   0.886   6.060   1.729
 2411SOL    MW4 9965   0.933   6.125   1.762
 2412SOL     OW 9966   1.502   6.667   0.898
 2412SOL    HW2 9967   1.505   6.601   0.829
 2412SOL    HW3 9968   1.587   6.710   0.894
 2412SOL    MW4 9969   1.514   6.663   0.889
 2413SOL     OW 9970   1.122   6.270   0.467
 2413SOL    HW2 9971   1.148   6.294   0.378
 2413SOL    HW3 9972   1.104   6.177   0.463
 2413SOL    MW4 9973   1.124   6.262   0.454
 2414SOL     OW 9974   1.787   6.890   0.318
 2414SOL    HW2 9975   1.743   6.931   0.393
 2414SOL    HW3 9976   1.844   6.958   0.283
 2414SOL    MW4 9977   1.789   6.904   0.323
 2415SOL     OW 9978   0.707   5.939   1.721
 2415SOL    HW2 9979   0.717   5.865   1.661
 2415SOL    HW3 9980   0.743   5.908   1.804
 2415SOL    MW4 9981   0.713   5.925   1.723
 2416SOL     OW 9982   0.443   7.306   0.636
 2416SOL    HW2 9983   0.475   7.394   0.614
 2416SOL    HW3 9984   0.396   7.278   0.558
 2416SOL    MW4 9985   0.442   7.314   0.623
 2417SOL     OW 9986   1.827   5.668   0.685
 2417SOL    HW2 9987   1.881   5.619   0.747
 2417SOL    HW3 9988   1.770   5.602   0.646
 2417SOL    MW4 9989   1.827   5.652   0.687
 2418SOL     OW 9990   0.159   7.366   0.213
 2418SOL    HW2 9991   0.188   7.456   0.205
 2418SOL    HW3 9992   0.109   7.349   0.134
 2418SOL    MW4 9993   0.157   7.374   0.202
 2419SOL     OW 9994   0.946   5.621   1.098
 2419SOL    HW2 9995   0.905   5.699   1.060
 2419SOL    HW3 9996   1.040   5.639   1.093
 2419SOL    MW4 9997   0.952   5.633   1.093
 2420SOL     OW 9998   1.563   7.174   0.184
 2420SOL    HW2 9999   1.611   7.243   0.230
 2420SOL    HW310000   1.484   7.218   0.153
 2420SOL    MW410001   1.558   7.188   0.187
 2421SOL     OW10002   0.961   6.299   0.128
 2421SOL    HW210003   0.963   6.246   0.049
 2421SOL    HW310004   1.049   6.336   0.134
 2421SOL    MW410005   0.973   6.298   0.117
 2422SOL     OW10006   1.575   6.225   0.464
 2422SOL    HW210007   1.614   6.225   0.551
 2422SOL    HW310008   1.516   6.301   0.464
 2422SOL    MW410009   1.572   6.236   0.475
 2423SOL     OW10010   0.892   6.592   1.593
 2423SOL    HW210011   0.869   6.572   1.683
 2423SOL    HW310012   0.977   6.636   1.598
 2423SOL    MW410013   0.899   6.595   1.605
 2424SOL     OW10014   0.972   5.729   1.353
 2424SOL    HW210015   0.978   5.691   1.266
 2424SOL    HW310016   0.961   5.823   1.338
 2424SOL    MW410017   0.973   5.737   1.341
 2425SOL     OW10018   1.061   6.218   1.187
 2425SOL    HW210019   1.136   6.247   1.134
 2425SOL    HW310020   0.993   6.283   1.171
 2425SOL    MW410021   1.062   6.230   1.177
 2426SOL     OW10022   1.611   6.186   1.464
 2426SOL    HW210023   1.592   6.095   1.443
 2426SOL    HW310024   1.589   6.235   1.385
 2426SOL    MW410025   1.606   6.179   1.451
 2427SOL     OW10026   1.753   7.280   1.368
 2427SOL    HW210027   1.681   7.242   1.419
 2427SOL    HW310028   1.770   7.365   1.409
 2427SOL    MW410029   1.747   7.285   1.380
 2428SOL     OW10030   1.058   5.924   1.570
 2428SOL    HW210031   1.024   5.963   1.489
 2428SOL    HW310032   1.036   5.832   1.563
 2428SOL    MW410033   1.051   5.917   1.560
 2429SOL     OW10034   1.467   6.738   1.646
 2429SOL    HW210035   1.549   6.779   1.676
 2429SOL    HW310036   1.430   6.700   1.726
 2429SOL    MW410037   1.473   6.739   1.661
 2430SOL     OW10038   1.762   6.111   0.630
 2430SOL    HW210039   1.851   6.080   0.647
 2430SOL    HW310040   1.705   6.051   0.678
 2430SOL    MW410041   1.765   6.099   0.639
 2431SOL     OW10042   0.188   5.825   0.659
 2431SOL    HW210043   0.179   5.765   0.585
 2431SOL    HW310044   0.121   5.796   0.722
 2431SOL    MW410045   0.178   5.812   0.657
 2432SOL     OW10046   1.131   6.918   0.220
 2432SOL    HW210047   1.081   6.920   0.302
 2432SOL    HW310048   1.065   6.936   0.152
 2432SOL    MW410049   1.117   6.920   0.222
 2433SOL     OW10050   0.135   5.998   1.022
 2433SOL    HW210051   0.107   6.089   1.031
 2433SOL    HW310052   0.072   5.959   0.961
 2433SOL    MW410053   0.122   6.004   1.016
 2434SOL     OW10054   0.594   7.336   0.328
 2434SOL    HW210055   0.515   7.294   0.361
 2434SOL    HW310056   0.660   7.319   0.395
 2434SOL    MW410057   0.593   7.328   0.341
 2435SOL     OW10058   1.722   6.856   1.725
 2435SOL    HW210059   1.772   6.782   1.757
 2435SOL    HW310060   1.668   6.883   1.800
 2435SOL    MW410061   1.722   6.850   1.738
 2436SOL     OW10062   0.730   6.751   0.035
 2436SOL    HW210063   0.652   6.697   0.022
 2436SOL    HW310064   0.701   6.824   0.088
 2436SOL    MW410065   0.716   6.753   0.040
 2437SOL     OW10066   1.856   6.491   1.227
 2437SOL    HW210067   1.872   6.529   1.140
 2437SOL    HW310068   1.890   6.557   1.288
 2437SOL    MW410069   1.863   6.504   1.223
 2438SOL     OW10070   1.648   7.200   0.896
 2438SOL    HW210071   1.677   7.267   0.957
 2438SOL    HW310072   1.629   7.124   0.951
 2438SOL    MW410073   1.650   7.200   0.911
 2439SOL     OW10074   1.311   7.267   0.103
 2439SOL    HW210075   1.237   7.230   0.153
 2439SOL    HW310076   1.319   7.357   0.136
 2439SOL    MW410077   1.302   7.274   0.115
 2440SOL     OW10078   0.119   6.273   1.192
 2440SOL    HW210079   0.181   6.303   1.258
 2440SOL    HW310080   0.053   6.342   1.186
 2440SOL    MW410081   0.118   6.286   1.199
 2441SOL     OW10082   1.535   6.941   0.045
 2441SOL    HW210083   1.482   6.990  -0.019
 2441SOL    HW310084   1.566   7.007   0.106
 2441SOL    MW410085   1.533   6.955   0.043
 2442SOL     OW10086   0.760   5.830   0.100
 2442SOL    HW210087   0.708   5.750   0.088
 2442SOL    HW310088   0.847   5.807   0.068
 2442SOL    MW410089   0.763   5.816   0.094
 2443SOL     OW10090   0.214   7.382   1.644
 2443SOL    HW210091   0.188   7.450   1.582
 2443SOL    HW310092   0.262   7.319   1.592
 2443SOL    MW410093   0.216   7.382   1.630
 2444SOL     OW10094   0.266   6.701   1.151
 2444SOL    HW210095   0.319   6.776   1.176
 2444SOL    HW310096   0.185   6.739   1.117
 2444SOL    MW410097   0.262   6.716   1.151
 2445SOL     OW10098   0.806   6.605   1.139
 2445SOL    HW210099   0.834   6.514   1.151
 2445SOL    HW310100   0.735   6.599   1.075
 2445SOL    MW410101   0.799   6.593   1.134
 2446SOL     OW10102   0.121   6.470   0.557
 2446SOL    HW210103   0.212   6.485   0.584
 2446SOL    HW310104   0.124   6.391   0.503
 2446SOL    MW410105   0.133   6.462   0.555
 2447SOL     OW10106   0.357   6.178   1.811
 2447SOL    HW210107   0.304   6.258   1.818
 2447SOL    HW310108   0.427   6.190   1.876
 2447SOL    MW410109   0.359   6.191   1.819
 2448SOL     OW10110   0.743   5.728   1.518
 2448SOL    HW210111   0.720   5.636   1.520
 2448SOL    HW310112   0.829   5.730   1.475
 2448SOL    MW410113   0.750   5.718   1.514
 2449SOL     OW10114   0.427   6.252   1.557
 2449SOL    HW210115   0.507   6.302   1.543
 2449SOL    HW310116   0.418   6.246   1.652
 2449SOL    MW410117   0.436   6.258   1.567
 2450SOL     OW10118   0.748   7.402   0.931
 2450SOL    HW210119   0.837   7.417   0.961
 2450SOL    HW310120   0.743   7.449   0.847
 2450SOL    MW410121   0.758   7.410   0.924
 2451SOL     OW10122   1.404   5.777   1.828
 2451SOL    HW210123   1.460   5.704   1.854
 2451SOL    HW310124   1.374   5.815   1.910
 2451SOL    MW410125   1.408   5.772   1.841
 2452SOL     OW10126   0.129   7.082   0.596
 2452SOL    HW210127   0.101   7.121   0.678
 2452SOL    HW310128   0.149   6.991   0.618
 2452SOL    MW410129   0.127   7.074   0.609
 2453SOL     OW10130   0.962   7.125   0.631
 2453SOL    HW210131   1.045   7.079   0.615
 2453SOL    HW310132   0.952   7.124   0.727
 2453SOL    MW410133   0.972   7.118   0.641
 2454SOL     OW10134   1.794   6.270   0.945
 2454SOL    HW210135   1.883   6.300   0.927
 2454SOL    HW310136   1.774   6.210   0.874
 2454SOL    MW410137   1.803   6.267   0.934
 2455SOL     OW10138   1.645   6.449   1.825
 2455SOL    HW210139   1.700   6.373   1.806
 2455SOL    HW310140   1.647   6.457   1.920
 2455SOL    MW410141   1.653   6.440   1.833
 2456SOL     OW10142   0.695   7.182   0.036
 2456SOL    HW210143   0.635   7.251   0.006
 2456SOL    HW310144   0.640   7.124   0.089
 2456SOL    MW410145   0.679   7.184   0.038
 2457SOL     OW10146   1.133   5.827   0.259
 2457SOL    HW210147   1.066   5.803   0.196
 2457SOL    HW310148   1.198   5.876   0.208
 2457SOL    MW410149   1.133   5.829   0.244
 2458SOL     OW10150   0.940   6.011   1.344
 2458SOL    HW210151   0.859   6.052   1.372
 2458SOL    HW310152   0.987   6.079   1.296
 2458SOL    MW410153   0.935   6.026   1.342
 2459SOL     OW10154   1.200   6.349   0.967
 2459SOL    HW210155   1.213   6.443   0.977
 2459SOL    HW310156   1.161   6.339   0.881
 2459SOL    MW410157   1.196   6.360   0.957
 2460SOL     OW10158   0.652   6.544   0.771
 2460SOL    HW210159   0.563   6.535   0.804
 2460SOL    HW310160   0.656   6.634   0.739
 2460SOL    MW410161   0.641   6.555   0.771
 2461SOL     OW10162   1.451   6.127   0.766
 2461SOL    HW210163   1.396   6.048   0.765
 2461SOL    HW310164   1.433   6.168   0.850
 2461SOL    MW410165   1.441   6.122   0.775
 2462SOL     OW10166   0.422   5.814   1.583
 2462SOL    HW210167   0.343   5.832   1.635
 2462SOL    HW310168   0.417   5.876   1.510
 2462SOL    MW410169   0.412   5.824   1.580
 2463SOL     OW10170   1.070   6.331   0.723
 2463SOL    HW210171   1.007   6.263   0.747
 2463SOL    HW310172   1.090   6.312   0.631
 2463SOL    MW410173   1.064   6.318   0.715
 2464SOL     OW10174   0.326   7.226   0.425
 2464SOL    HW210175   0.287   7.273   0.351
 2464SOL    HW310176   0.260   7.161   0.450
 2464SOL    MW410177   0.313   7.224   0.419
 2465SOL     OW10178   0.818   6.635   0.449
 2465SOL    HW210179   0.820   6.609   0.356
 2465SOL    HW310180   0.876   6.572   0.492
 2465SOL    MW410181   0.826   6.624   0.443
 2466SOL     OW10182   1.371   7.195   1.221
 2466SOL    HW210183   1.296   7.241   1.259
 2466SOL    HW310184   1.353   7.102   1.238
 2466SOL    MW410185   1.360   7.189   1.229
 2467SOL     OW10186   1.375   7.403   0.651
 2467SOL    HW210187   1.318   7.356   0.590
 2467SOL    HW310188   1.461   7.364   0.638
 2467SOL    MW410189   1.378   7.394   0.641
 2468SOL     OW10190   1.328   5.879   0.782
 2468SOL    HW210191   1.356   5.811   0.843
 2468SOL    HW310192   1.242   5.850   0.752
 2468SOL    MW410193   1.321   5.866   0.786
 2469SOL     OW10194   0.133   6.813   0.716
 2469SOL    HW210195   0.197   6.845   0.779
 2469SOL    HW310196   0.182   6.749   0.664
 2469SOL    MW410197   0.148   6.809   0.717
 2470SOL     OW10198   0.633   6.889   1.698
 2470SOL    HW210199   0.681   6.972   1.685
 2470SOL    HW310200   0.690   6.837   1.754
 2470SOL    MW410201   0.647   6.893   1.704
 2471SOL     OW10202   0.209   7.131   1.838
 2471SOL    HW210203   0.265   7.055   1.853
 2471SOL    HW310204   0.158   7.109   1.760
 2471SOL    MW410205   0.209   7.118   1.829
 2472SOL     OW10206   1.308   5.983   0.117
 2472SOL    HW210207   1.281   6.049   0.053
 2472SOL    HW310208   1.378   6.026   0.167
 2472SOL    MW410209   1.313   5.996   0.114
 2473SOL     OW10210   0.976   5.688   0.054
 2473SOL    HW210211   1.032   5.680  -0.024
 2473SOL    HW310212   0.953   5.598   0.076
 2473SOL    MW410213   0.981   5.675   0.047
 2474SOL     OW10214   1.481   6.539   0.259
 2474SOL    HW210215   1.448   6.628   0.249
 2474SOL    HW310216   1.446   6.510   0.344
 2474SOL    MW410217   1.471   6.548   0.270
 2475SOL     OW10218   1.094   6.968   1.447
 2475SOL    HW210219   1.005   6.974   1.415
 2475SOL    HW310220   1.138   7.047   1.415
 2475SOL    MW410221   1.089   6.978   1.439
 2476SOL     OW10222   0.387   5.636   1.789
 2476SOL    HW210223   0.315   5.601   1.737
 2476SOL    HW310224   0.445   5.677   1.724
 2476SOL    MW410225   0.385   5.637   1.774
 2477SOL     OW10226   0.411   7.126   1.088
 2477SOL    HW210227   0.456   7.188   1.145
 2477SOL    HW310228   0.318   7.145   1.101
 2477SOL    MW410229   0.404   7.136   1.095
 2478SOL     OW10230   1.851   6.655   1.442
 2478SOL    HW210231   1.766   6.668   1.401
 2478SOL    HW310232   1.831   6.619   1.529
 2478SOL    MW410233   1.838   6.651   1.447
 2479SOL     OW10234   0.833   7.194   1.196
 2479SOL    HW210235   0.857   7.183   1.105
 2479SOL    HW310236   0.756   7.251   1.194
 2479SOL    MW410237   0.825   7.199   1.185
 2480SOL     OW10238   0.475   6.577   0.051
 2480SOL    HW210239   0.398   6.590   0.107
 2480SOL    HW310240   0.439   6.541  -0.030
 2480SOL    MW410241   0.461   6.573   0.048
 2481SOL     OW10242   1.128   6.550   0.294
 2481SOL    HW210243   1.038   6.571   0.269
 2481SOL    HW310244   1.155   6.623   0.350
 2481SOL    MW410245   1.120   6.562   0.297
 2482SOL     OW10246   0.628   6.899   0.986
 2482SOL    HW210247   0.621   6.878   1.080
 2482SOL    HW310248   0.546   6.867   0.949
 2482SOL    MW410249   0.616   6.893   0.993
 2483SOL     OW10250   1.492   5.909   1.388
 2483SOL    HW210251   1.439   5.911   1.468
 2483SOL    HW310252   1.477   5.822   1.351
 2483SOL    MW410253   1.484   5.899   1.393
 2484SOL     OW10254   1.828   5.833   1.261
 2484SOL    HW210255   1.809   5.900   1.196
 2484SOL    HW310256   1.885   5.771   1.216
 2484SOL    MW410257   1.832   5.834   1.247
 2485SOL     OW10258   0.074   6.991   1.649
 2485SOL    HW210259   0.118   6.924   1.595
 2485SOL    HW310260  -0.011   6.953   1.669
 2485SOL    MW410261   0.069   6.977   1.645
 2486SOL     OW10262   0.757   5.666   0.701
 2486SOL    HW210263   0.686   5.727   0.683
 2486SOL    HW310264   0.808   5.663   0.620
 2486SOL    MW410265   0.753   5.672   0.688
 2487SOL     OW10266   0.515   6.906   0.450
 2487SOL    HW210267   0.508   6.938   0.540
 2487SOL    HW310268   0.425   6.890   0.422
 2487SOL    MW410269   0.503   6.908   0.457
 2488SOL     OW10270   1.110   7.299   1.359
 2488SOL    HW210271   1.030   7.284   1.309
 2488SOL    HW310272   1.117   7.394   1.366
 2488SOL    MW410273   1.101   7.310   1.353
 2489SOL     OW10274   1.224   7.264   0.849
 2489SOL    HW210275   1.271   7.337   0.808
 2489SOL    HW310276   1.145   7.303   0.885
 2489SOL    MW410277   1.219   7.279   0.848
 2490SOL     OW10278   1.632   7.359   1.124
 2490SOL    HW210279   1.675   7.329   1.204
 2490SOL    HW310280   1.551   7.307   1.121
 2490SOL    MW410281   1.627   7.348   1.134
 2491SOL     OW10282   0.717   6.323   1.831
 2491SOL    HW210283   0.787   6.265   1.803
 2491SOL    HW310284   0.660   6.268   1.886
 2491SOL    MW410285   0.719   6.310   1.835
 2492SOL     OW10286   1.504   6.535   1.464
 2492SOL    HW210287   1.509   6.588   1.544
 2492SOL    HW310288   1.466   6.452   1.492
 2492SOL    MW410289   1.500   6.530   1.479
 2493SOL     OW10290   1.144   5.670   1.710
 2493SOL    HW210291   1.139   5.577   1.691
 2493SOL    HW310292   1.227   5.681   1.756
 2493SOL    MW410293   1.152   5.659   1.714
 2494SOL     OW10294   0.518   6.190   0.164
 2494SOL    HW210295   0.484   6.246   0.234
 2494SOL    HW310296   0.589   6.140   0.204
 2494SOL    MW410297   0.524   6.191   0.178
 2495SOL     OW10298   1.614   6.941   0.986
 2495SOL    HW210299   1.649   6.923   0.899
 2495SOL    HW310300   1.519   6.942   0.973
 2495SOL    MW410301   1.606   6.938   0.973
 2496SOL     OW10302   1.043   6.589   1.355
 2496SOL    HW210303   1.086   6.624   1.433
 2496SOL    HW310304   1.026   6.666   1.301
 2496SOL    MW410305   1.046   6.604   1.358
 2497SOL     OW10306   1.574   6.076   0.228
 2497SOL    HW210307   1.566   6.147   0.165
 2497SOL    HW310308   1.592   6.120   0.311
 2497SOL    MW410309   1.575   6.090   0.230
 2498SOL     OW10310   0.434   5.731   0.657
 2498SOL    HW210311   0.484   5.774   0.588
 2498SOL    HW310312   0.349   5.775   0.657
 2498SOL    MW410313   0.431   5.744   0.648
 2499SOL     OW10314   0.193   6.793   1.517
 2499SOL    HW210315   0.221   6.746   1.595
 2499SOL    HW310316   0.114   6.748   1.488
 2499SOL    MW410317   0.186   6.782   1.523
 2500SOL     OW10318   0.701   6.120   1.484
 2500SOL    HW210319   0.673   6.208   1.508
 2500SOL    HW310320   0.670   6.064   1.555
 2500SOL    MW410321   0.693   6.123   1.496
 2501SOL     OW10322   1.243   6.338   0.203
 2501SOL    HW210323   1.290   6.356   0.122
 2501SOL    HW310324   1.209   6.422   0.231
 2501SOL    MW410325   1.245   6.352   0.196
 2502SOL     OW10326   0.356   6.516   0.697
 2502SOL    HW210327   0.414   6.572   0.645
 2502SOL    HW310328   0.400   6.431   0.699
 2502SOL    MW410329   0.369   6.513   0.690
 2503SOL     OW10330   1.496   5.868   0.534
 2503SOL    HW210331   1.418   5.818   0.559
 2503SOL    HW310332   1.467   5.959   0.534
 2503SOL    MW410333   1.482   5.872   0.537
 2504SOL     OW10334   1.082   5.830   0.693
 2504SOL    HW210335   1.102   5.905   0.637
 2504SOL    HW310336   1.062   5.869   0.778
 2504SOL    MW410337   1.083   5.846   0.697
 2505SOL     OW10338   0.978   7.080   0.025
 2505SOL    HW210339   1.005   7.158  -0.023
 2505SOL    HW310340   0.885   7.095   0.044
 2505SOL    MW410341   0.969   7.093   0.021
 2506SOL     OW10342   1.842   6.603   1.712
 2506SOL    HW210343   1.755   6.583   1.748
 2506SOL    HW310344   1.896   6.529   1.737
 2506SOL    MW410345   1.837   6.592   1.720
 2507SOL     OW10346   0.063   7.116   0.869
 2507SOL    HW210347   0.095   7.120   0.960
 2507SOL    HW310348  -0.032   7.124   0.877
 2507SOL    MW410349   0.055   7.119   0.882
 2508SOL     OW10350   0.018   6.242   0.416
 2508SOL    HW210351  -0.042   6.214   0.486
 2508SOL    HW310352   0.092   6.182   0.422
 2508SOL    MW410353   0.020   6.231   0.425
 2509SOL     OW10354   1.586   7.454   1.850
 2509SOL    HW210355   1.631   7.378   1.815
 2509SOL    HW310356   1.624   7.467   1.937
 2509SOL    MW410357   1.596   7.447   1.856
 2510SOL     OW10358   1.186   6.973   0.576
 2510SOL    HW210359   1.209   6.924   0.654
 2510SOL    HW310360   1.267   7.015   0.548
 2510SOL    MW410361   1.199   6.973   0.583
 2511SOL     OW10362   0.444   5.981   1.305
 2511SOL    HW210363   0.477   6.062   1.345
 2511SOL    HW310364   0.417   6.007   1.217
 2511SOL    MW410365   0.443   5.995   1.299
 2512SOL     OW10366   0.398   5.948   1.041
 2512SOL    HW210367   0.428   5.862   1.012
 2512SOL    HW310368   0.303   5.941   1.044
 2512SOL    MW410369   0.390   5.937   1.039
 2513SOL     OW10370   1.227   6.157   1.732
 2513SOL    HW210371   1.279   6.092   1.685
 2513SOL    HW310372   1.185   6.208   1.662
 2513SOL    MW410373   1.228   6.154   1.715
 2514SOL     OW10374   1.326   5.952   1.593
 2514SOL    HW210375   1.233   5.936   1.580
 2514SOL    HW310376   1.352   5.890   1.661
 2514SOL    MW410377   1.316   5.942   1.600
 2515SOL     OW10378   0.541   5.726   0.932
 2515SOL    HW210379   0.551   5.635   0.958
 2515SOL    HW310380   0.497   5.722   0.847
 2515SOL    MW410381   0.537   5.714   0.924
 2516SOL     OW10382   0.635   7.341   1.478
 2516SOL    HW210383   0.552   7.326   1.523
 2516SOL    HW310384   0.694   7.274   1.513
 2516SOL    MW410385   0.633   7.331   1.488
 2517SOL     OW10386   1.692   6.048   1.103
 2517SOL    HW210387   1.625   6.081   1.163
 2517SOL    HW310388   1.735   6.126   1.069
 2517SOL    MW410389   1.690   6.063   1.107
 2518SOL     OW10390   1.870   6.768   1.073
 2518SOL    HW210391   1.863   6.708   0.998
 2518SOL    HW310392   1.796   6.828   1.062
 2518SOL    MW410393   1.860   6.768   1.062
 2519SOL     OW10394   1.252   6.630   0.991
 2519SOL    HW210395   1.266   6.602   1.082
 2519SOL    HW310396   1.338   6.661   0.963
 2519SOL    MW410397   1.265   6.631   1.000
 2520SOL     OW10398   1.335   6.125   1.270
 2520SOL    HW210399   1.356   6.126   1.177
 2520SOL    HW310400   1.380   6.047   1.303
 2520SOL    MW410401   1.342   6.115   1.262
 2521SOL     OW10402   1.828   6.256   1.812
 2521SOL    HW210403   1.865   6.201   1.881
 2521SOL    HW310404   1.853   6.213   1.730
 2521SOL    MW410405   1.835   6.244   1.811
 2522SOL     OW10406   1.375   6.554   1.863
 2522SOL    HW210407   1.441   6.502   1.817
 2522SOL    HW310408   1.395   6.541   1.956
 2522SOL    MW410409   1.386   6.545   1.870
 2523SOL     OW10410   1.326   5.640   0.212
 2523SOL    HW210411   1.400   5.684   0.255
 2523SOL    HW310412   1.250   5.694   0.234
 2523SOL    MW410413   1.326   5.652   0.220
 2524SOL     OW10414   1.386   6.415   0.490
 2524SOL    HW210415   1.301   6.385   0.460
 2524SOL    HW310416   1.378   6.422   0.585
 2524SOL    MW410417   1.374   6.413   0.499
 2525SOL     OW10418   0.462   6.878   1.221
 2525SOL    HW210419   0.474   6.905   1.312
 2525SOL    HW310420   0.443   6.959   1.174
 2525SOL    MW410421   0.461   6.893   1.226
 2526SOL     OW10422   0.746   5.858   1.044
 2526SOL    HW210423   0.719   5.860   1.135
 2526SOL    HW310424   0.676   5.810   0.999
 2526SOL    MW410425   0.734   5.854   1.051
 2527SOL     OW10426   0.600   7.350   1.206
 2527SOL    HW210427   0.652   7.427   1.183
 2527SOL    HW310428   0.609   7.342   1.301
 2527SOL    MW410429   0.609   7.357   1.217
 2528SOL     OW10430   1.502   6.935   1.438
 2528SOL    HW210431   1.487   6.864   1.501
 2528SOL    HW310432   1.548   6.893   1.366
 2528SOL    MW410433   1.508   6.919   1.438
 2529SOL     OW10434   0.576   6.666   1.555
 2529SOL    HW210435   0.613   6.671   1.467
 2529SOL    HW310436   0.615   6.739   1.602
 2529SOL    MW410437   0.586   6.676   1.550
 2530SOL     OW10438   0.756   6.709   1.367
 2530SOL    HW210439   0.815   6.655   1.420
 2530SOL    HW310440   0.771   6.681   1.277
 2530SOL    MW410441   0.766   6.698   1.363
 2531SOL     OW10442   0.759   6.081   0.216
 2531SOL    HW210443   0.832   6.130   0.179
 2531SOL    HW310444   0.775   5.990   0.190
 2531SOL    MW410445   0.771   6.076   0.209
 2532SOL     OW10446   1.567   7.198   1.539
 2532SOL    HW210447   1.609   7.183   1.624
 2532SOL    HW310448   1.558   7.111   1.501
 2532SOL    MW410449   1.571   7.186   1.546
 2533SOL     OW10450   1.227   5.677   1.130
 2533SOL    HW210451   1.282   5.686   1.052
 2533SOL    HW310452   1.282   5.711   1.201
 2533SOL    MW410453   1.241   5.682   1.129
 2534SOL     OW10454   0.234   6.590   0.314
 2534SOL    HW210455   0.171   6.606   0.243
 2534SOL    HW310456   0.181   6.553   0.385
 2534SOL    MW410457   0.219   6.587   0.314
 2535SOL     OW10458   0.590   6.944   0.173
 2535SOL    HW210459   0.605   6.920   0.265
 2535SOL    HW310460   0.498   6.922   0.157
 2535SOL    MW410461   0.580   6.937   0.183
 2536SOL     OW10462   1.129   7.175   0.325
 2536SOL    HW210463   1.137   7.093   0.276
 2536SOL    HW310464   1.048   7.214   0.292
 2536SOL    MW410465   1.119   7.170   0.315
 2537SOL     OW10466   0.388   7.333   0.894
 2537SOL    HW210467   0.392   7.244   0.929
 2537SOL    HW310468   0.414   7.324   0.803
 2537SOL    MW410469   0.391   7.321   0.886
 2538SOL     OW10470   1.005   6.811   1.137
 2538SOL    HW210471   0.937   6.745   1.153
 2538SOL    HW310472   1.023   6.805   1.044
 2538SOL    MW410473   0.998   6.802   1.128
 2539SOL     OW10474   0.094   7.086   1.388
 2539SOL    HW210475   0.084   7.044   1.474
 2539SOL    HW310476   0.015   7.139   1.378
 2539SOL    MW410477   0.083   7.087   1.399
 2540SOL     OW10478   0.998   5.950   0.958
 2540SOL    HW210479   0.928   5.902   1.003
 2540SOL    HW310480   1.030   6.013   1.022
 2540SOL    MW410481   0.993   5.952   0.972
 2541SOL     OW10482   0.649   6.386   1.578
 2541SOL    HW210483   0.642   6.481   1.566
 2541SOL    HW310484   0.658   6.375   1.673
 2541SOL    MW410485   0.650   6.398   1.588
 2542SOL     OW10486   0.370   6.901   1.836
 2542SOL    HW210487   0.442   6.903   1.773
 2542SOL    HW310488   0.340   6.810   1.835
 2542SOL    MW410489   0.375   6.890   1.828
 2543SOL     OW10490   1.454   5.664   1.303
 2543SOL    HW210491   1.525   5.610   1.267
 2543SOL    HW310492   1.453   5.643   1.396
 2543SOL    MW410493   1.463   5.655   1.311
 2544SOL     OW10494   1.654   7.194   1.787
 2544SOL    HW210495   1.627   7.191   1.878
 2544SOL    HW310496   1.750   7.198   1.790
 2544SOL    MW410497   1.664   7.194   1.799
 2545SOL     OW10498   0.465   6.056   0.771
 2545SOL    HW210499   0.536   6.004   0.734
 2545SOL    HW310500   0.451   6.021   0.858
 2545SOL    MW410501   0.473   6.045   0.778
 2546SOL     OW10502   0.020   7.391   1.843
 2546SOL    HW210503   0.070   7.369   1.765
 2546SOL    HW310504   0.028   7.486   1.851
 2546SOL    MW410505   0.028   7.400   1.834
 2547SOL     OW10506   0.781   7.149   0.847
 2547SOL    HW210507   0.709   7.086   0.860
 2547SOL    HW310508   0.742   7.234   0.865
 2547SOL    MW410509   0.765   7.152   0.850
 2548SOL     OW10510   1.101   5.997   0.495
 2548SOL    HW210511   1.123   5.934   0.427
 2548SOL    HW310512   1.006   5.989   0.506
 2548SOL    MW410513   1.091   5.988   0.487
 2549SOL     OW10514   0.186   5.687   0.427
 2549SOL    HW210515   0.257   5.708   0.366
 2549SOL    HW310516   0.140   5.615   0.385
 2549SOL    MW410517   0.190   5.681   0.413
 2550SOL     OW10518   0.017   6.154   1.570
 2550SOL    HW210519   0.081   6.220   1.545
 2550SOL    HW310520  -0.064   6.181   1.527
 2550SOL    MW410521   0.015   6.166   1.562
 2551SOL     OW10522   1.755   7.061   0.527
 2551SOL    HW210523   1.725   6.994   0.588
 2551SOL    HW310524   1.849   7.067   0.541
 2551SOL    MW410525   1.763   7.053   0.537
 2552SOL     OW10526   1.311   6.738   0.457
 2552SOL    HW210527   1.283   6.824   0.490
 2552SOL    HW310528   1.339   6.754   0.367
 2552SOL    MW410529   1.311   6.752   0.449
 2553SOL     OW10530   0.973   5.658   0.510
 2553SOL    HW210531   1.010   5.717   0.575
 2553SOL    HW310532   0.950   5.714   0.436
 2553SOL    MW410533   0.974   5.673   0.509
 2554SOL     OW10534   1.826   6.540   0.932
 2554SOL    HW210535   1.817   6.572   0.843
 2554SOL    HW310536   1.779   6.456   0.932
 2554SOL    MW410537   1.819   6.533   0.922
 2555SOL     OW10538   0.202   6.380   1.511
 2555SOL    HW210539   0.223   6.449   1.449
 2555SOL    HW310540   0.282   6.327   1.516
 2555SOL    MW410541   0.215   6.381   1.505
 2556SOL     OW10542   1.738   6.471   0.633
 2556SOL    HW210543   1.832   6.460   0.621
 2556SOL    HW310544   1.714   6.543   0.574
 2556SOL    MW410545   1.748   6.479   0.624
 2557SOL     OW10546   0.187   6.395   1.778
 2557SOL    HW210547   0.113   6.339   1.804
 2557SOL    HW310548   0.182   6.398   1.683
 2557SOL    MW410549   0.176   6.388   1.768
 2558SOL     OW10550   0.353   5.682   1.228
 2558SOL    HW210551   0.396   5.766   1.248
 2558SOL    HW310552   0.426   5.620   1.221
 2558SOL    MW410553   0.368   5.685   1.229
 2559SOL     OW10554   0.394   6.349   0.406
 2559SOL    HW210555   0.394   6.444   0.391
 2559SOL    HW310556   0.471   6.333   0.460
 2559SOL    MW410557   0.404   6.360   0.411
 2560SOL     OW10558   1.170   6.208   1.470
 2560SOL    HW210559   1.206   6.181   1.386
 2560SOL    HW310560   1.083   6.242   1.449
 2560SOL    MW410561   1.164   6.209   1.457
 2561SOL     OW10562   0.153   6.080   0.695
 2561SOL    HW210563   0.215   6.087   0.768
 2561SOL    HW310564   0.153   5.987   0.672
 2561SOL    MW410565   0.161   6.069   0.702
 2562SOL     OW10566   1.700   7.420   0.227
 2562SOL    HW210567   1.767   7.453   0.167
 2562SOL    HW310568   1.657   7.499   0.261
 2562SOL    MW410569   1.702   7.435   0.223
 2563SOL     OW10570   0.835   6.341   1.179
 2563SOL    HW210571   0.793   6.259   1.155
 2563SOL    HW310572   0.836   6.340   1.275
 2563SOL    MW410573   0.828   6.330   1.188
 2564SOL     OW10574   1.506   7.474   1.578
 2564SOL    HW210575   1.509   7.380   1.561
 2564SOL    HW310576   1.529   7.482   1.670
 2564SOL    MW410577   1.509   7.462   1.588
 2565SOL     OW10578   0.639   5.811   1.284
 2565SOL    HW210579   0.570   5.874   1.305
 2565SOL    HW310580   0.666   5.775   1.369
 2565SOL    MW410581   0.633   5.814   1.297
 2566SOL     OW10582   0.022   6.652   0.153
 2566SOL    HW210583  -0.009   6.717   0.216
 2566SOL    HW310584  -0.029   6.574   0.172
 2566SOL    MW410585   0.012   6.649   0.163
 2567SOL     OW10586   1.434   5.664   0.901
 2567SOL    HW210587   1.522   5.673   0.938
 2567SOL    HW310588   1.444   5.605   0.827
 2567SOL    MW410589   1.448   5.658   0.895
 2568SOL     OW10590   1.466   6.403   0.745
 2568SOL    HW210591   1.546   6.418   0.694
 2568SOL    HW310592   1.459   6.308   0.751
 2568SOL    MW410593   1.475   6.392   0.740
 2569SOL     OW10594   0.606   7.452   0.095
 2569SOL    HW210595   0.511   7.452   0.087
 2569SOL    HW310596   0.622   7.398   0.173
 2569SOL    MW410597   0.596   7.446   0.104
 2570SOL     OW10598   0.916   6.329   1.442
 2570SOL    HW210599   0.985   6.396   1.439
 2570SOL    HW310600   0.849   6.367   1.498
 2570SOL    MW410601   0.917   6.342   1.449
 2571SOL     OW10602   0.334   6.629   1.690
 2571SOL    HW210603   0.288   6.545   1.692
 2571SOL    HW310604   0.391   6.623   1.614
 2571SOL    MW410605   0.336   6.617   1.682
 2572SOL     OW10606   1.451   6.272   0.011
 2572SOL    HW210607   1.379   6.248  -0.047
 2572SOL    HW310608   1.517   6.309  -0.047
 2572SOL    MW410609   1.450   6.274  -0.004
 2573SOL     OW10610   0.585   7.004   0.691
 2573SOL    HW210611   0.650   6.937   0.712
 2573SOL    HW310612   0.637   7.081   0.668
 2573SOL    MW410613   0.600   7.006   0.690
 2574SOL     OW10614   0.846   6.169   0.821
 2574SOL    HW210615   0.786   6.187   0.893
 2574SOL    HW310616   0.880   6.081   0.840
 2574SOL    MW410617   0.842   6.159   0.834
 2575SOL     OW10618   1.787   5.668   1.490
 2575SOL    HW210619   1.708   5.714   1.518
 2575SOL    HW310620   1.822   5.722   1.419
 2575SOL    MW410621   1.781   5.681   1.484
 2576SOL     OW10622   1.071   6.752   0.840
 2576SOL    HW210623   1.163   6.733   0.858
 2576SOL    HW310624   1.044   6.682   0.780
 2576SOL    MW410625   1.079   6.740   0.834
 2577SOL     OW10626   0.864   6.572   0.195
 2577SOL    HW210627   0.850   6.484   0.160
 2577SOL    HW310628   0.815   6.629   0.136
 2577SOL    MW410629   0.856   6.567   0.183
 2578SOL     OW10630   1.345   6.990   0.936
 2578SOL    HW210631   1.318   7.074   0.901
 2578SOL    HW310632   1.305   6.985   1.023
 2578SOL    MW410633   1.338   6.999   0.942
 2579SOL     OW10634   1.264   6.938   1.204
 2579SOL    HW210635   1.275   6.905   1.293
 2579SOL    HW310636   1.183   6.897   1.173
 2579SOL    MW410637   1.254   6.930   1.210
 2580SOL     OW10638   0.277   6.296   0.974
 2580SOL    HW210639   0.227   6.295   1.055
 2580SOL    HW310640   0.297   6.388   0.958
 2580SOL    MW410641   0.273   6.308   0.982
 2581SOL     OW10642   1.344   7.060   1.736
 2581SOL    HW210643   1.344   7.154   1.752
 2581SOL    HW310644   1.389   7.050   1.652
 2581SOL    MW410645   1.350   7.070   1.727
 2582SOL     OW10646   1.583   5.778   0.297
 2582SOL    HW210647   1.576   5.782   0.392
 2582SOL    HW310648   1.595   5.869   0.270
 2582SOL    MW410649   1.584   5.791   0.305
 2583SOL     OW10650   0.872   6.341   0.411
 2583SOL    HW210651   0.852   6.327   0.318
 2583SOL    HW310652   0.965   6.320   0.418
 2583SOL    MW410653   0.882   6.336   0.400
 2584SOL     OW10654   0.199   5.964   1.715
 2584SOL    HW210655   0.156   6.023   1.652
 2584SOL    HW310656   0.267   6.019   1.755
 2584SOL    MW410657   0.203   5.979   1.712
 2585SOL     OW10658   1.311   6.584   1.260
 2585SOL    HW210659   1.374   6.581   1.333
 2585SOL    HW310660   1.227   6.602   1.302
 2585SOL    MW410661   1.307   6.586   1.275
 2586SOL     OW10662   0.855   7.299   0.449
 2586SOL    HW210663   0.913   7.370   0.476
 2586SOL    HW310664   0.878   7.227   0.507
 2586SOL    MW410665   0.866   7.299   0.460
 2587SOL     OW10666   1.650   5.761   1.039
 2587SOL    HW210667   1.695   5.679   1.058
 2587SOL    HW310668   1.670   5.817   1.115
 2587SOL    MW410669   1.660   5.757   1.051
 2588SOL     OW10670   0.098   5.604   1.138
 2588SOL    HW210671   0.089   5.605   1.043
 2588SOL    HW310672   0.192   5.616   1.153
 2588SOL    MW410673   0.110   5.607   1.129
 2589SOL     OW10674   1.735   6.797   0.758
 2589SOL    HW210675   1.714   6.743   0.681
 2589SOL    HW310676   1.831   6.795   0.762
 2589SOL    MW410677   1.744   6.790   0.747
 2590SOL     OW10678   0.427   6.942   1.501
 2590SOL    HW210679   0.348   6.892   1.524
 2590SOL    HW310680   0.497   6.901   1.551
 2590SOL    MW410681   0.425   6.930   1.511
 2591SOL     OW10682   0.311   5.731   0.184
 2591SOL    HW210683   0.240   5.786   0.152
 2591SOL    HW310684   0.353   5.697   0.105
 2591SOL    MW410685   0.307   5.733   0.170
 2592SOL     OW10686   1.435   6.228   1.020
 2592SOL    HW210687   1.358   6.274   0.986
 2592SOL    HW310688   1.492   6.297   1.054
 2592SOL    MW410689   1.432   6.243   1.020
 2593SOL     OW10690   0.067   5.830   0.033
 2593SOL    HW210691   0.034   5.909   0.077
 2593SOL    HW310692   0.122   5.863  -0.038
 2593SOL    MW410693   0.070   5.844   0.030
 2594SOL     OW10694   0.101   7.087   0.222
 2594SOL    HW210695   0.118   7.171   0.264
 2594SOL    HW310696   0.136   7.096   0.134
 2594SOL    MW410697   0.106   7.100   0.216
 2595SOL     OW10698   1.373   7.176   0.439
 2595SOL    HW210699   1.436   7.166   0.368
 2595SOL    HW310700   1.290   7.196   0.394
 2595SOL    MW410701   1.370   7.177   0.424
 2596SOL     OW10702   1.736   6.444   2.125
 2596SOL    HW210703   1.777   6.386   2.190
 2596SOL    HW310704   1.643   6.436   2.142
 2596SOL    MW410705   1.730   6.436   2.135
 2597SOL     OW10706   1.602   6.376   3.120
 2597SOL    HW210707   1.557   6.443   3.171
 2597SOL    HW310708   1.690   6.412   3.106
 2597SOL    MW410709   1.608   6.389   3.124
 2598SOL     OW10710   0.530   6.627   2.354
 2598SOL    HW210711   0.620   6.602   2.338
 2598SOL    HW310712   0.526   6.720   2.331
 2598SOL    MW410713   0.542   6.636   2.349
 2599SOL     OW10714   1.646   7.330   2.496
 2599SOL    HW210715   1.658   7.276   2.574
 2599SOL    HW310716   1.683   7.278   2.425
 2599SOL    MW410717   1.652   7.315   2.497
 2600SOL     OW10718   1.025   7.215   3.497
 2600SOL    HW210719   1.066   7.251   3.418
 2600SOL    HW310720   1.060   7.126   3.504
 2600SOL    MW410721   1.036   7.208   3.488
 2601SOL     OW10722   1.582   6.770   3.101
 2601SOL    HW210723   1.503   6.735   3.059
 2601SOL    HW310724   1.609   6.842   3.045
 2601SOL    MW410725   1.575   6.775   3.088
 2602SOL     OW10726   0.814   6.083   2.367
 2602SOL    HW210727   0.789   6.171   2.395
 2602SOL    HW310728   0.811   6.086   2.271
 2602SOL    MW410729   0.810   6.095   2.359
 2603SOL     OW10730   0.256   6.111   2.295
 2603SOL    HW210731   0.288   6.199   2.277
 2603SOL    HW310732   0.244   6.109   2.390
 2603SOL    MW410733   0.259   6.123   2.307
 2604SOL     OW10734   0.334   6.524   3.196
 2604SOL    HW210735   0.397   6.471   3.147
 2604SOL    HW310736   0.315   6.598   3.139
 2604SOL    MW410737   0.340   6.526   3.183
 2605SOL     OW10738   0.655   5.866   2.382
 2605SOL    HW210739   0.713   5.942   2.384
 2605SOL    HW310740   0.590   5.887   2.315
 2605SOL    MW410741   0.654   5.878   2.373
 2606SOL     OW10742   0.742   6.793   2.557
 2606SOL    HW210743   0.822   6.796   2.609
 2606SOL    HW310744   0.770   6.760   2.471
 2606SOL    MW410745   0.756   6.789   2.552
 2607SOL     OW10746   0.767   7.134   3.460
 2607SOL    HW210747   0.851   7.160   3.499
 2607SOL    HW310748   0.791   7.078   3.386
 2607SOL    MW410749   0.781   7.130   3.455
 2608SOL     OW10750   0.519   6.297   2.548
 2608SOL    HW210751   0.504   6.217   2.599
 2608SOL    HW310752   0.601   6.332   2.582
 2608SOL    MW410753   0.527   6.289   2.560
 2609SOL     OW10754   0.856   6.983   3.233
 2609SOL    HW210755   0.820   7.049   3.173
 2609SOL    HW310756   0.784   6.921   3.246
 2609SOL    MW410757   0.842   6.983   3.227
 2610SOL     OW10758   0.661   6.123   2.925
 2610SOL    HW210759   0.567   6.119   2.943
 2610SOL    HW310760   0.691   6.032   2.934
 2610SOL    MW410761   0.652   6.111   2.928
 2611SOL     OW10762   0.407   6.537   2.829
 2611SOL    HW210763   0.362   6.544   2.745
 2611SOL    HW310764   0.387   6.620   2.873
 2611SOL    MW410765   0.399   6.549   2.823
 2612SOL     OW10766   0.104   7.383   2.704
 2612SOL    HW210767   0.193   7.375   2.739
 2612SOL    HW310768   0.068   7.295   2.709
 2612SOL    MW410769   0.111   7.370   2.709
 2613SOL     OW10770   1.369   6.775   2.073
 2613SOL    HW210771   1.287   6.811   2.039
 2613SOL    HW310772   1.437   6.818   2.022
 2613SOL    MW410773   1.367   6.785   2.061
 2614SOL     OW10774   0.368   6.910   2.739
 2614SOL    HW210775   0.344   6.963   2.815
 2614SOL    HW310776   0.424   6.968   2.687
 2614SOL    MW410777   0.372   6.925   2.742
 2615SOL     OW10778   0.930   6.554   2.549
 2615SOL    HW210779   0.844   6.541   2.589
 2615SOL    HW310780   0.983   6.481   2.581
 2615SOL    MW410781   0.926   6.543   2.558
 2616SOL     OW10782   0.338   7.206   3.334
 2616SOL    HW210783   0.246   7.182   3.319
 2616SOL    HW310784   0.382   7.123   3.351
 2616SOL    MW410785   0.332   7.191   3.333
 2617SOL     OW10786   0.921   6.916   2.266
 2617SOL    HW210787   0.898   6.978   2.334
 2617SOL    HW310788   0.878   6.834   2.292
 2617SOL    MW410789   0.913   6.912   2.277
 2618SOL     OW10790   1.794   5.917   2.722
 2618SOL    HW210791   1.731   5.897   2.791
 2618SOL    HW310792   1.784   5.846   2.659
 2618SOL    MW410793   1.784   5.904   2.723
 2619SOL     OW10794   0.418   5.889   2.234
 2619SOL    HW210795   0.392   5.851   2.150
 2619SOL    HW310796   0.355   5.959   2.250
 2619SOL    MW410797   0.407   5.892   2.225
 2620SOL     OW10798   0.253   6.850   2.271
 2620SOL    HW210799   0.201   6.918   2.227
 2620SOL    HW310800   0.250   6.776   2.211
 2620SOL    MW410801   0.245   6.849   2.258
 2621SOL     OW10802   0.915   7.313   2.049
 2621SOL    HW210803   0.870   7.329   2.132
 2621SOL    HW310804   0.846   7.278   1.991
 2621SOL    MW410805   0.901   7.310   2.051
 2622SOL     OW10806   1.850   6.086   2.024
 2622SOL    HW210807   1.759   6.088   2.052
 2622SOL    HW310808   1.895   6.148   2.082
 2622SOL    MW410809   1.843   6.094   2.034
 2623SOL     OW10810   1.595   6.689   2.374
 2623SOL    HW210811   1.505   6.689   2.409
 2623SOL    HW310812   1.588   6.735   2.291
 2623SOL    MW410813   1.582   6.695   2.368
 2624SOL     OW10814   1.395   6.324   3.446
 2624SOL    HW210815   1.464   6.262   3.423
 2624SOL    HW310816   1.320   6.298   3.393
 2624SOL    MW410817   1.395   6.311   3.437
 2625SOL     OW10818   0.136   7.204   2.998
 2625SOL    HW210819   0.119   7.150   3.075
 2625SOL    HW310820   0.124   7.294   3.028
 2625SOL    MW410821   0.133   7.208   3.012
 2626SOL     OW10822   1.131   6.711   3.438
 2626SOL    HW210823   1.116   6.804   3.423
 2626SOL    HW310824   1.226   6.701   3.438
 2626SOL    MW410825   1.140   6.721   3.435
 2627SOL     OW10826   0.927   6.135   3.639
 2627SOL    HW210827   1.017   6.136   3.606
 2627SOL    HW310828   0.886   6.060   3.597
 2627SOL    MW410829   0.933   6.125   3.630
 2628SOL     OW10830   1.502   6.667   2.766
 2628SOL    HW210831   1.505   6.601   2.697
 2628SOL    HW310832   1.587   6.710   2.762
 2628SOL    MW410833   1.514   6.663   2.757
 2629SOL     OW10834   1.122   6.270   2.335
 2629SOL    HW210835   1.148   6.294   2.246
 2629SOL    HW310836   1.104   6.177   2.331
 2629SOL    MW410837   1.124   6.262   2.322
 2630SOL     OW10838   1.787   6.890   2.186
 2630SOL    HW210839   1.743   6.931   2.261
 2630SOL    HW310840   1.844   6.958   2.151
 2630SOL    MW410841   1.789   6.904   2.191
 2631SOL     OW10842   0.707   5.939   3.589
 2631SOL    HW210843   0.717   5.865   3.529
 2631SOL    HW310844   0.743   5.908   3.672
 2631SOL    MW410845   0.713   5.925   3.591
 2632SOL     OW10846   0.443   7.306   2.504
 2632SOL    HW210847   0.475   7.394   2.482
 2632SOL    HW310848   0.396   7.278   2.426
 2632SOL    MW410849   0.442   7.314   2.491
 2633SOL     OW10850   1.827   5.668   2.553
 2633SOL    HW210851   1.881   5.619   2.615
 2633SOL    HW310852   1.770   5.602   2.514
 2633SOL    MW410853   1.827   5.652   2.555
 2634SOL     OW10854   0.159   7.366   2.081
 2634SOL    HW210855   0.188   7.456   2.073
 2634SOL    HW310856   0.109   7.349   2.002
 2634SOL    MW410857   0.157   7.374   2.070
 2635SOL     OW10858   0.946   5.621   2.966
 2635SOL    HW210859   0.905   5.699   2.928
 2635SOL    HW310860   1.040   5.639   2.961
 2635SOL    MW410861   0.952   5.633   2.961
 2636SOL     OW10862   1.563   7.174   2.052
 2636SOL    HW210863   1.611   7.243   2.098
 2636SOL    HW310864   1.484   7.218   2.021
 2636SOL    MW410865   1.558   7.188   2.055
 2637SOL     OW10866   0.961   6.299   1.996
 2637SOL    HW210867   0.963   6.246   1.917
 2637SOL    HW310868   1.049   6.336   2.002
 2637SOL    MW410869   0.973   6.298   1.985
 2638SOL     OW10870   1.575   6.225   2.332
 2638SOL    HW210871   1.614   6.225   2.419
 2638SOL    HW310872   1.516   6.301   2.332
 2638SOL    MW410873   1.572   6.236   2.343
 2639SOL     OW10874   0.892   6.592   3.461
 2639SOL    HW210875   0.869   6.572   3.551
 2639SOL    HW310876   0.977   6.636   3.466
 2639SOL    MW410877   0.899   6.595   3.473
 2640SOL     OW10878   0.972   5.729   3.221
 2640SOL    HW210879   0.978   5.691   3.134
 2640SOL    HW310880   0.961   5.823   3.206
 2640SOL    MW410881   0.973   5.737   3.209
 2641SOL     OW10882   1.061   6.218   3.055
 2641SOL    HW210883   1.136   6.247   3.002
 2641SOL    HW310884   0.993   6.283   3.039
 2641SOL    MW410885   1.062   6.230   3.045
 2642SOL     OW10886   1.611   6.186   3.332
 2642SOL    HW210887   1.592   6.095   3.311
 2642SOL    HW310888   1.589   6.235   3.253
 2642SOL    MW410889   1.606   6.179   3.319
 2643SOL     OW10890   1.753   7.280   3.236
 2643SOL    HW210891   1.681   7.242   3.287
 2643SOL    HW310892   1.770   7.365   3.277
 2643SOL    MW410893   1.747   7.285   3.248
 2644SOL     OW10894   1.058   5.924   3.438
 2644SOL    HW210895   1.024   5.963   3.357
 2644SOL    HW310896   1.036   5.832   3.431
 2644SOL    MW410897   1.051   5.917   3.428
 2645SOL     OW10898   1.467   6.738   3.514
 2645SOL    HW210899   1.549   6.779   3.544
 2645SOL    HW310900   1.430   6.700   3.594
 2645SOL    MW410901   1.473   6.739   3.529
 2646SOL     OW10902   1.762   6.111   2.498
 2646SOL    HW210903   1.851   6.080   2.515
 2646SOL    HW310904   1.705   6.051   2.546
 2646SOL    MW410905   1.765   6.099   2.507
 2647SOL     OW10906   0.188   5.825   2.527
 2647SOL    HW210907   0.179   5.765   2.453
 2647SOL    HW310908   0.121   5.796   2.590
 2647SOL    MW410909   0.178   5.812   2.525
 2648SOL     OW10910   1.131   6.918   2.088
 2648SOL    HW210911   1.081   6.920   2.170
 2648SOL    HW310912   1.065   6.936   2.020
 2648SOL    MW410913   1.117   6.920   2.090
 2649SOL     OW10914   0.135   5.998   2.890
 2649SOL    HW210915   0.107   6.089   2.899
 2649SOL    HW310916   0.072   5.959   2.829
 2649SOL    MW410917   0.122   6.004   2.884
 2650SOL     OW10918   0.594   7.336   2.196
 2650SOL    HW210919   0.515   7.294   2.229
 2650SOL    HW310920   0.660   7.319   2.263
 2650SOL    MW410921   0.593   7.328   2.209
 2651SOL     OW10922   1.722   6.856   3.593
 2651SOL    HW210923   1.772   6.782   3.625
 2651SOL    HW310924   1.668   6.883   3.668
 2651SOL    MW410925   1.722   6.850   3.606
 2652SOL     OW10926   0.730   6.751   1.903
 2652SOL    HW210927   0.652   6.697   1.890
 2652SOL    HW310928   0.701   6.824   1.956
 2652SOL    MW410929   0.716   6.753   1.908
 2653SOL     OW10930   1.856   6.491   3.095
 2653SOL    HW210931   1.872   6.529   3.008
 2653SOL    HW310932   1.890   6.557   3.156
 2653SOL    MW410933   1.863   6.504   3.091
 2654SOL     OW10934   1.648   7.200   2.764
 2654SOL    HW210935   1.677   7.267   2.825
 2654SOL    HW310936   1.629   7.124   2.819
 2654SOL    MW410937   1.650   7.200   2.779
 2655SOL     OW10938   1.311   7.267   1.971
 2655SOL    HW210939   1.237   7.230   2.021
 2655SOL    HW310940   1.319   7.357   2.004
 2655SOL    MW410941   1.302   7.274   1.983
 2656SOL     OW10942   0.119   6.273   3.060
 2656SOL    HW210943   0.181   6.303   3.126
 2656SOL    HW310944   0.053   6.342   3.054
 2656SOL    MW410945   0.118   6.286   3.067
 2657SOL     OW10946   1.535   6.941   1.913
 2657SOL    HW210947   1.482   6.990   1.849
 2657SOL    HW310948   1.566   7.007   1.974
 2657SOL    MW410949   1.533   6.955   1.911
 2658SOL     OW10950   0.760   5.830   1.968
 2658SOL    HW210951   0.708   5.750   1.956
 2658SOL    HW310952   0.847   5.807   1.936
 2658SOL    MW410953   0.763   5.816   1.962
 2659SOL     OW10954   0.214   7.382   3.512
 2659SOL    HW210955   0.188   7.450   3.450
 2659SOL    HW310956   0.262   7.319   3.460
 2659SOL    MW410957   0.216   7.382   3.498
 2660SOL     OW10958   0.266   6.701   3.019
 2660SOL    HW210959   0.319   6.776   3.044
 2660SOL    HW310960   0.185   6.739   2.985
 2660SOL    MW410961   0.262   6.716   3.019
 2661SOL     OW10962   0.806   6.605   3.007
 2661SOL    HW210963   0.834   6.514   3.019
 2661SOL    HW310964   0.735   6.599   2.943
 2661SOL    MW410965   0.799   6.593   3.002
 2662SOL     OW10966   0.121   6.470   2.425
 2662SOL    HW210967   0.212   6.485   2.452
 2662SOL    HW310968   0.124   6.391   2.371
 2662SOL    MW410969   0.133   6.462   2.423
 2663SOL     OW10970   0.357   6.178   3.679
 2663SOL    HW210971   0.304   6.258   3.686
 2663SOL    HW310972   0.427   6.190   3.744
 2663SOL    MW410973   0.359   6.191   3.687
 2664SOL     OW10974   0.743   5.728   3.386
 2664SOL    HW210975   0.720   5.636   3.388
 2664SOL    HW310976   0.829   5.730   3.343
 2664SOL    MW410977   0.750   5.718   3.382
 2665SOL     OW10978   0.427   6.252   3.425
 2665SOL    HW210979   0.507   6.302   3.411
 2665SOL    HW310980   0.418   6.246   3.520
 2665SOL    MW410981   0.436   6.258   3.435
 2666SOL     OW10982   0.748   7.402   2.799
 2666SOL    HW210983   0.837   7.417   2.829
 2666SOL    HW310984   0.743   7.449   2.715
 2666SOL    MW410985   0.758   7.410   2.792
 2667SOL     OW10986   1.404   5.777   3.696
 2667SOL    HW210987   1.460   5.704   3.722
 2667SOL    HW310988   1.374   5.815   3.778
 2667SOL    MW410989   1.408   5.772   3.709
 2668SOL     OW10990   0.129   7.082   2.464
 2668SOL    HW210991   0.101   7.121   2.546
 2668SOL    HW310992   0.149   6.991   2.486
 2668SOL    MW410993   0.127   7.074   2.477
 2669SOL     OW10994   0.962   7.125   2.499
 2669SOL    HW210995   1.045   7.079   2.483
 2669SOL    HW310996   0.952   7.124   2.595
 2669SOL    MW410997   0.972   7.118   2.509
 2670SOL     OW10998   1.794   6.270   2.813
 2670SOL    HW210999   1.883   6.300   2.795
 2670SOL    HW311000   1.774   6.210   2.742
 2670SOL    MW411001   1.803   6.267   2.802
 2671SOL     OW11002   1.645   6.449   3.693
 2671SOL    HW211003   1.700   6.373   3.674
 2671SOL    HW311004   1.647   6.457   3.788
 2671SOL    MW411005   1.653   6.440   3.701
 2672SOL     OW11006   0.695   7.182   1.904
 2672SOL    HW211007   0.635   7.251   1.874
 2672SOL    HW311008   0.640   7.124   1.957
 2672SOL    MW411009   0.679   7.184   1.906
 2673SOL     OW11010   1.133   5.827   2.127
 2673SOL    HW211011   1.066   5.803   2.064
 2673SOL    HW311012   1.198   5.876   2.076
 2673SOL    MW411013   1.133   5.829   2.112
 2674SOL     OW11014   0.940   6.011   3.212
 2674SOL    HW211015   0.859   6.052   3.240
 2674SOL    HW311016   0.987   6.079   3.164
 2674SOL    MW411017   0.935   6.026   3.210
 2675SOL     OW11018   1.200   6.349   2.835
 2675SOL    HW211019   1.213   6.443   2.845
 2675SOL    HW311020   1.161   6.339   2.749
 2675SOL    MW411021   1.196   6.360   2.825
 2676SOL     OW11022   0.652   6.544   2.639
 2676SOL    HW211023   0.563   6.535   2.672
 2676SOL    HW311024   0.656   6.634   2.607
 2676SOL    MW411025   0.641   6.555   2.639
 2677SOL     OW11026   1.451   6.127   2.634
 2677SOL    HW211027   1.396   6.048   2.633
 2677SOL    HW311028   1.433   6.168   2.718
 2677SOL    MW411029   1.441   6.122   2.643
 2678SOL     OW11030   0.422   5.814   3.451
 2678SOL    HW211031   0.343   5.832   3.503
 2678SOL    HW311032   0.417   5.876   3.378
 2678SOL    MW411033   0.412   5.824   3.448
 2679SOL     OW11034   1.070   6.331   2.591
 2679SOL    HW211035   1.007   6.263   2.615
 2679SOL    HW311036   1.090   6.312   2.499
 2679SOL    MW411037   1.064   6.318   2.583
 2680SOL     OW11038   0.326   7.226   2.293
 2680SOL    HW211039   0.287   7.273   2.219
 2680SOL    HW311040   0.260   7.161   2.318
 2680SOL    MW411041   0.313   7.224   2.287
 2681SOL     OW11042   0.818   6.635   2.317
 2681SOL    HW211043   0.820   6.609   2.224
 2681SOL    HW311044   0.876   6.572   2.360
 2681SOL    MW411045   0.826   6.624   2.311
 2682SOL     OW11046   1.371   7.195   3.089
 2682SOL    HW211047   1.296   7.241   3.127
 2682SOL    HW311048   1.353   7.102   3.106
 2682SOL    MW411049   1.360   7.189   3.097
 2683SOL     OW11050   1.375   7.403   2.519
 2683SOL    HW211051   1.318   7.356   2.458
 2683SOL    HW311052   1.461   7.364   2.506
 2683SOL    MW411053   1.378   7.394   2.509
 2684SOL     OW11054   1.328   5.879   2.650
 2684SOL    HW211055   1.356   5.811   2.711
 2684SOL    HW311056   1.242   5.850   2.620
 2684SOL    MW411057   1.321   5.866   2.654
 2685SOL     OW11058   0.133   6.813   2.584
 2685SOL    HW211059   0.197   6.845   2.647
 2685SOL    HW311060   0.182   6.749   2.532
 2685SOL    MW411061   0.148   6.809   2.585
 2686SOL     OW11062   0.633   6.889   3.566
 2686SOL    HW211063   0.681   6.972   3.553
 2686SOL    HW311064   0.690   6.837   3.622
 2686SOL    MW411065   0.647   6.893   3.572
 2687SOL     OW11066   0.209   7.131   3.706
 2687SOL    HW211067   0.265   7.055   3.721
 2687SOL    HW311068   0.158   7.109   3.628
 2687SOL    MW411069   0.209   7.118   3.697
 2688SOL     OW11070   1.308   5.983   1.985
 2688SOL    HW211071   1.281   6.049   1.921
 2688SOL    HW311072   1.378   6.026   2.035
 2688SOL    MW411073   1.313   5.996   1.982
 2689SOL     OW11074   0.976   5.688   1.922
 2689SOL    HW211075   1.032   5.680   1.844
 2689SOL    HW311076   0.953   5.598   1.944
 2689SOL    MW411077   0.981   5.675   1.915
 2690SOL     OW11078   1.481   6.539   2.127
 2690SOL    HW211079   1.448   6.628   2.117
 2690SOL    HW311080   1.446   6.510   2.212
 2690SOL    MW411081   1.471   6.548   2.138
 2691SOL     OW11082   1.094   6.968   3.315
 2691SOL    HW211083   1.005   6.974   3.283
 2691SOL    HW311084   1.138   7.047   3.283
 2691SOL    MW411085   1.089   6.978   3.307
 2692SOL     OW11086   0.387   5.636   3.657
 2692SOL    HW211087   0.315   5.601   3.605
 2692SOL    HW311088   0.445   5.677   3.592
 2692SOL    MW411089   0.385   5.637   3.642
 2693SOL     OW11090   0.411   7.126   2.956
 2693SOL    HW211091   0.456   7.188   3.013
 2693SOL    HW311092   0.318   7.145   2.969
 2693SOL    MW411093   0.404   7.136   2.963
 2694SOL     OW11094   1.851   6.655   3.310
 2694SOL    HW211095   1.766   6.668   3.269
 2694SOL    HW311096   1.831   6.619   3.397
 2694SOL    MW411097   1.838   6.651   3.315
 2695SOL     OW11098   0.833   7.194   3.064
 2695SOL    HW211099   0.857   7.183   2.973
 2695SOL    HW311100   0.756   7.251   3.062
 2695SOL    MW411101   0.825   7.199   3.053
 2696SOL     OW11102   0.475   6.577   1.919
 2696SOL    HW211103   0.398   6.590   1.975
 2696SOL    HW311104   0.439   6.541   1.838
 2696SOL    MW411105   0.461   6.573   1.916
 2697SOL     OW11106   1.128   6.550   2.162
 2697SOL    HW211107   1.038   6.571   2.137
 2697SOL    HW311108   1.155   6.623   2.218
 2697SOL    MW411109   1.120   6.562   2.165
 2698SOL     OW11110   0.628   6.899   2.854
 2698SOL    HW211111   0.621   6.878   2.948
 2698SOL    HW311112   0.546   6.867   2.817
 2698SOL    MW411113   0.616   6.893   2.861
 2699SOL     OW11114   1.492   5.909   3.256
 2699SOL    HW211115   1.439   5.911   3.336
 2699SOL    HW311116   1.477   5.822   3.219
 2699SOL    MW411117   1.484   5.899   3.261
 2700SOL     OW11118   1.828   5.833   3.129
 2700SOL    HW211119   1.809   5.900   3.064
 2700SOL    HW311120   1.885   5.771   3.084
 2700SOL    MW411121   1.832   5.834   3.115
 2701SOL     OW11122   0.074   6.991   3.517
 2701SOL    HW211123   0.118   6.924   3.463
 2701SOL    HW311124  -0.011   6.953   3.537
 2701SOL    MW411125   0.069   6.977   3.513
 2702SOL     OW11126   0.757   5.666   2.569
 2702SOL    HW211127   0.686   5.727   2.551
 2702SOL    HW311128   0.808   5.663   2.488
 2702SOL    MW411129   0.753   5.672   2.556
 2703SOL     OW11130   0.515   6.906   2.318
 2703SOL    HW211131   0.508   6.938   2.408
 2703SOL    HW311132   0.425   6.890   2.290
 2703SOL    MW411133   0.503   6.908   2.325
 2704SOL     OW11134   1.110   7.299   3.227
 2704SOL    HW211135   1.030   7.284   3.177
 2704SOL    HW311136   1.117   7.394   3.234
 2704SOL    MW411137   1.101   7.310   3.221
 2705SOL     OW11138   1.224   7.264   2.717
 2705SOL    HW211139   1.271   7.337   2.676
 2705SOL    HW311140   1.145   7.303   2.753
 2705SOL    MW411141   1.219   7.279   2.716
 2706SOL     OW11142   1.632   7.359   2.992
 2706SOL    HW211143   1.675   7.329   3.072
 2706SOL    HW311144   1.551   7.307   2.989
 2706SOL    MW411145   1.627   7.348   3.002
 2707SOL     OW11146   0.717   6.323   3.699
 2707SOL    HW211147   0.787   6.265   3.671
 2707SOL    HW311148   0.660   6.268   3.754
 2707SOL    MW411149   0.719   6.310   3.703
 2708SOL     OW11150   1.504   6.535   3.332
 2708SOL    HW211151   1.509   6.588   3.412
 2708SOL    HW311152   1.466   6.452   3.360
 2708SOL    MW411153   1.500   6.530   3.347
 2709SOL     OW11154   1.144   5.670   3.578
 2709SOL    HW211155   1.139   5.577   3.559
 2709SOL    HW311156   1.227   5.681   3.624
 2709SOL    MW411157   1.152   5.659   3.582
 2710SOL     OW11158   0.518   6.190   2.032
 2710SOL    HW211159   0.484   6.246   2.102
 2710SOL    HW311160   0.589   6.140   2.072
 2710SOL    MW411161   0.524   6.191   2.046
 2711SOL     OW11162   1.614   6.941   2.854
 2711SOL    HW211163   1.649   6.923   2.767
 2711SOL    HW311164   1.519   6.942   2.841
 2711SOL    MW411165   1.606   6.938   2.841
 2712SOL     OW11166   1.043   6.589   3.223
 2712SOL    HW211167   1.086   6.624   3.301
 2712SOL    HW311168   1.026   6.666   3.169
 2712SOL    MW411169   1.046   6.604   3.226
 2713SOL     OW11170   1.574   6.076   2.096
 2713SOL    HW211171   1.566   6.147   2.033
 2713SOL    HW311172   1.592   6.120   2.179
 2713SOL    MW411173   1.575   6.090   2.098
 2714SOL     OW11174   0.434   5.731   2.525
 2714SOL    HW211175   0.484   5.774   2.456
 2714SOL    HW311176   0.349   5.775   2.525
 2714SOL    MW411177   0.431   5.744   2.516
 2715SOL     OW11178   0.193   6.793   3.385
 2715SOL    HW211179   0.221   6.746   3.463
 2715SOL    HW311180   0.114   6.748   3.356
 2715SOL    MW411181   0.186   6.782   3.391
 2716SOL     OW11182   0.701   6.120   3.352
 2716SOL    HW211183   0.673   6.208   3.376
 2716SOL    HW311184   0.670   6.064   3.423
 2716SOL    MW411185   0.693   6.123   3.364
 2717SOL     OW11186   1.243   6.338   2.071
 2717SOL    HW211187   1.290   6.356   1.990
 2717SOL    HW311188   1.209   6.422   2.099
 2717SOL    MW411189   1.245   6.352   2.064
 2718SOL     OW11190   0.356   6.516   2.565
 2718SOL    HW211191   0.414   6.572   2.513
 2718SOL    HW311192   0.400   6.431   2.567
 2718SOL    MW411193   0.369   6.513   2.558
 2719SOL     OW11194   1.496   5.868   2.402
 2719SOL    HW211195   1.418   5.818   2.427
 2719SOL    HW311196   1.467   5.959   2.402
 2719SOL    MW411197   1.482   5.872   2.405
 2720SOL     OW11198   1.082   5.830   2.561
 2720SOL    HW211199   1.102   5.905   2.505
 2720SOL    HW311200   1.062   5.869   2.646
 2720SOL    MW411201   1.083   5.846   2.565
 2721SOL     OW11202   0.978   7.080   1.893
 2721SOL    HW211203   1.005   7.158   1.845
 2721SOL    HW311204   0.885   7.095   1.912
 2721SOL    MW411205   0.969   7.093   1.889
 2722SOL     OW11206   1.842   6.603   3.580
 2722SOL    HW211207   1.755   6.583   3.616
 2722SOL    HW311208   1.896   6.529   3.605
 2722SOL    MW411209   1.837   6.592   3.588
 2723SOL     OW11210   0.063   7.116   2.737
 2723SOL    HW211211   0.095   7.120   2.828
 2723SOL    HW311212  -0.032   7.124   2.745
 2723SOL    MW411213   0.055   7.119   2.750
 2724SOL     OW11214   0.018   6.242   2.284
 2724SOL    HW211215  -0.042   6.214   2.354
 2724SOL    HW311216   0.092   6.182   2.290
 2724SOL    MW411217   0.020   6.231   2.293
 2725SOL     OW11218   1.586   7.454   3.718
 2725SOL    HW211219   1.631   7.378   3.683
 2725SOL    HW311220   1.624   7.467   3.805
 2725SOL    MW411221   1.596   7.447   3.724
 2726SOL     OW11222   1.186   6.973   2.444
 2726SOL    HW211223   1.209   6.924   2.522
 2726SOL    HW311224   1.267   7.015   2.416
 2726SOL    MW411225   1.199   6.973   2.451
 2727SOL     OW11226   0.444   5.981   3.173
 2727SOL    HW211227   0.477   6.062   3.213
 2727SOL    HW311228   0.417   6.007   3.085
 2727SOL    MW411229   0.443   5.995   3.167
 2728SOL     OW11230   0.398   5.948   2.909
 2728SOL    HW211231   0.428   5.862   2.880
 2728SOL    HW311232   0.303   5.941   2.912
 2728SOL    MW411233   0.390   5.937   2.907
 2729SOL     OW11234   1.227   6.157   3.600
 2729SOL    HW211235   1.279   6.092   3.553
 2729SOL    HW311236   1.185   6.208   3.530
 2729SOL    MW411237   1.228   6.154   3.583
 2730SOL     OW11238   1.326   5.952   3.461
 2730SOL    HW211239   1.233   5.936   3.448
 2730SOL    HW311240   1.352   5.890   3.529
 2730SOL    MW411241   1.316   5.942   3.468
 2731SOL     OW11242   0.541   5.726   2.800
 2731SOL    HW211243   0.551   5.635   2.826
 2731SOL    HW311244   0.497   5.722   2.715
 2731SOL    MW411245   0.537   5.714   2.792
 2732SOL     OW11246   0.635   7.341   3.346
 2732SOL    HW211247   0.552   7.326   3.391
 2732SOL    HW311248   0.694   7.274   3.381
 2732SOL    MW411249   0.633   7.331   3.356
 2733SOL     OW11250   1.692   6.048   2.971
 2733SOL    HW211251   1.625   6.081   3.031
 2733SOL    HW311252   1.735   6.126   2.937
 2733SOL    MW411253   1.690   6.063   2.975
 2734SOL     OW11254   1.870   6.768   2.941
 2734SOL    HW211255   1.863   6.708   2.866
 2734SOL    HW311256   1.796   6.828   2.930
 2734SOL    MW411257   1.860   6.768   2.930
 2735SOL     OW11258   1.252   6.630   2.859
 2735SOL    HW211259   1.266   6.602   2.950
 2735SOL    HW311260   1.338   6.661   2.831
 2735SOL    MW411261   1.265   6.631   2.868
 2736SOL     OW11262   1.335   6.125   3.138
 2736SOL    HW211263   1.356   6.126   3.045
 2736SOL    HW311264   1.380   6.047   3.171
 2736SOL    MW411265   1.342   6.115   3.130
 2737SOL     OW11266   1.828   6.256   3.680
 2737SOL    HW211267   1.865   6.201   3.749
 2737SOL    HW311268   1.853   6.213   3.598
 2737SOL    MW411269   1.835   6.244   3.679
 2738SOL     OW11270   1.375   6.554   3.731
 2738SOL    HW211271   1.441   6.502   3.685
 2738SOL    HW311272   1.395   6.541   3.824
 2738SOL    MW411273   1.386   6.545   3.738
 2739SOL     OW11274   1.326   5.640   2.080
 2739SOL    HW211275   1.400   5.684   2.123
 2739SOL    HW311276   1.250   5.694   2.102
 2739SOL    MW411277   1.326   5.652   2.088
 2740SOL     OW11278   1.386   6.415   2.358
 2740SOL    HW211279   1.301   6.385   2.328
 2740SOL    HW311280   1.378   6.422   2.453
 2740SOL    MW411281   1.374   6.413   2.367
 2741SOL     OW11282   0.462   6.878   3.089
 2741SOL    HW211283   0.474   6.905   3.180
 2741SOL    HW311284   0.443   6.959   3.042
 2741SOL    MW411285   0.461   6.893   3.094
 2742SOL     OW11286   0.746   5.858   2.912
 2742SOL    HW211287   0.719   5.860   3.003
 2742SOL    HW311288   0.676   5.810   2.867
 2742SOL    MW411289   0.734   5.854   2.919
 2743SOL     OW11290   0.600   7.350   3.074
 2743SOL    HW211291   0.652   7.427   3.051
 2743SOL    HW311292   0.609   7.342   3.169
 2743SOL    MW411293   0.609   7.357   3.085
 2744SOL     OW11294   1.502   6.935   3.306
 2744SOL    HW211295   1.487   6.864   3.369
 2744SOL    HW311296   1.548   6.893   3.234
 2744SOL    MW411297   1.508   6.919   3.306
 2745SOL     OW11298   0.576   6.666   3.423
 2745SOL    HW211299   0.613   6.671   3.335
 2745SOL    HW311300   0.615   6.739   3.470
 2745SOL    MW411301   0.586   6.676   3.418
 2746SOL     OW11302   0.756   6.709   3.235
 2746SOL    HW211303   0.815   6.655   3.288
 2746SOL    HW311304   0.771   6.681   3.145
 2746SOL    MW411305   0.766   6.698   3.231
 2747SOL     OW11306   0.759   6.081   2.084
 2747SOL    HW211307   0.832   6.130   2.047
 2747SOL    HW311308   0.775   5.990   2.058
 2747SOL    MW411309   0.771   6.076   2.077
 2748SOL     OW11310   1.567   7.198   3.407
 2748SOL    HW211311   1.609   7.183   3.492
 2748SOL    HW311312   1.558   7.111   3.369
 2748SOL    MW411313   1.571   7.186   3.414
 2749SOL     OW11314   1.227   5.677   2.998
 2749SOL    HW211315   1.282   5.686   2.920
 2749SOL    HW311316   1.282   5.711   3.069
 2749SOL    MW411317   1.241   5.682   2.997
 2750SOL     OW11318   0.234   6.590   2.182
 2750SOL    HW211319   0.171   6.606   2.111
 2750SOL    HW311320   0.181   6.553   2.253
 2750SOL    MW411321   0.219   6.587   2.182
 2751SOL     OW11322   0.590   6.944   2.041
 2751SOL    HW211323   0.605   6.920   2.133
 2751SOL    HW311324   0.498   6.922   2.025
 2751SOL    MW411325   0.580   6.937   2.051
 2752SOL     OW11326   1.129   7.175   2.193
 2752SOL    HW211327   1.137   7.093   2.144
 2752SOL    HW311328   1.048   7.214   2.160
 2752SOL    MW411329   1.119   7.170   2.183
 2753SOL     OW11330   0.388   7.333   2.762
 2753SOL    HW211331   0.392   7.244   2.797
 2753SOL    HW311332   0.414   7.324   2.671
 2753SOL    MW411333   0.391   7.321   2.754
 2754SOL     OW11334   1.005   6.811   3.005
 2754SOL    HW211335   0.937   6.745   3.021
 2754SOL    HW311336   1.023   6.805   2.912
 2754SOL    MW411337   0.998   6.802   2.996
 2755SOL     OW11338   0.094   7.086   3.256
 2755SOL    HW211339   0.084   7.044   3.342
 2755SOL    HW311340   0.015   7.139   3.246
 2755SOL    MW411341   0.083   7.087   3.267
 2756SOL     OW11342   0.998   5.950   2.826
 2756SOL    HW211343   0.928   5.902   2.871
 2756SOL    HW311344   1.030   6.013   2.890
 2756SOL    MW411345   0.993   5.952   2.840
 2757SOL     OW11346   0.649   6.386   3.446
 2757SOL    HW211347   0.642   6.481   3.434
 2757SOL    HW311348   0.658   6.375   3.541
 2757SOL    MW411349   0.650   6.398   3.456
 2758SOL     OW11350   0.370   6.901   3.704
 2758SOL    HW211351   0.442   6.903   3.641
 2758SOL    HW311352   0.340   6.810   3.703
 2758SOL    MW411353   0.375   6.890   3.696
 2759SOL     OW11354   1.454   5.664   3.171
 2759SOL    HW211355   1.525   5.610   3.135
 2759SOL    HW311356   1.453   5.643   3.264
 2759SOL    MW411357   1.463   5.655   3.179
 2760SOL     OW11358   1.654   7.194   3.655
 2760SOL    HW211359   1.627   7.191   3.746
 2760SOL    HW311360   1.750   7.198   3.658
 2760SOL    MW411361   1.664   7.194   3.667
 2761SOL     OW11362   0.465   6.056   2.639
 2761SOL    HW211363   0.536   6.004   2.602
 2761SOL    HW311364   0.451   6.021   2.726
 2761SOL    MW411365   0.473   6.045   2.646
 2762SOL     OW11366   0.020   7.391   3.711
 2762SOL    HW211367   0.070   7.369   3.633
 2762SOL    HW311368   0.028   7.486   3.719
 2762SOL    MW411369   0.028   7.400   3.702
 2763SOL     OW11370   0.781   7.149   2.715
 2763SOL    HW211371   0.709   7.086   2.728
 2763SOL    HW311372   0.742   7.234   2.733
 2763SOL    MW411373   0.765   7.152   2.718
 2764SOL     OW11374   1.101   5.997   2.363
 2764SOL    HW211375   1.123   5.934   2.295
 2764SOL    HW311376   1.006   5.989   2.374
 2764SOL    MW411377   1.091   5.988   2.355
 2765SOL     OW11378   0.186   5.687   2.295
 2765SOL    HW211379   0.257   5.708   2.234
 2765SOL    HW311380   0.140   5.615   2.253
 2765SOL    MW411381   0.190   5.681   2.281
 2766SOL     OW11382   0.017   6.154   3.438
 2766SOL    HW211383   0.081   6.220   3.413
 2766SOL    HW311384  -0.064   6.181   3.395
 2766SOL    MW411385   0.015   6.166   3.430
 2767SOL     OW11386   1.755   7.061   2.395
 2767SOL    HW211387   1.725   6.994   2.456
 2767SOL    HW311388   1.849   7.067   2.409
 2767SOL    MW411389   1.763   7.053   2.405
 2768SOL     OW11390   1.311   6.738   2.325
 2768SOL    HW211391   1.283   6.824   2.358
 2768SOL    HW311392   1.339   6.754   2.235
 2768SOL    MW411393   1.311   6.752   2.317
 2769SOL     OW11394   0.973   5.658   2.378
 2769SOL    HW211395   1.010   5.717   2.443
 2769SOL    HW311396   0.950   5.714   2.304
 2769SOL    MW411397   0.974   5.673   2.377
 2770SOL     OW11398   1.826   6.540   2.800
 2770SOL    HW211399   1.817   6.572   2.711
 2770SOL    HW311400   1.779   6.456   2.800
 2770SOL    MW411401   1.819   6.533   2.790
 2771SOL     OW11402   0.202   6.380   3.379
 2771SOL    HW211403   0.223   6.449   3.317
 2771SOL    HW311404   0.282   6.327   3.384
 2771SOL    MW411405   0.215   6.381   3.373
 2772SOL     OW11406   1.738   6.471   2.501
 2772SOL    HW211407   1.832   6.460   2.489
 2772SOL    HW311408   1.714   6.543   2.442
 2772SOL    MW411409   1.748   6.479   2.492
 2773SOL     OW11410   0.187   6.395   3.646
 2773SOL    HW211411   0.113   6.339   3.672
 2773SOL    HW311412   0.182   6.398   3.551
 2773SOL    MW411413   0.176   6.388   3.636
 2774SOL     OW11414   0.353   5.682   3.096
 2774SOL    HW211415   0.396   5.766   3.116
 2774SOL    HW311416   0.426   5.620   3.089
 2774SOL    MW411417   0.368   5.685   3.097
 2775SOL     OW11418   0.394   6.349   2.274
 2775SOL    HW211419   0.394   6.444   2.259
 2775SOL    HW311420   0.471   6.333   2.328
 2775SOL    MW411421   0.404   6.360   2.279
 2776SOL     OW11422   1.170   6.208   3.338
 2776SOL    HW211423   1.206   6.181   3.254
 2776SOL    HW311424   1.083   6.242   3.317
 2776SOL    MW411425   1.164   6.209   3.325
 2777SOL     OW11426   0.153   6.080   2.563
 2777SOL    HW211427   0.215   6.087   2.636
 2777SOL    HW311428   0.153   5.987   2.540
 2777SOL    MW411429   0.161   6.069   2.570
 2778SOL     OW11430   1.700   7.420   2.095
 2778SOL    HW211431   1.767   7.453   2.035
 2778SOL    HW311432   1.657   7.499   2.129
 2778SOL    MW411433   1.702   7.435   2.091
 2779SOL     OW11434   0.835   6.341   3.047
 2779SOL    HW211435   0.793   6.259   3.023
 2779SOL    HW311436   0.836   6.340   3.143
 2779SOL    MW411437   0.828   6.330   3.056
 2780SOL     OW11438   1.506   7.474   3.446
 2780SOL    HW211439   1.509   7.380   3.429
 2780SOL    HW311440   1.529   7.482   3.538
 2780SOL    MW411441   1.509   7.462   3.456
 2781SOL     OW11442   0.639   5.811   3.152
 2781SOL    HW211443   0.570   5.874   3.173
 2781SOL    HW311444   0.666   5.775   3.237
 2781SOL    MW411445   0.633   5.814   3.165
 2782SOL     OW11446   0.022   6.652   2.021
 2782SOL    HW211447  -0.009   6.717   2.084
 2782SOL    HW311448  -0.029   6.574   2.040
 2782SOL    MW411449   0.012   6.649   2.031
 2783SOL     OW11450   1.434   5.664   2.769
 2783SOL    HW211451   1.522   5.673   2.806
 2783SOL    HW311452   1.444   5.605   2.695
 2783SOL    MW411453   1.448   5.658   2.763
 2784SOL     OW11454   1.466   6.403   2.613
 2784SOL    HW211455   1.546   6.418   2.562
 2784SOL    HW311456   1.459   6.308   2.619
 2784SOL    MW411457   1.475   6.392   2.608
 2785SOL     OW11458   0.606   7.452   1.963
 2785SOL    HW211459   0.511   7.452   1.955
 2785SOL    HW311460   0.622   7.398   2.041
 2785SOL    MW411461   0.596   7.446   1.972
 2786SOL     OW11462   0.916   6.329   3.310
 2786SOL    HW211463   0.985   6.396   3.307
 2786SOL    HW311464   0.849   6.367   3.366
 2786SOL    MW411465   0.917   6.342   3.317
 2787SOL     OW11466   0.334   6.629   3.558
 2787SOL    HW211467   0.288   6.545   3.560
 2787SOL    HW311468   0.391   6.623   3.482
 2787SOL    MW411469   0.336   6.617   3.550
 2788SOL     OW11470   1.451   6.272   1.879
 2788SOL    HW211471   1.379   6.248   1.821
 2788SOL    HW311472   1.517   6.309   1.821
 2788SOL    MW411473   1.450   6.274   1.864
 2789SOL     OW11474   0.585   7.004   2.559
 2789SOL    HW211475   0.650   6.937   2.580
 2789SOL    HW311476   0.637   7.081   2.536
 2789SOL    MW411477   0.600   7.006   2.558
 2790SOL     OW11478   0.846   6.169   2.689
 2790SOL    HW211479   0.786   6.187   2.761
 2790SOL    HW311480   0.880   6.081   2.708
 2790SOL    MW411481   0.842   6.159   2.702
 2791SOL     OW11482   1.787   5.668   3.358
 2791SOL    HW211483   1.708   5.714   3.386
 2791SOL    HW311484   1.822   5.722   3.287
 2791SOL    MW411485   1.781   5.681   3.352
 2792SOL     OW11486   1.071   6.752   2.708
 2792SOL    HW211487   1.163   6.733   2.726
 2792SOL    HW311488   1.044   6.682   2.648
 2792SOL    MW411489   1.079   6.740   2.702
 2793SOL     OW11490   0.864   6.572   2.063
 2793SOL    HW211491   0.850   6.484   2.028
 2793SOL    HW311492   0.815   6.629   2.004
 2793SOL    MW411493   0.856   6.567   2.051
 2794SOL     OW11494   1.345   6.990   2.804
 2794SOL    HW211495   1.318   7.074   2.769
 2794SOL    HW311496   1.305   6.985   2.891
 2794SOL    MW411497   1.338   6.999   2.810
 2795SOL     OW11498   1.264   6.938   3.072
 2795SOL    HW211499   1.275   6.905   3.161
 2795SOL    HW311500   1.183   6.897   3.041
 2795SOL    MW411501   1.254   6.930   3.078
 2796SOL     OW11502   0.277   6.296   2.842
 2796SOL    HW211503   0.227   6.295   2.923
 2796SOL    HW311504   0.297   6.388   2.826
 2796SOL    MW411505   0.273   6.308   2.850
 2797SOL     OW11506   1.344   7.060   3.604
 2797SOL    HW211507   1.344   7.154   3.620
 2797SOL    HW311508   1.389   7.050   3.520
 2797SOL    MW411509   1.350   7.070   3.595
 2798SOL     OW11510   1.583   5.778   2.165
 2798SOL    HW211511   1.576   5.782   2.260
 2798SOL    HW311512   1.595   5.869   2.138
 2798SOL    MW411513   1.584   5.791   2.173
 2799SOL     OW11514   0.872   6.341   2.279
 2799SOL    HW211515   0.852   6.327   2.186
 2799SOL    HW311516   0.965   6.320   2.286
 2799SOL    MW411517   0.882   6.336   2.268
 2800SOL     OW11518   0.199   5.964   3.583
 2800SOL    HW211519   0.156   6.023   3.520
 2800SOL    HW311520   0.267   6.019   3.623
 2800SOL    MW411521   0.203   5.979   3.580
 2801SOL     OW11522   1.311   6.584   3.128
 2801SOL    HW211523   1.374   6.581   3.201
 2801SOL    HW311524   1.227   6.602   3.170
 2801SOL    MW411525   1.307   6.586   3.143
 2802SOL     OW11526   0.855   7.299   2.317
 2802SOL    HW211527   0.913   7.370   2.344
 2802SOL    HW311528   0.878   7.227   2.375
 2802SOL    MW411529   0.866   7.299   2.328
 2803SOL     OW11530   1.650   5.761   2.907
 2803SOL    HW211531   1.695   5.679   2.926
 2803SOL    HW311532   1.670   5.817   2.983
 2803SOL    MW411533   1.660   5.757   2.919
 2804SOL     OW11534   0.098   5.604   3.006
 2804SOL    HW211535   0.089   5.605   2.911
 2804SOL    HW311536   0.192   5.616   3.021
 2804SOL    MW411537   0.110   5.607   2.997
 2805SOL     OW11538   1.735   6.797   2.626
 2805SOL    HW211539   1.714   6.743   2.549
 2805SOL    HW311540   1.831   6.795   2.630
 2805SOL    MW411541   1.744   6.790   2.615
 2806SOL     OW11542   0.427   6.942   3.369
 2806SOL    HW211543   0.348   6.892   3.392
 2806SOL    HW311544   0.497   6.901   3.419
 2806SOL    MW411545   0.425   6.930   3.379
 2807SOL     OW11546   0.311   5.731   2.052
 2807SOL    HW211547   0.240   5.786   2.020
 2807SOL    HW311548   0.353   5.697   1.973
 2807SOL    MW411549   0.307   5.733   2.038
 2808SOL     OW11550   1.435   6.228   2.888
 2808SOL    HW211551   1.358   6.274   2.854
 2808SOL    HW311552   1.492   6.297   2.922
 2808SOL    MW411553   1.432   6.243   2.888
 2809SOL     OW11554   0.067   5.830   1.901
 2809SOL    HW211555   0.034   5.909   1.945
 2809SOL    HW311556   0.122   5.863   1.830
 2809SOL    MW411557   0.070   5.844   1.898
 2810SOL     OW11558   0.101   7.087   2.090
 2810SOL    HW211559   0.118   7.171   2.132
 2810SOL    HW311560   0.136   7.096   2.002
 2810SOL    MW411561   0.106   7.100   2.084
 2811SOL     OW11562   1.373   7.176   2.307
 2811SOL    HW211563   1.436   7.166   2.236
 2811SOL    HW311564   1.290   7.196   2.262
 2811SOL    MW411565   1.370   7.177   2.292
 2812SOL     OW11566   1.736   6.444   3.993
 2812SOL    HW211567   1.777   6.386   4.058
 2812SOL    HW311568   1.643   6.436   4.010
 2812SOL    MW411569   1.730   6.436   4.003
 2813SOL     OW11570   1.602   6.376   4.988
 2813SOL    HW211571   1.557   6.443   5.039
 2813SOL    HW311572   1.690   6.412   4.974
 2813SOL    MW411573   1.608   6.389   4.992
 2814SOL     OW11574   0.530   6.627   4.222
 2814SOL    HW211575   0.620   6.602   4.206
 2814SOL    HW311576   0.526   6.720   4.199
 2814SOL    MW411577   0.542   6.636   4.217
 2815SOL     OW11578   1.646   7.330   4.364
 2815SOL    HW211579   1.658   7.276   4.442
 2815SOL    HW311580   1.683   7.278   4.293
 2815SOL    MW411581   1.652   7.315   4.365
 2816SOL     OW11582   1.025   7.215   5.365
 2816SOL    HW211583   1.066   7.251   5.286
 2816SOL    HW311584   1.060   7.126   5.372
 2816SOL    MW411585   1.036   7.208   5.356
 2817SOL     OW11586   1.582   6.770   4.969
 2817SOL    HW211587   1.503   6.735   4.927
 2817SOL    HW311588   1.609   6.842   4.913
 2817SOL    MW411589   1.575   6.775   4.956
 2818SOL     OW11590   0.814   6.083   4.235
 2818SOL    HW211591   0.789   6.171   4.263
 2818SOL    HW311592   0.811   6.086   4.139
 2818SOL    MW411593   0.810   6.095   4.227
 2819SOL     OW11594   0.256   6.111   4.163
 2819SOL    HW211595   0.288   6.199   4.145
 2819SOL    HW311596   0.244   6.109   4.258
 2819SOL    MW411597   0.259   6.123   4.175
 2820SOL     OW11598   0.334   6.524   5.064
 2820SOL    HW211599   0.397   6.471   5.015
 2820SOL    HW311600   0.315   6.598   5.007
 2820SOL    MW411601   0.340   6.526   5.051
 2821SOL     OW11602   0.655   5.866   4.250
 2821SOL    HW211603   0.713   5.942   4.252
 2821SOL    HW311604   0.590   5.887   4.183
 2821SOL    MW411605   0.654   5.878   4.241
 2822SOL     OW11606   0.742   6.793   4.425
 2822SOL    HW211607   0.822   6.796   4.477
 2822SOL    HW311608   0.770   6.760   4.339
 2822SOL    MW411609   0.756   6.789   4.420
 2823SOL     OW11610   0.767   7.134   5.328
 2823SOL    HW211611   0.851   7.160   5.367
 2823SOL    HW311612   0.791   7.078   5.254
 2823SOL    MW411613   0.781   7.130   5.323
 2824SOL     OW11614   0.519   6.297   4.416
 2824SOL    HW211615   0.504   6.217   4.467
 2824SOL    HW311616   0.601   6.332   4.450
 2824SOL    MW411617   0.527   6.289   4.428
 2825SOL     OW11618   0.856   6.983   5.101
 2825SOL    HW211619   0.820   7.049   5.041
 2825SOL    HW311620   0.784   6.921   5.114
 2825SOL    MW411621   0.842   6.983   5.095
 2826SOL     OW11622   0.661   6.123   4.793
 2826SOL    HW211623   0.567   6.119   4.811
 2826SOL    HW311624   0.691   6.032   4.802
 2826SOL    MW411625   0.652   6.111   4.796
 2827SOL     OW11626   0.407   6.537   4.697
 2827SOL    HW211627   0.362   6.544   4.613
 2827SOL    HW311628   0.387   6.620   4.741
 2827SOL    MW411629   0.399   6.549   4.691
 2828SOL     OW11630   0.104   7.383   4.572
 2828SOL    HW211631   0.193   7.375   4.607
 2828SOL    HW311632   0.068   7.295   4.577
 2828SOL    MW411633   0.111   7.370   4.577
 2829SOL     OW11634   1.369   6.775   3.941
 2829SOL    HW211635   1.287   6.811   3.907
 2829SOL    HW311636   1.437   6.818   3.890
 2829SOL    MW411637   1.367   6.785   3.929
 2830SOL     OW11638   0.368   6.910   4.607
 2830SOL    HW211639   0.344   6.963   4.683
 2830SOL    HW311640   0.424   6.968   4.555
 2830SOL    MW411641   0.372   6.925   4.610
 2831SOL     OW11642   0.930   6.554   4.417
 2831SOL    HW211643   0.844   6.541   4.457
 2831SOL    HW311644   0.983   6.481   4.449
 2831SOL    MW411645   0.926   6.543   4.426
 2832SOL     OW11646   0.338   7.206   5.202
 2832SOL    HW211647   0.246   7.182   5.187
 2832SOL    HW311648   0.382   7.123   5.219
 2832SOL    MW411649   0.332   7.191   5.201
 2833SOL     OW11650   0.921   6.916   4.134
 2833SOL    HW211651   0.898   6.978   4.202
 2833SOL    HW311652   0.878   6.834   4.160
 2833SOL    MW411653   0.913   6.912   4.145
 2834SOL     OW11654   1.794   5.917   4.590
 2834SOL    HW211655   1.731   5.897   4.659
 2834SOL    HW311656   1.784   5.846   4.527
 2834SOL    MW411657   1.784   5.904   4.591
 2835SOL     OW11658   0.418   5.889   4.102
 2835SOL    HW211659   0.392   5.851   4.018
 2835SOL    HW311660   0.355   5.959   4.118
 2835SOL    MW411661   0.407   5.892   4.093
 2836SOL     OW11662   0.253   6.850   4.139
 2836SOL    HW211663   0.201   6.918   4.095
 2836SOL    HW311664   0.250   6.776   4.079
 2836SOL    MW411665   0.245   6.849   4.126
 2837SOL     OW11666   0.915   7.313   3.917
 2837SOL    HW211667   0.870   7.329   4.000
 2837SOL    HW311668   0.846   7.278   3.859
 2837SOL    MW411669   0.901   7.310   3.919
 2838SOL     OW11670   1.850   6.086   3.892
 2838SOL    HW211671   1.759   6.088   3.920
 2838SOL    HW311672   1.895   6.148   3.950
 2838SOL    MW411673   1.843   6.094   3.902
 2839SOL     OW11674   1.595   6.689   4.242
 2839SOL    HW211675   1.505   6.689   4.277
 2839SOL    HW311676   1.588   6.735   4.159
 2839SOL    MW411677   1.582   6.695   4.236
 2840SOL     OW11678   1.395   6.324   5.314
 2840SOL    HW211679   1.464   6.262   5.291
 2840SOL    HW311680   1.320   6.298   5.261
 2840SOL    MW411681   1.395   6.311   5.305
 2841SOL     OW11682   0.136   7.204   4.866
 2841SOL    HW211683   0.119   7.150   4.943
 2841SOL    HW311684   0.124   7.294   4.896
 2841SOL    MW411685   0.133   7.208   4.880
 2842SOL     OW11686   1.131   6.711   5.306
 2842SOL    HW211687   1.116   6.804   5.291
 2842SOL    HW311688   1.226   6.701   5.306
 2842SOL    MW411689   1.140   6.721   5.303
 2843SOL     OW11690   0.927   6.135   5.507
 2843SOL    HW211691   1.017   6.136   5.474
 2843SOL    HW311692   0.886   6.060   5.465
 2843SOL    MW411693   0.933   6.125   5.498
 2844SOL     OW11694   1.502   6.667   4.634
 2844SOL    HW211695   1.505   6.601   4.565
 2844SOL    HW311696   1.587   6.710   4.630
 2844SOL    MW411697   1.514   6.663   4.625
 2845SOL     OW11698   1.122   6.270   4.203
 2845SOL    HW211699   1.148   6.294   4.114
 2845SOL    HW311700   1.104   6.177   4.199
 2845SOL    MW411701   1.124   6.262   4.190
 2846SOL     OW11702   1.787   6.890   4.054
 2846SOL    HW211703   1.743   6.931   4.129
 2846SOL    HW311704   1.844   6.958   4.019
 2846SOL    MW411705   1.789   6.904   4.059
 2847SOL     OW11706   0.707   5.939   5.457
 2847SOL    HW211707   0.717   5.865   5.397
 2847SOL    HW311708   0.743   5.908   5.540
 2847SOL    MW411709   0.713   5.925   5.459
 2848SOL     OW11710   0.443   7.306   4.372
 2848SOL    HW211711   0.475   7.394   4.350
 2848SOL    HW311712   0.396   7.278   4.294
 2848SOL    MW411713   0.442   7.314   4.359
 2849SOL     OW11714   1.827   5.668   4.421
 2849SOL    HW211715   1.881   5.619   4.483
 2849SOL    HW311716   1.770   5.602   4.382
 2849SOL    MW411717   1.827   5.652   4.423
 2850SOL     OW11718   0.159   7.366   3.949
 2850SOL    HW211719   0.188   7.456   3.941
 2850SOL    HW311720   0.109   7.349   3.870
 2850SOL    MW411721   0.157   7.374   3.938
 2851SOL     OW11722   0.946   5.621   4.834
 2851SOL    HW211723   0.905   5.699   4.796
 2851SOL    HW311724   1.040   5.639   4.829
 2851SOL    MW411725   0.952   5.633   4.829
 2852SOL     OW11726   1.563   7.174   3.920
 2852SOL    HW211727   1.611   7.243   3.966
 2852SOL    HW311728   1.484   7.218   3.889
 2852SOL    MW411729   1.558   7.188   3.923
 2853SOL     OW11730   0.961   6.299   3.864
 2853SOL    HW211731   0.963   6.246   3.785
 2853SOL    HW311732   1.049   6.336   3.870
 2853SOL    MW411733   0.973   6.298   3.853
 2854SOL     OW11734   1.575   6.225   4.200
 2854SOL    HW211735   1.614   6.225   4.287
 2854SOL    HW311736   1.516   6.301   4.200
 2854SOL    MW411737   1.572   6.236   4.211
 2855SOL     OW11738   0.892   6.592   5.329
 2855SOL    HW211739   0.869   6.572   5.419
 2855SOL    HW311740   0.977   6.636   5.334
 2855SOL    MW411741   0.899   6.595   5.341
 2856SOL     OW11742   0.972   5.729   5.089
 2856SOL    HW211743   0.978   5.691   5.002
 2856SOL    HW311744   0.961   5.823   5.074
 2856SOL    MW411745   0.973   5.737   5.077
 2857SOL     OW11746   1.061   6.218   4.923
 2857SOL    HW211747   1.136   6.247   4.870
 2857SOL    HW311748   0.993   6.283   4.907
 2857SOL    MW411749   1.062   6.230   4.913
 2858SOL     OW11750   1.611   6.186   5.200
 2858SOL    HW211751   1.592   6.095   5.179
 2858SOL    HW311752   1.589   6.235   5.121
 2858SOL    MW411753   1.606   6.179   5.187
 2859SOL     OW11754   1.753   7.280   5.104
 2859SOL    HW211755   1.681   7.242   5.155
 2859SOL    HW311756   1.770   7.365   5.145
 2859SOL    MW411757   1.747   7.285   5.116
 2860SOL     OW11758   1.058   5.924   5.306
 2860SOL    HW211759   1.024   5.963   5.225
 2860SOL    HW311760   1.036   5.832   5.299
 2860SOL    MW411761   1.051   5.917   5.296
 2861SOL     OW11762   1.467   6.738   5.382
 2861SOL    HW211763   1.549   6.779   5.412
 2861SOL    HW311764   1.430   6.700   5.462
 2861SOL    MW411765   1.473   6.739   5.397
 2862SOL     OW11766   1.762   6.111   4.366
 2862SOL    HW211767   1.851   6.080   4.383
 2862SOL    HW311768   1.705   6.051   4.414
 2862SOL    MW411769   1.765   6.099   4.375
 2863SOL     OW11770   0.188   5.825   4.395
 2863SOL    HW211771   0.179   5.765   4.321
 2863SOL    HW311772   0.121   5.796   4.458
 2863SOL    MW411773   0.178   5.812   4.393
 2864SOL     OW11774   1.131   6.918   3.956
 2864SOL    HW211775   1.081   6.920   4.038
 2864SOL    HW311776   1.065   6.936   3.888
 2864SOL    MW411777   1.117   6.920   3.958
 2865SOL     OW11778   0.135   5.998   4.758
 2865SOL    HW211779   0.107   6.089   4.767
 2865SOL    HW311780   0.072   5.959   4.697
 2865SOL    MW411781   0.122   6.004   4.752
 2866SOL     OW11782   0.594   7.336   4.064
 2866SOL    HW211783   0.515   7.294   4.097
 2866SOL    HW311784   0.660   7.319   4.131
 2866SOL    MW411785   0.593   7.328   4.077
 2867SOL     OW11786   1.722   6.856   5.461
 2867SOL    HW211787   1.772   6.782   5.493
 2867SOL    HW311788   1.668   6.883   5.536
 2867SOL    MW411789   1.722   6.850   5.474
 2868SOL     OW11790   0.730   6.751   3.771
 2868SOL    HW211791   0.652   6.697   3.758
 2868SOL    HW311792   0.701   6.824   3.824
 2868SOL    MW411793   0.716   6.753   3.776
 2869SOL     OW11794   1.856   6.491   4.963
 2869SOL    HW211795   1.872   6.529   4.876
 2869SOL    HW311796   1.890   6.557   5.024
 2869SOL    MW411797   1.863   6.504   4.959
 2870SOL     OW11798   1.648   7.200   4.632
 2870SOL    HW211799   1.677   7.267   4.693
 2870SOL    HW311800   1.629   7.124   4.687
 2870SOL    MW411801   1.650   7.200   4.647
 2871SOL     OW11802   1.311   7.267   3.839
 2871SOL    HW211803   1.237   7.230   3.889
 2871SOL    HW311804   1.319   7.357   3.872
 2871SOL    MW411805   1.302   7.274   3.851
 2872SOL     OW11806   0.119   6.273   4.928
 2872SOL    HW211807   0.181   6.303   4.994
 2872SOL    HW311808   0.053   6.342   4.922
 2872SOL    MW411809   0.118   6.286   4.935
 2873SOL     OW11810   1.535   6.941   3.781
 2873SOL    HW211811   1.482   6.990   3.717
 2873SOL    HW311812   1.566   7.007   3.842
 2873SOL    MW411813   1.533   6.955   3.779
 2874SOL     OW11814   0.760   5.830   3.836
 2874SOL    HW211815   0.708   5.750   3.824
 2874SOL    HW311816   0.847   5.807   3.804
 2874SOL    MW411817   0.763   5.816   3.830
 2875SOL     OW11818   0.214   7.382   5.380
 2875SOL    HW211819   0.188   7.450   5.318
 2875SOL    HW311820   0.262   7.319   5.328
 2875SOL    MW411821   0.216   7.382   5.366
 2876SOL     OW11822   0.266   6.701   4.887
 2876SOL    HW211823   0.319   6.776   4.912
 2876SOL    HW311824   0.185   6.739   4.853
 2876SOL    MW411825   0.262   6.716   4.887
 2877SOL     OW11826   0.806   6.605   4.875
 2877SOL    HW211827   0.834   6.514   4.887
 2877SOL    HW311828   0.735   6.599   4.811
 2877SOL    MW411829   0.799   6.593   4.870
 2878SOL     OW11830   0.121   6.470   4.293
 2878SOL    HW211831   0.212   6.485   4.320
 2878SOL    HW311832   0.124   6.391   4.239
 2878SOL    MW411833   0.133   6.462   4.291
 2879SOL     OW11834   0.357   6.178   5.547
 2879SOL    HW211835   0.304   6.258   5.554
 2879SOL    HW311836   0.427   6.190   5.612
 2879SOL    MW411837   0.359   6.191   5.555
 2880SOL     OW11838   0.743   5.728   5.254
 2880SOL    HW211839   0.720   5.636   5.256
 2880SOL    HW311840   0.829   5.730   5.211
 2880SOL    MW411841   0.750   5.718   5.250
 2881SOL     OW11842   0.427   6.252   5.293
 2881SOL    HW211843   0.507   6.302   5.279
 2881SOL    HW311844   0.418   6.246   5.388
 2881SOL    MW411845   0.436   6.258   5.303
 2882SOL     OW11846   0.748   7.402   4.667
 2882SOL    HW211847   0.837   7.417   4.697
 2882SOL    HW311848   0.743   7.449   4.583
 2882SOL    MW411849   0.758   7.410   4.660
 2883SOL     OW11850   1.404   5.777   5.564
 2883SOL    HW211851   1.460   5.704   5.590
 2883SOL    HW311852   1.374   5.815   5.646
 2883SOL    MW411853   1.408   5.772   5.577
 2884SOL     OW11854   0.129   7.082   4.332
 2884SOL    HW211855   0.101   7.121   4.414
 2884SOL    HW311856   0.149   6.991   4.354
 2884SOL    MW411857   0.127   7.074   4.345
 2885SOL     OW11858   0.962   7.125   4.367
 2885SOL    HW211859   1.045   7.079   4.351
 2885SOL    HW311860   0.952   7.124   4.463
 2885SOL    MW411861   0.972   7.118   4.377
 2886SOL     OW11862   1.645   6.449   5.561
 2886SOL    HW211863   1.700   6.373   5.542
 2886SOL    HW311864   1.647   6.457   5.656
 2886SOL    MW411865   1.653   6.440   5.569
 2887SOL     OW11866   0.695   7.182   3.772
 2887SOL    HW211867   0.635   7.251   3.742
 2887SOL    HW311868   0.640   7.124   3.825
 2887SOL    MW411869   0.679   7.184   3.774
 2888SOL     OW11870   1.133   5.827   3.995
 2888SOL    HW211871   1.066   5.803   3.932
 2888SOL    HW311872   1.198   5.876   3.944
 2888SOL    MW411873   1.133   5.829   3.980
 2889SOL     OW11874   0.940   6.011   5.080
 2889SOL    HW211875   0.859   6.052   5.108
 2889SOL    HW311876   0.987   6.079   5.032
 2889SOL    MW411877   0.935   6.026   5.078
 2890SOL     OW11878   1.200   6.349   4.703
 2890SOL    HW211879   1.213   6.443   4.713
 2890SOL    HW311880   1.161   6.339   4.617
 2890SOL    MW411881   1.196   6.360   4.693
 2891SOL     OW11882   0.652   6.544   4.507
 2891SOL    HW211883   0.563   6.535   4.540
 2891SOL    HW311884   0.656   6.634   4.475
 2891SOL    MW411885   0.641   6.555   4.507
 2892SOL     OW11886   1.451   6.127   4.502
 2892SOL    HW211887   1.396   6.048   4.501
 2892SOL    HW311888   1.433   6.168   4.586
 2892SOL    MW411889   1.441   6.122   4.511
 2893SOL     OW11890   0.422   5.814   5.319
 2893SOL    HW211891   0.343   5.832   5.371
 2893SOL    HW311892   0.417   5.876   5.246
 2893SOL    MW411893   0.412   5.824   5.316
 2894SOL     OW11894   1.070   6.331   4.459
 2894SOL    HW211895   1.007   6.263   4.483
 2894SOL    HW311896   1.090   6.312   4.367
 2894SOL    MW411897   1.064   6.318   4.451
 2895SOL     OW11898   0.326   7.226   4.161
 2895SOL    HW211899   0.287   7.273   4.087
 2895SOL    HW311900   0.260   7.161   4.186
 2895SOL    MW411901   0.313   7.224   4.155
 2896SOL     OW11902   0.818   6.635   4.185
 2896SOL    HW211903   0.820   6.609   4.092
 2896SOL    HW311904   0.876   6.572   4.228
 2896SOL    MW411905   0.826   6.624   4.179
 2897SOL     OW11906   1.371   7.195   4.957
 2897SOL    HW211907   1.296   7.241   4.995
 2897SOL    HW311908   1.353   7.102   4.974
 2897SOL    MW411909   1.360   7.189   4.965
 2898SOL     OW11910   1.375   7.403   4.387
 2898SOL    HW211911   1.318   7.356   4.326
 2898SOL    HW311912   1.461   7.364   4.374
 2898SOL    MW411913   1.378   7.394   4.377
 2899SOL     OW11914   1.328   5.879   4.518
 2899SOL    HW211915   1.356   5.811   4.579
 2899SOL    HW311916   1.242   5.850   4.488
 2899SOL    MW411917   1.321   5.866   4.522
 2900SOL     OW11918   0.133   6.813   4.452
 2900SOL    HW211919   0.197   6.845   4.515
 2900SOL    HW311920   0.182   6.749   4.400
 2900SOL    MW411921   0.148   6.809   4.453
 2901SOL     OW11922   0.633   6.889   5.434
 2901SOL    HW211923   0.681   6.972   5.421
 2901SOL    HW311924   0.690   6.837   5.490
 2901SOL    MW411925   0.647   6.893   5.440
 2902SOL     OW11926   0.209   7.131   5.574
 2902SOL    HW211927   0.265   7.055   5.589
 2902SOL    HW311928   0.158   7.109   5.496
 2902SOL    MW411929   0.209   7.118   5.565
 2903SOL     OW11930   1.308   5.983   3.853
 2903SOL    HW211931   1.281   6.049   3.789
 2903SOL    HW311932   1.378   6.026   3.903
 2903SOL    MW411933   1.313   5.996   3.850
 2904SOL     OW11934   0.976   5.688   3.790
 2904SOL    HW211935   1.032   5.680   3.712
 2904SOL    HW311936   0.953   5.598   3.812
 2904SOL    MW411937   0.981   5.675   3.783
 2905SOL     OW11938   1.481   6.539   3.995
 2905SOL    HW211939   1.448   6.628   3.985
 2905SOL    HW311940   1.446   6.510   4.080
 2905SOL    MW411941   1.471   6.548   4.006
 2906SOL     OW11942   1.094   6.968   5.183
 2906SOL    HW211943   1.005   6.974   5.151
 2906SOL    HW311944   1.138   7.047   5.151
 2906SOL    MW411945   1.089   6.978   5.175
 2907SOL     OW11946   0.387   5.636   5.525
 2907SOL    HW211947   0.315   5.601   5.473
 2907SOL    HW311948   0.445   5.677   5.460
 2907SOL    MW411949   0.385   5.637   5.510
 2908SOL     OW11950   0.411   7.126   4.824
 2908SOL    HW211951   0.456   7.188   4.881
 2908SOL    HW311952   0.318   7.145   4.837
 2908SOL    MW411953   0.404   7.136   4.831
 2909SOL     OW11954   1.851   6.655   5.178
 2909SOL    HW211955   1.766   6.668   5.137
 2909SOL    HW311956   1.831   6.619   5.265
 2909SOL    MW411957   1.838   6.651   5.183
 2910SOL     OW11958   0.833   7.194   4.932
 2910SOL    HW211959   0.857   7.183   4.841
 2910SOL    HW311960   0.756   7.251   4.930
 2910SOL    MW411961   0.825   7.199   4.921
 2911SOL     OW11962   0.475   6.577   3.787
 2911SOL    HW211963   0.398   6.590   3.843
 2911SOL    HW311964   0.439   6.541   3.706
 2911SOL    MW411965   0.461   6.573   3.784
 2912SOL     OW11966   1.128   6.550   4.030
 2912SOL    HW211967   1.038   6.571   4.005
 2912SOL    HW311968   1.155   6.623   4.086
 2912SOL    MW411969   1.120   6.562   4.033
 2913SOL     OW11970   0.628   6.899   4.722
 2913SOL    HW211971   0.621   6.878   4.816
 2913SOL    HW311972   0.546   6.867   4.685
 2913SOL    MW411973   0.616   6.893   4.729
 2914SOL     OW11974   1.492   5.909   5.124
 2914SOL    HW211975   1.439   5.911   5.204
 2914SOL    HW311976   1.477   5.822   5.087
 2914SOL    MW411977   1.484   5.899   5.129
 2915SOL     OW11978   1.828   5.833   4.997
 2915SOL    HW211979   1.809   5.900   4.932
 2915SOL    HW311980   1.885   5.771   4.952
 2915SOL    MW411981   1.832   5.834   4.983
 2916SOL     OW11982   0.074   6.991   5.385
 2916SOL    HW211983   0.118   6.924   5.331
 2916SOL    HW311984  -0.011   6.953   5.405
 2916SOL    MW411985   0.069   6.977   5.381
 2917SOL     OW11986   0.757   5.666   4.437
 2917SOL    HW211987   0.686   5.727   4.419
 2917SOL    HW311988   0.808   5.663   4.356
 2917SOL    MW411989   0.753   5.672   4.424
 2918SOL     OW11990   0.515   6.906   4.186
 2918SOL    HW211991   0.508   6.938   4.276
 2918SOL    HW311992   0.425   6.890   4.158
 2918SOL    MW411993   0.503   6.908   4.193
 2919SOL     OW11994   1.110   7.299   5.095
 2919SOL    HW211995   1.030   7.284   5.045
 2919SOL    HW311996   1.117   7.394   5.102
 2919SOL    MW411997   1.101   7.310   5.089
 2920SOL     OW11998   1.224   7.264   4.585
 2920SOL    HW211999   1.271   7.337   4.544
 2920SOL    HW312000   1.145   7.303   4.621
 2920SOL    MW412001   1.219   7.279   4.584
 2921SOL     OW12002   1.632   7.359   4.860
 2921SOL    HW212003   1.675   7.329   4.940
 2921SOL    HW312004   1.551   7.307   4.857
 2921SOL    MW412005   1.627   7.348   4.870
 2922SOL     OW12006   0.717   6.323   5.567
 2922SOL    HW212007   0.787   6.265   5.539
 2922SOL    HW312008   0.660   6.268   5.622
 2922SOL    MW412009   0.719   6.310   5.571
 2923SOL     OW12010   1.504   6.535   5.200
 2923SOL    HW212011   1.509   6.588   5.280
 2923SOL    HW312012   1.466   6.452   5.228
 2923SOL    MW412013   1.500   6.530   5.215
 2924SOL     OW12014   1.144   5.670   5.446
 2924SOL    HW212015   1.139   5.577   5.427
 2924SOL    HW312016   1.227   5.681   5.492
 2924SOL    MW412017   1.152   5.659   5.450
 2925SOL     OW12018   0.518   6.190   3.900
 2925SOL    HW212019   0.484   6.246   3.970
 2925SOL    HW312020   0.589   6.140   3.940
 2925SOL    MW412021   0.524   6.191   3.914
 2926SOL     OW12022   1.614   6.941   4.722
 2926SOL    HW212023   1.649   6.923   4.635
 2926SOL    HW312024   1.519   6.942   4.709
 2926SOL    MW412025   1.606   6.938   4.709
 2927SOL     OW12026   1.043   6.589   5.091
 2927SOL    HW212027   1.086   6.624   5.169
 2927SOL    HW312028   1.026   6.666   5.037
 2927SOL    MW412029   1.046   6.604   5.094
 2928SOL     OW12030   1.574   6.076   3.964
 2928SOL    HW212031   1.566   6.147   3.901
 2928SOL    HW312032   1.592   6.120   4.047
 2928SOL    MW412033   1.575   6.090   3.966
 2929SOL     OW12034   0.434   5.731   4.393
 2929SOL    HW212035   0.484   5.774   4.324
 2929SOL    HW312036   0.349   5.775   4.393
 2929SOL    MW412037   0.431   5.744   4.384
 2930SOL     OW12038   0.193   6.793   5.253
 2930SOL    HW212039   0.221   6.746   5.331
 2930SOL    HW312040   0.114   6.748   5.224
 2930SOL    MW412041   0.186   6.782   5.259
 2931SOL     OW12042   0.701   6.120   5.220
 2931SOL    HW212043   0.673   6.208   5.244
 2931SOL    HW312044   0.670   6.064   5.291
 2931SOL    MW412045   0.693   6.123   5.232
 2932SOL     OW12046   1.243   6.338   3.939
 2932SOL    HW212047   1.290   6.356   3.858
 2932SOL    HW312048   1.209   6.422   3.967
 2932SOL    MW412049   1.245   6.352   3.932
 2933SOL     OW12050   0.356   6.516   4.433
 2933SOL    HW212051   0.414   6.572   4.381
 2933SOL    HW312052   0.400   6.431   4.435
 2933SOL    MW412053   0.369   6.513   4.426
 2934SOL     OW12054   1.496   5.868   4.270
 2934SOL    HW212055   1.418   5.818   4.295
 2934SOL    HW312056   1.467   5.959   4.270
 2934SOL    MW412057   1.482   5.872   4.273
 2935SOL     OW12058   1.082   5.830   4.429
 2935SOL    HW212059   1.102   5.905   4.373
 2935SOL    HW312060   1.062   5.869   4.514
 2935SOL    MW412061   1.083   5.846   4.433
 2936SOL     OW12062   0.978   7.080   3.761
 2936SOL    HW212063   1.005   7.158   3.713
 2936SOL    HW312064   0.885   7.095   3.780
 2936SOL    MW412065   0.969   7.093   3.757
 2937SOL     OW12066   1.842   6.603   5.448
 2937SOL    HW212067   1.755   6.583   5.484
 2937SOL    HW312068   1.896   6.529   5.473
 2937SOL    MW412069   1.837   6.592   5.456
 2938SOL     OW12070   0.063   7.116   4.605
 2938SOL    HW212071   0.095   7.120   4.696
 2938SOL    HW312072  -0.032   7.124   4.613
 2938SOL    MW412073   0.055   7.119   4.618
 2939SOL     OW12074   0.018   6.242   4.152
 2939SOL    HW212075  -0.042   6.214   4.222
 2939SOL    HW312076   0.092   6.182   4.158
 2939SOL    MW412077   0.020   6.231   4.161
 2940SOL     OW12078   1.586   7.454   5.586
 2940SOL    HW212079   1.631   7.378   5.551
 2940SOL    HW312080   1.624   7.467   5.673
 2940SOL    MW412081   1.596   7.447   5.592
 2941SOL     OW12082   1.186   6.973   4.312
 2941SOL    HW212083   1.209   6.924   4.390
 2941SOL    HW312084   1.267   7.015   4.284
 2941SOL    MW412085   1.199   6.973   4.319
 2942SOL     OW12086   0.444   5.981   5.041
 2942SOL    HW212087   0.477   6.062   5.081
 2942SOL    HW312088   0.417   6.007   4.953
 2942SOL    MW412089   0.443   5.995   5.035
 2943SOL     OW12090   0.398   5.948   4.777
 2943SOL    HW212091   0.428   5.862   4.748
 2943SOL    HW312092   0.303   5.941   4.780
 2943SOL    MW412093   0.390   5.937   4.775
 2944SOL     OW12094   1.227   6.157   5.468
 2944SOL    HW212095   1.279   6.092   5.421
 2944SOL    HW312096   1.185   6.208   5.398
 2944SOL    MW412097   1.228   6.154   5.451
 2945SOL     OW12098   1.326   5.952   5.329
 2945SOL    HW212099   1.233   5.936   5.316
 2945SOL    HW312100   1.352   5.890   5.397
 2945SOL    MW412101   1.316   5.942   5.336
 2946SOL     OW12102   0.541   5.726   4.668
 2946SOL    HW212103   0.551   5.635   4.694
 2946SOL    HW312104   0.497   5.722   4.583
 2946SOL    MW412105   0.537   5.714   4.660
 2947SOL     OW12106   0.635   7.341   5.214
 2947SOL    HW212107   0.552   7.326   5.259
 2947SOL    HW312108   0.694   7.274   5.249
 2947SOL    MW412109   0.633   7.331   5.224
 2948SOL     OW12110   1.692   6.048   4.839
 2948SOL    HW212111   1.625   6.081   4.899
 2948SOL    HW312112   1.735   6.126   4.805
 2948SOL    MW412113   1.690   6.063   4.843
 2949SOL     OW12114   1.870   6.768   4.809
 2949SOL    HW212115   1.863   6.708   4.734
 2949SOL    HW312116   1.796   6.828   4.798
 2949SOL    MW412117   1.860   6.768   4.798
 2950SOL     OW12118   1.252   6.630   4.727
 2950SOL    HW212119   1.266   6.602   4.818
 2950SOL    HW312120   1.338   6.661   4.699
 2950SOL    MW412121   1.265   6.631   4.736
 2951SOL     OW12122   1.335   6.125   5.006
 2951SOL    HW212123   1.356   6.126   4.913
 2951SOL    HW312124   1.380   6.047   5.039
 2951SOL    MW412125   1.342   6.115   4.998
 2952SOL     OW12126   1.828   6.256   5.548
 2952SOL    HW212127   1.865   6.201   5.617
 2952SOL    HW312128   1.853   6.213   5.466
 2952SOL    MW412129   1.835   6.244   5.547
 2953SOL     OW12130   1.375   6.554   5.600
 2953SOL    HW212131   1.441   6.502   5.554
 2953SOL    HW312132   1.395   6.541   5.693
 2953SOL    MW412133   1.386   6.545   5.607
 2954SOL     OW12134   1.326   5.640   3.948
 2954SOL    HW212135   1.400   5.684   3.991
 2954SOL    HW312136   1.250   5.694   3.970
 2954SOL    MW412137   1.326   5.652   3.956
 2955SOL     OW12138   1.386   6.415   4.226
 2955SOL    HW212139   1.301   6.385   4.196
 2955SOL    HW312140   1.378   6.422   4.321
 2955SOL    MW412141   1.374   6.413   4.235
 2956SOL     OW12142   0.462   6.878   4.957
 2956SOL    HW212143   0.474   6.905   5.048
 2956SOL    HW312144   0.443   6.959   4.910
 2956SOL    MW412145   0.461   6.893   4.962
 2957SOL     OW12146   0.746   5.858   4.780
 2957SOL    HW212147   0.719   5.860   4.871
 2957SOL    HW312148   0.676   5.810   4.735
 2957SOL    MW412149   0.734   5.854   4.787
 2958SOL     OW12150   0.600   7.350   4.942
 2958SOL    HW212151   0.652   7.427   4.919
 2958SOL    HW312152   0.609   7.342   5.037
 2958SOL    MW412153   0.609   7.357   4.953
 2959SOL     OW12154   1.502   6.935   5.174
 2959SOL    HW212155   1.487   6.864   5.237
 2959SOL    HW312156   1.548   6.893   5.102
 2959SOL    MW412157   1.508   6.919   5.174
 2960SOL     OW12158   0.576   6.666   5.291
 2960SOL    HW212159   0.613   6.671   5.203
 2960SOL    HW312160   0.615   6.739   5.338
 2960SOL    MW412161   0.586   6.676   5.286
 2961SOL     OW12162   0.756   6.709   5.103
 2961SOL    HW212163   0.815   6.655   5.156
 2961SOL    HW312164   0.771   6.681   5.013
 2961SOL    MW412165   0.766   6.698   5.099
 2962SOL     OW12166   0.759   6.081   3.952
 2962SOL    HW212167   0.832   6.130   3.915
 2962SOL    HW312168   0.775   5.990   3.926
 2962SOL    MW412169   0.771   6.076   3.945
 2963SOL     OW12170   1.567   7.198   5.275
 2963SOL    HW212171   1.609   7.183   5.360
 2963SOL    HW312172   1.558   7.111   5.237
 2963SOL    MW412173   1.571   7.186   5.282
 2964SOL     OW12174   1.227   5.677   4.866
 2964SOL    HW212175   1.282   5.686   4.788
 2964SOL    HW312176   1.282   5.711   4.937
 2964SOL    MW412177   1.241   5.682   4.865
 2965SOL     OW12178   0.234   6.590   4.050
 2965SOL    HW212179   0.171   6.606   3.979
 2965SOL    HW312180   0.181   6.553   4.121
 2965SOL    MW412181   0.219   6.587   4.050
 2966SOL     OW12182   0.590   6.944   3.909
 2966SOL    HW212183   0.605   6.920   4.001
 2966SOL    HW312184   0.498   6.922   3.893
 2966SOL    MW412185   0.580   6.937   3.919
 2967SOL     OW12186   1.129   7.175   4.061
 2967SOL    HW212187   1.137   7.093   4.012
 2967SOL    HW312188   1.048   7.214   4.028
 2967SOL    MW412189   1.119   7.170   4.051
 2968SOL     OW12190   0.388   7.333   4.630
 2968SOL    HW212191   0.392   7.244   4.665
 2968SOL    HW312192   0.414   7.324   4.539
 2968SOL    MW412193   0.391   7.321   4.622
 2969SOL     OW12194   1.005   6.811   4.873
 2969SOL    HW212195   0.937   6.745   4.889
 2969SOL    HW312196   1.023   6.805   4.780
 2969SOL    MW412197   0.998   6.802   4.864
 2970SOL     OW12198   0.094   7.086   5.124
 2970SOL    HW212199   0.084   7.044   5.210
 2970SOL    HW312200   0.015   7.139   5.114
 2970SOL    MW412201   0.083   7.087   5.135
 2971SOL     OW12202   0.998   5.950   4.694
 2971SOL    HW212203   0.928   5.902   4.739
 2971SOL    HW312204   1.030   6.013   4.758
 2971SOL    MW412205   0.993   5.952   4.708
 2972SOL     OW12206   0.649   6.386   5.314
 2972SOL    HW212207   0.642   6.481   5.302
 2972SOL    HW312208   0.658   6.375   5.409
 2972SOL    MW412209   0.650   6.398   5.324
 2973SOL     OW12210   0.370   6.901   5.572
 2973SOL    HW212211   0.442   6.903   5.509
 2973SOL    HW312212   0.340   6.810   5.571
 2973SOL    MW412213   0.375   6.890   5.564
 2974SOL     OW12214   1.454   5.664   5.039
 2974SOL    HW212215   1.525   5.610   5.003
 2974SOL    HW312216   1.453   5.643   5.132
 2974SOL    MW412217   1.463   5.655   5.047
 2975SOL     OW12218   1.654   7.194   5.523
 2975SOL    HW212219   1.627   7.191   5.614
 2975SOL    HW312220   1.750   7.198   5.526
 2975SOL    MW412221   1.664   7.194   5.535
 2976SOL     OW12222   0.465   6.056   4.507
 2976SOL    HW212223   0.536   6.004   4.470
 2976SOL    HW312224   0.451   6.021   4.594
 2976SOL    MW412225   0.473   6.045   4.514
 2977SOL     OW12226   0.020   7.391   5.579
 2977SOL    HW212227   0.070   7.369   5.501
 2977SOL    HW312228   0.028   7.486   5.587
 2977SOL    MW412229   0.028   7.400   5.570
 2978SOL     OW12230   0.781   7.149   4.583
 2978SOL    HW212231   0.709   7.086   4.596
 2978SOL    HW312232   0.742   7.234   4.601
 2978SOL    MW412233   0.765   7.152   4.586
 2979SOL     OW12234   1.101   5.997   4.231
 2979SOL    HW212235   1.123   5.934   4.163
 2979SOL    HW312236   1.006   5.989   4.242
 2979SOL    MW412237   1.091   5.988   4.223
 2980SOL     OW12238   0.186   5.687   4.163
 2980SOL    HW212239   0.257   5.708   4.102
 2980SOL    HW312240   0.140   5.615   4.121
 2980SOL    MW412241   0.190   5.681   4.149
 2981SOL     OW12242   0.017   6.154   5.306
 2981SOL    HW212243   0.081   6.220   5.281
 2981SOL    HW312244  -0.064   6.181   5.263
 2981SOL    MW412245   0.015   6.166   5.298
 2982SOL     OW12246   1.755   7.061   4.263
 2982SOL    HW212247   1.725   6.994   4.324
 2982SOL    HW312248   1.849   7.067   4.277
 2982SOL    MW412249   1.763   7.053   4.273
 2983SOL     OW12250   1.311   6.738   4.193
 2983SOL    HW212251   1.283   6.824   4.226
 2983SOL    HW312252   1.339   6.754   4.103
 2983SOL    MW412253   1.311   6.752   4.185
 2984SOL     OW12254   0.973   5.658   4.246
 2984SOL    HW212255   1.010   5.717   4.311
 2984SOL    HW312256   0.950   5.714   4.172
 2984SOL    MW412257   0.974   5.673   4.245
 2985SOL     OW12258   1.826   6.540   4.668
 2985SOL    HW212259   1.817   6.572   4.579
 2985SOL    HW312260   1.779   6.456   4.668
 2985SOL    MW412261   1.819   6.533   4.658
 2986SOL     OW12262   0.202   6.380   5.247
 2986SOL    HW212263   0.223   6.449   5.185
 2986SOL    HW312264   0.282   6.327   5.252
 2986SOL    MW412265   0.215   6.381   5.241
 2987SOL     OW12266   1.738   6.471   4.369
 2987SOL    HW212267   1.832   6.460   4.357
 2987SOL    HW312268   1.714   6.543   4.310
 2987SOL    MW412269   1.748   6.479   4.360
 2988SOL     OW12270   0.187   6.395   5.514
 2988SOL    HW212271   0.113   6.339   5.540
 2988SOL    HW312272   0.182   6.398   5.419
 2988SOL    MW412273   0.176   6.388   5.504
 2989SOL     OW12274   0.353   5.682   4.964
 2989SOL    HW212275   0.396   5.766   4.984
 2989SOL    HW312276   0.426   5.620   4.957
 2989SOL    MW412277   0.368   5.685   4.965
 2990SOL     OW12278   0.394   6.349   4.142
 2990SOL    HW212279   0.394   6.444   4.127
 2990SOL    HW312280   0.471   6.333   4.196
 2990SOL    MW412281   0.404   6.360   4.147
 2991SOL     OW12282   1.170   6.208   5.206
 2991SOL    HW212283   1.206   6.181   5.122
 2991SOL    HW312284   1.083   6.242   5.185
 2991SOL    MW412285   1.164   6.209   5.193
 2992SOL     OW12286   0.153   6.080   4.431
 2992SOL    HW212287   0.215   6.087   4.504
 2992SOL    HW312288   0.153   5.987   4.408
 2992SOL    MW412289   0.161   6.069   4.438
 2993SOL     OW12290   1.700   7.420   3.963
 2993SOL    HW212291   1.767   7.453   3.903
 2993SOL    HW312292   1.657   7.499   3.997
 2993SOL    MW412293   1.702   7.435   3.959
 2994SOL     OW12294   0.835   6.341   4.915
 2994SOL    HW212295   0.793   6.259   4.891
 2994SOL    HW312296   0.836   6.340   5.011
 2994SOL    MW412297   0.828   6.330   4.924
 2995SOL     OW12298   1.506   7.474   5.314
 2995SOL    HW212299   1.509   7.380   5.297
 2995SOL    HW312300   1.529   7.482   5.406
 2995SOL    MW412301   1.509   7.462   5.324
 2996SOL     OW12302   0.639   5.811   5.020
 2996SOL    HW212303   0.570   5.874   5.041
 2996SOL    HW312304   0.666   5.775   5.105
 2996SOL    MW412305   0.633   5.814   5.033
 2997SOL     OW12306   0.022   6.652   3.889
 2997SOL    HW212307  -0.009   6.717   3.952
 2997SOL    HW312308  -0.029   6.574   3.908
 2997SOL    MW412309   0.012   6.649   3.899
 2998SOL     OW12310   1.434   5.664   4.637
 2998SOL    HW212311   1.522   5.673   4.674
 2998SOL    HW312312   1.444   5.605   4.563
 2998SOL    MW412313   1.448   5.658   4.631
 2999SOL     OW12314   1.466   6.403   4.481
 2999SOL    HW212315   1.546   6.418   4.430
 2999SOL    HW312316   1.459   6.308   4.487
 2999SOL    MW412317   1.475   6.392   4.476
 3000SOL     OW12318   0.606   7.452   3.831
 3000SOL    HW212319   0.511   7.452   3.823
 3000SOL    HW312320   0.622   7.398   3.909
 3000SOL    MW412321   0.596   7.446   3.840
 3001SOL     OW12322   0.916   6.329   5.178
 3001SOL    HW212323   0.985   6.396   5.175
 3001SOL    HW312324   0.849   6.367   5.234
 3001SOL    MW412325   0.917   6.342   5.185
 3002SOL     OW12326   0.334   6.629   5.426
 3002SOL    HW212327   0.288   6.545   5.428
 3002SOL    HW312328   0.391   6.623   5.350
 3002SOL    MW412329   0.336   6.617   5.418
 3003SOL     OW12330   1.451   6.272   3.747
 3003SOL    HW212331   1.379   6.248   3.689
 3003SOL    HW312332   1.517   6.309   3.689
 3003SOL    MW412333   1.450   6.274   3.732
 3004SOL     OW12334   0.585   7.004   4.427
 3004SOL    HW212335   0.650   6.937   4.448
 3004SOL    HW312336   0.637   7.081   4.404
 3004SOL    MW412337   0.600   7.006   4.426
 3005SOL     OW12338   0.846   6.169   4.557
 3005SOL    HW212339   0.786   6.187   4.629
 3005SOL    HW312340   0.880   6.081   4.576
 3005SOL    MW412341   0.842   6.159   4.570
 3006SOL     OW12342   1.787   5.668   5.226
 3006SOL    HW212343   1.708   5.714   5.254
 3006SOL    HW312344   1.822   5.722   5.155
 3006SOL    MW412345   1.781   5.681   5.220
 3007SOL     OW12346   1.071   6.752   4.576
 3007SOL    HW212347   1.163   6.733   4.594
 3007SOL    HW312348   1.044   6.682   4.516
 3007SOL    MW412349   1.079   6.740   4.570
 3008SOL     OW12350   0.864   6.572   3.931
 3008SOL    HW212351   0.850   6.484   3.896
 3008SOL    HW312352   0.815   6.629   3.872
 3008SOL    MW412353   0.856   6.567   3.919
 3009SOL     OW12354   1.345   6.990   4.672
 3009SOL    HW212355   1.318   7.074   4.637
 3009SOL    HW312356   1.305   6.985   4.759
 3009SOL    MW412357   1.338   6.999   4.678
 3010SOL     OW12358   1.264   6.938   4.940
 3010SOL    HW212359   1.275   6.905   5.029
 3010SOL    HW312360   1.183   6.897   4.909
 3010SOL    MW412361   1.254   6.930   4.946
 3011SOL     OW12362   0.277   6.296   4.710
 3011SOL    HW212363   0.227   6.295   4.791
 3011SOL    HW312364   0.297   6.388   4.694
 3011SOL    MW412365   0.273   6.308   4.718
 3012SOL     OW12366   1.344   7.060   5.472
 3012SOL    HW212367   1.344   7.154   5.488
 3012SOL    HW312368   1.389   7.050   5.388
 3012SOL    MW412369   1.350   7.070   5.463
 3013SOL     OW12370   1.583   5.778   4.033
 3013SOL    HW212371   1.576   5.782   4.128
 3013SOL    HW312372   1.595   5.869   4.006
 3013SOL    MW412373   1.584   5.791   4.041
 3014SOL     OW12374   0.872   6.341   4.147
 3014SOL    HW212375   0.852   6.327   4.054
 3014SOL    HW312376   0.965   6.320   4.154
 3014SOL    MW412377   0.882   6.336   4.136
 3015SOL     OW12378   0.199   5.964   5.451
 3015SOL    HW212379   0.156   6.023   5.388
 3015SOL    HW312380   0.267   6.019   5.491
 3015SOL    MW412381   0.203   5.979   5.448
 3016SOL     OW12382   1.311   6.584   4.996
 3016SOL    HW212383   1.374   6.581   5.069
 3016SOL    HW312384   1.227   6.602   5.038
 3016SOL    MW412385   1.307   6.586   5.011
 3017SOL     OW12386   0.855   7.299   4.185
 3017SOL    HW212387   0.913   7.370   4.212
 3017SOL    HW312388   0.878   7.227   4.243
 3017SOL    MW412389   0.866   7.299   4.196
 3018SOL     OW12390   1.650   5.761   4.775
 3018SOL    HW212391   1.695   5.679   4.794
 3018SOL    HW312392   1.670   5.817   4.851
 3018SOL    MW412393   1.660   5.757   4.787
 3019SOL     OW12394   0.098   5.604   4.874
 3019SOL    HW212395   0.089   5.605   4.779
 3019SOL    HW312396   0.192   5.616   4.889
 3019SOL    MW412397   0.110   5.607   4.865
 3020SOL     OW12398   1.735   6.797   4.494
 3020SOL    HW212399   1.714   6.743   4.417
 3020SOL    HW312400   1.831   6.795   4.498
 3020SOL    MW412401   1.744   6.790   4.483
 3021SOL     OW12402   0.427   6.942   5.237
 3021SOL    HW212403   0.348   6.892   5.260
 3021SOL    HW312404   0.497   6.901   5.287
 3021SOL    MW412405   0.425   6.930   5.247
 3022SOL     OW12406   0.311   5.731   3.920
 3022SOL    HW212407   0.240   5.786   3.888
 3022SOL    HW312408   0.353   5.697   3.841
 3022SOL    MW412409   0.307   5.733   3.906
 3023SOL     OW12410   1.435   6.228   4.756
 3023SOL    HW212411   1.358   6.274   4.722
 3023SOL    HW312412   1.492   6.297   4.790
 3023SOL    MW412413   1.432   6.243   4.756
 3024SOL     OW12414   0.067   5.830   3.769
 3024SOL    HW212415   0.034   5.909   3.813
 3024SOL    HW312416   0.122   5.863   3.698
 3024SOL    MW412417   0.070   5.844   3.766
 3025SOL     OW12418   0.101   7.087   3.958
 3025SOL    HW212419   0.118   7.171   4.000
 3025SOL    HW312420   0.136   7.096   3.870
 3025SOL    MW412421   0.106   7.100   3.952
 3026SOL     OW12422   1.373   7.176   4.175
 3026SOL    HW212423   1.436   7.166   4.104
 3026SOL    HW312424   1.290   7.196   4.130
 3026SOL    MW412425   1.370   7.177   4.160
 3027SOL     OW12426   1.736   6.444   5.862
 3027SOL    HW212427   1.777   6.386   5.927
 3027SOL    HW312428   1.643   6.436   5.879
 3027SOL    MW412429   1.730   6.436   5.872
 3028SOL     OW12430   0.530   6.627   6.091
 3028SOL    HW212431   0.620   6.602   6.075
 3028SOL    HW312432   0.526   6.720   6.068
 3028SOL    MW412433   0.542   6.636   6.086
 3029SOL     OW12434   1.646   7.330   6.233
 3029SOL    HW212435   1.658   7.276   6.311
 3029SOL    HW312436   1.683   7.278   6.162
 3029SOL    MW412437   1.652   7.315   6.234
 3030SOL     OW12438   0.814   6.083   6.104
 3030SOL    HW212439   0.789   6.171   6.132
 3030SOL    HW312440   0.811   6.086   6.008
 3030SOL    MW412441   0.810   6.095   6.096
 3031SOL     OW12442   0.256   6.111   6.032
 3031SOL    HW212443   0.288   6.199   6.014
 3031SOL    HW312444   0.244   6.109   6.127
 3031SOL    MW412445   0.259   6.123   6.044
 3032SOL     OW12446   0.655   5.866   6.119
 3032SOL    HW212447   0.713   5.942   6.121
 3032SOL    HW312448   0.590   5.887   6.052
 3032SOL    MW412449   0.654   5.878   6.110
 3033SOL     OW12450   0.742   6.793   6.294
 3033SOL    HW212451   0.822   6.796   6.346
 3033SOL    HW312452   0.770   6.760   6.208
 3033SOL    MW412453   0.756   6.789   6.289
 3034SOL     OW12454   0.519   6.297   6.285
 3034SOL    HW212455   0.504   6.217   6.336
 3034SOL    HW312456   0.601   6.332   6.319
 3034SOL    MW412457   0.527   6.289   6.297
 3035SOL     OW12458   0.661   6.123   6.662
 3035SOL    HW212459   0.567   6.119   6.680
 3035SOL    HW312460   0.691   6.032   6.671
 3035SOL    MW412461   0.652   6.111   6.665
 3036SOL     OW12462   0.407   6.537   6.566
 3036SOL    HW212463   0.362   6.544   6.482
 3036SOL    HW312464   0.387   6.620   6.610
 3036SOL    MW412465   0.399   6.549   6.560
 3037SOL     OW12466   0.104   7.383   6.441
 3037SOL    HW212467   0.193   7.375   6.476
 3037SOL    HW312468   0.068   7.295   6.446
 3037SOL    MW412469   0.111   7.370   6.446
 3038SOL     OW12470   1.369   6.775   5.810
 3038SOL    HW212471   1.287   6.811   5.776
 3038SOL    HW312472   1.437   6.818   5.759
 3038SOL    MW412473   1.367   6.785   5.798
 3039SOL     OW12474   0.368   6.910   6.476
 3039SOL    HW212475   0.344   6.963   6.552
 3039SOL    HW312476   0.424   6.968   6.424
 3039SOL    MW412477   0.372   6.925   6.479
 3040SOL     OW12478   0.930   6.554   6.286
 3040SOL    HW212479   0.844   6.541   6.326
 3040SOL    HW312480   0.983   6.481   6.318
 3040SOL    MW412481   0.926   6.543   6.295
 3041SOL     OW12482   0.921   6.916   6.003
 3041SOL    HW212483   0.898   6.978   6.071
 3041SOL    HW312484   0.878   6.834   6.029
 3041SOL    MW412485   0.913   6.912   6.014
 3042SOL     OW12486   1.794   5.917   6.459
 3042SOL    HW212487   1.731   5.897   6.528
 3042SOL    HW312488   1.784   5.846   6.396
 3042SOL    MW412489   1.784   5.904   6.460
 3043SOL     OW12490   0.418   5.889   5.971
 3043SOL    HW212491   0.392   5.851   5.887
 3043SOL    HW312492   0.355   5.959   5.987
 3043SOL    MW412493   0.407   5.892   5.962
 3044SOL     OW12494   0.253   6.850   6.008
 3044SOL    HW212495   0.201   6.918   5.964
 3044SOL    HW312496   0.250   6.776   5.948
 3044SOL    MW412497   0.245   6.849   5.995
 3045SOL     OW12498   0.915   7.313   5.786
 3045SOL    HW212499   0.870   7.329   5.869
 3045SOL    HW312500   0.846   7.278   5.728
 3045SOL    MW412501   0.901   7.310   5.788
 3046SOL     OW12502   1.850   6.086   5.761
 3046SOL    HW212503   1.759   6.088   5.789
 3046SOL    HW312504   1.895   6.148   5.819
 3046SOL    MW412505   1.843   6.094   5.771
 3047SOL     OW12506   1.595   6.689   6.111
 3047SOL    HW212507   1.505   6.689   6.146
 3047SOL    HW312508   1.588   6.735   6.028
 3047SOL    MW412509   1.582   6.695   6.105
 3048SOL     OW12510   0.136   7.204   6.735
 3048SOL    HW212511   0.119   7.150   6.812
 3048SOL    HW312512   0.124   7.294   6.765
 3048SOL    MW412513   0.133   7.208   6.749
 3049SOL     OW12514   1.502   6.667   6.503
 3049SOL    HW212515   1.505   6.601   6.434
 3049SOL    HW312516   1.587   6.710   6.499
 3049SOL    MW412517   1.514   6.663   6.494
 3050SOL     OW12518   1.122   6.270   6.072
 3050SOL    HW212519   1.148   6.294   5.983
 3050SOL    HW312520   1.104   6.177   6.068
 3050SOL    MW412521   1.124   6.262   6.059
 3051SOL     OW12522   1.787   6.890   5.923
 3051SOL    HW212523   1.743   6.931   5.998
 3051SOL    HW312524   1.844   6.958   5.888
 3051SOL    MW412525   1.789   6.904   5.928
 3052SOL     OW12526   0.443   7.306   6.241
 3052SOL    HW212527   0.475   7.394   6.219
 3052SOL    HW312528   0.396   7.278   6.163
 3052SOL    MW412529   0.442   7.314   6.228
 3053SOL     OW12530   1.827   5.668   6.290
 3053SOL    HW212531   1.881   5.619   6.352
 3053SOL    HW312532   1.770   5.602   6.251
 3053SOL    MW412533   1.827   5.652   6.292
 3054SOL     OW12534   0.159   7.366   5.818
 3054SOL    HW212535   0.188   7.456   5.810
 3054SOL    HW312536   0.109   7.349   5.739
 3054SOL    MW412537   0.157   7.374   5.807
 3055SOL     OW12538   0.946   5.621   6.703
 3055SOL    HW212539   0.905   5.699   6.665
 3055SOL    HW312540   1.040   5.639   6.698
 3055SOL    MW412541   0.952   5.633   6.698
 3056SOL     OW12542   1.563   7.174   5.789
 3056SOL    HW212543   1.611   7.243   5.835
 3056SOL    HW312544   1.484   7.218   5.758
 3056SOL    MW412545   1.558   7.188   5.792
 3057SOL     OW12546   0.961   6.299   5.733
 3057SOL    HW212547   0.963   6.246   5.654
 3057SOL    HW312548   1.049   6.336   5.739
 3057SOL    MW412549   0.973   6.298   5.722
 3058SOL     OW12550   1.575   6.225   6.069
 3058SOL    HW212551   1.614   6.225   6.156
 3058SOL    HW312552   1.516   6.301   6.069
 3058SOL    MW412553   1.572   6.236   6.080
 3059SOL     OW12554   1.061   6.218   6.792
 3059SOL    HW212555   1.136   6.247   6.739
 3059SOL    HW312556   0.993   6.283   6.776
 3059SOL    MW412557   1.062   6.230   6.782
 3060SOL     OW12558   1.762   6.111   6.235
 3060SOL    HW212559   1.851   6.080   6.252
 3060SOL    HW312560   1.705   6.051   6.283
 3060SOL    MW412561   1.765   6.099   6.244
 3061SOL     OW12562   0.188   5.825   6.264
 3061SOL    HW212563   0.179   5.765   6.190
 3061SOL    HW312564   0.121   5.796   6.327
 3061SOL    MW412565   0.178   5.812   6.262
 3062SOL     OW12566   1.131   6.918   5.825
 3062SOL    HW212567   1.081   6.920   5.907
 3062SOL    HW312568   1.065   6.936   5.757
 3062SOL    MW412569   1.117   6.920   5.827
 3063SOL     OW12570   0.135   5.998   6.627
 3063SOL    HW212571   0.107   6.089   6.636
 3063SOL    HW312572   0.072   5.959   6.566
 3063SOL    MW412573   0.122   6.004   6.621
 3064SOL     OW12574   0.594   7.336   5.933
 3064SOL    HW212575   0.515   7.294   5.966
 3064SOL    HW312576   0.660   7.319   6.000
 3064SOL    MW412577   0.593   7.328   5.946
 3065SOL     OW12578   0.730   6.751   5.640
 3065SOL    HW212579   0.652   6.697   5.627
 3065SOL    HW312580   0.701   6.824   5.693
 3065SOL    MW412581   0.716   6.753   5.645
 3066SOL     OW12582   1.856   6.491   6.832
 3066SOL    HW212583   1.872   6.529   6.745
 3066SOL    HW312584   1.890   6.557   6.893
 3066SOL    MW412585   1.863   6.504   6.828
 3067SOL     OW12586   1.648   7.200   6.501
 3067SOL    HW212587   1.677   7.267   6.562
 3067SOL    HW312588   1.629   7.124   6.556
 3067SOL    MW412589   1.650   7.200   6.516
 3068SOL     OW12590   1.311   7.267   5.708
 3068SOL    HW212591   1.237   7.230   5.758
 3068SOL    HW312592   1.319   7.357   5.741
 3068SOL    MW412593   1.302   7.274   5.720
 3069SOL     OW12594   1.535   6.941   5.650
 3069SOL    HW212595   1.482   6.990   5.586
 3069SOL    HW312596   1.566   7.007   5.711
 3069SOL    MW412597   1.533   6.955   5.648
 3070SOL     OW12598   0.760   5.830   5.705
 3070SOL    HW212599   0.708   5.750   5.693
 3070SOL    HW312600   0.847   5.807   5.673
 3070SOL    MW412601   0.763   5.816   5.699
 3071SOL     OW12602   0.266   6.701   6.756
 3071SOL    HW212603   0.319   6.776   6.781
 3071SOL    HW312604   0.185   6.739   6.722
 3071SOL    MW412605   0.262   6.716   6.756
 3072SOL     OW12606   0.806   6.605   6.744
 3072SOL    HW212607   0.834   6.514   6.756
 3072SOL    HW312608   0.735   6.599   6.680
 3072SOL    MW412609   0.799   6.593   6.739
 3073SOL     OW12610   0.121   6.470   6.162
 3073SOL    HW212611   0.212   6.485   6.189
 3073SOL    HW312612   0.124   6.391   6.108
 3073SOL    MW412613   0.133   6.462   6.160
 3074SOL     OW12614   0.748   7.402   6.536
 3074SOL    HW212615   0.837   7.417   6.566
 3074SOL    HW312616   0.743   7.449   6.452
 3074SOL    MW412617   0.758   7.410   6.529
 3075SOL     OW12618   0.129   7.082   6.201
 3075SOL    HW212619   0.101   7.121   6.283
 3075SOL    HW312620   0.149   6.991   6.223
 3075SOL    MW412621   0.127   7.074   6.214
 3076SOL     OW12622   0.962   7.125   6.236
 3076SOL    HW212623   1.045   7.079   6.220
 3076SOL    HW312624   0.952   7.124   6.332
 3076SOL    MW412625   0.972   7.118   6.246
 3077SOL     OW12626   1.794   6.270   6.550
 3077SOL    HW212627   1.883   6.300   6.532
 3077SOL    HW312628   1.774   6.210   6.479
 3077SOL    MW412629   1.803   6.267   6.539
 3078SOL     OW12630   0.695   7.182   5.641
 3078SOL    HW212631   0.635   7.251   5.611
 3078SOL    HW312632   0.640   7.124   5.694
 3078SOL    MW412633   0.679   7.184   5.643
 3079SOL     OW12634   1.133   5.827   5.864
 3079SOL    HW212635   1.066   5.803   5.801
 3079SOL    HW312636   1.198   5.876   5.813
 3079SOL    MW412637   1.133   5.829   5.849
 3080SOL     OW12638   1.200   6.349   6.572
 3080SOL    HW212639   1.213   6.443   6.582
 3080SOL    HW312640   1.161   6.339   6.486
 3080SOL    MW412641   1.196   6.360   6.562
 3081SOL     OW12642   0.652   6.544   6.376
 3081SOL    HW212643   0.563   6.535   6.409
 3081SOL    HW312644   0.656   6.634   6.344
 3081SOL    MW412645   0.641   6.555   6.376
 3082SOL     OW12646   1.451   6.127   6.371
 3082SOL    HW212647   1.396   6.048   6.370
 3082SOL    HW312648   1.433   6.168   6.455
 3082SOL    MW412649   1.441   6.122   6.380
 3083SOL     OW12650   1.070   6.331   6.328
 3083SOL    HW212651   1.007   6.263   6.352
 3083SOL    HW312652   1.090   6.312   6.236
 3083SOL    MW412653   1.064   6.318   6.320
 3084SOL     OW12654   0.326   7.226   6.030
 3084SOL    HW212655   0.287   7.273   5.956
 3084SOL    HW312656   0.260   7.161   6.055
 3084SOL    MW412657   0.313   7.224   6.024
 3085SOL     OW12658   0.818   6.635   6.054
 3085SOL    HW212659   0.820   6.609   5.961
 3085SOL    HW312660   0.876   6.572   6.097
 3085SOL    MW412661   0.826   6.624   6.048
 3086SOL     OW12662   1.375   7.403   6.256
 3086SOL    HW212663   1.318   7.356   6.195
 3086SOL    HW312664   1.461   7.364   6.243
 3086SOL    MW412665   1.378   7.394   6.246
 3087SOL     OW12666   1.328   5.879   6.387
 3087SOL    HW212667   1.356   5.811   6.448
 3087SOL    HW312668   1.242   5.850   6.357
 3087SOL    MW412669   1.321   5.866   6.391
 3088SOL     OW12670   0.133   6.813   6.321
 3088SOL    HW212671   0.197   6.845   6.384
 3088SOL    HW312672   0.182   6.749   6.269
 3088SOL    MW412673   0.148   6.809   6.322
 3089SOL     OW12674   1.308   5.983   5.722
 3089SOL    HW212675   1.281   6.049   5.658
 3089SOL    HW312676   1.378   6.026   5.772
 3089SOL    MW412677   1.313   5.996   5.719
 3090SOL     OW12678   0.976   5.688   5.659
 3090SOL    HW212679   1.032   5.680   5.581
 3090SOL    HW312680   0.953   5.598   5.681
 3090SOL    MW412681   0.981   5.675   5.652
 3091SOL     OW12682   1.481   6.539   5.864
 3091SOL    HW212683   1.448   6.628   5.854
 3091SOL    HW312684   1.446   6.510   5.949
 3091SOL    MW412685   1.471   6.548   5.875
 3092SOL     OW12686   0.411   7.126   6.693
 3092SOL    HW212687   0.456   7.188   6.750
 3092SOL    HW312688   0.318   7.145   6.706
 3092SOL    MW412689   0.404   7.136   6.700
 3093SOL     OW12690   0.833   7.194   6.801
 3093SOL    HW212691   0.857   7.183   6.710
 3093SOL    HW312692   0.756   7.251   6.799
 3093SOL    MW412693   0.825   7.199   6.790
 3094SOL     OW12694   0.475   6.577   5.656
 3094SOL    HW212695   0.398   6.590   5.712
 3094SOL    HW312696   0.439   6.541   5.575
 3094SOL    MW412697   0.461   6.573   5.653
 3095SOL     OW12698   1.128   6.550   5.899
 3095SOL    HW212699   1.038   6.571   5.874
 3095SOL    HW312700   1.155   6.623   5.955
 3095SOL    MW412701   1.120   6.562   5.902
 3096SOL     OW12702   0.628   6.899   6.591
 3096SOL    HW212703   0.621   6.878   6.685
 3096SOL    HW312704   0.546   6.867   6.554
 3096SOL    MW412705   0.616   6.893   6.598
 3097SOL     OW12706   0.757   5.666   6.306
 3097SOL    HW212707   0.686   5.727   6.288
 3097SOL    HW312708   0.808   5.663   6.225
 3097SOL    MW412709   0.753   5.672   6.293
 3098SOL     OW12710   0.515   6.906   6.055
 3098SOL    HW212711   0.508   6.938   6.145
 3098SOL    HW312712   0.425   6.890   6.027
 3098SOL    MW412713   0.503   6.908   6.062
 3099SOL     OW12714   1.224   7.264   6.454
 3099SOL    HW212715   1.271   7.337   6.413
 3099SOL    HW312716   1.145   7.303   6.490
 3099SOL    MW412717   1.219   7.279   6.453
 3100SOL     OW12718   1.632   7.359   6.729
 3100SOL    HW212719   1.675   7.329   6.809
 3100SOL    HW312720   1.551   7.307   6.726
 3100SOL    MW412721   1.627   7.348   6.739
 3101SOL     OW12722   0.518   6.190   5.769
 3101SOL    HW212723   0.484   6.246   5.839
 3101SOL    HW312724   0.589   6.140   5.809
 3101SOL    MW412725   0.524   6.191   5.783
 3102SOL     OW12726   1.614   6.941   6.591
 3102SOL    HW212727   1.649   6.923   6.504
 3102SOL    HW312728   1.519   6.942   6.578
 3102SOL    MW412729   1.606   6.938   6.578
 3103SOL     OW12730   1.574   6.076   5.833
 3103SOL    HW212731   1.566   6.147   5.770
 3103SOL    HW312732   1.592   6.120   5.916
 3103SOL    MW412733   1.575   6.090   5.835
 3104SOL     OW12734   0.434   5.731   6.262
 3104SOL    HW212735   0.484   5.774   6.193
 3104SOL    HW312736   0.349   5.775   6.262
 3104SOL    MW412737   0.431   5.744   6.253
 3105SOL     OW12738   1.243   6.338   5.808
 3105SOL    HW212739   1.290   6.356   5.727
 3105SOL    HW312740   1.209   6.422   5.836
 3105SOL    MW412741   1.245   6.352   5.801
 3106SOL     OW12742   0.356   6.516   6.302
 3106SOL    HW212743   0.414   6.572   6.250
 3106SOL    HW312744   0.400   6.431   6.304
 3106SOL    MW412745   0.369   6.513   6.295
 3107SOL     OW12746   1.496   5.868   6.139
 3107SOL    HW212747   1.418   5.818   6.164
 3107SOL    HW312748   1.467   5.959   6.139
 3107SOL    MW412749   1.482   5.872   6.142
 3108SOL     OW12750   1.082   5.830   6.298
 3108SOL    HW212751   1.102   5.905   6.242
 3108SOL    HW312752   1.062   5.869   6.383
 3108SOL    MW412753   1.083   5.846   6.302
 3109SOL     OW12754   0.978   7.080   5.630
 3109SOL    HW212755   1.005   7.158   5.582
 3109SOL    HW312756   0.885   7.095   5.649
 3109SOL    MW412757   0.969   7.093   5.626
 3110SOL     OW12758   0.063   7.116   6.474
 3110SOL    HW212759   0.095   7.120   6.565
 3110SOL    HW312760  -0.032   7.124   6.482
 3110SOL    MW412761   0.055   7.119   6.487
 3111SOL     OW12762   0.018   6.242   6.021
 3111SOL    HW212763  -0.042   6.214   6.091
 3111SOL    HW312764   0.092   6.182   6.027
 3111SOL    MW412765   0.020   6.231   6.030
 3112SOL     OW12766   1.186   6.973   6.181
 3112SOL    HW212767   1.209   6.924   6.259
 3112SOL    HW312768   1.267   7.015   6.153
 3112SOL    MW412769   1.199   6.973   6.188
 3113SOL     OW12770   0.398   5.948   6.646
 3113SOL    HW212771   0.428   5.862   6.617
 3113SOL    HW312772   0.303   5.941   6.649
 3113SOL    MW412773   0.390   5.937   6.644
 3114SOL     OW12774   0.541   5.726   6.537
 3114SOL    HW212775   0.551   5.635   6.563
 3114SOL    HW312776   0.497   5.722   6.452
 3114SOL    MW412777   0.537   5.714   6.529
 3115SOL     OW12778   1.692   6.048   6.708
 3115SOL    HW212779   1.625   6.081   6.768
 3115SOL    HW312780   1.735   6.126   6.674
 3115SOL    MW412781   1.690   6.063   6.712
 3116SOL     OW12782   1.870   6.768   6.678
 3116SOL    HW212783   1.863   6.708   6.603
 3116SOL    HW312784   1.796   6.828   6.667
 3116SOL    MW412785   1.860   6.768   6.667
 3117SOL     OW12786   1.252   6.630   6.596
 3117SOL    HW212787   1.266   6.602   6.687
 3117SOL    HW312788   1.338   6.661   6.568
 3117SOL    MW412789   1.265   6.631   6.605
 3118SOL     OW12790   1.326   5.640   5.817
 3118SOL    HW212791   1.400   5.684   5.860
 3118SOL    HW312792   1.250   5.694   5.839
 3118SOL    MW412793   1.326   5.652   5.825
 3119SOL     OW12794   1.386   6.415   6.095
 3119SOL    HW212795   1.301   6.385   6.065
 3119SOL    HW312796   1.378   6.422   6.190
 3119SOL    MW412797   1.374   6.413   6.104
 3120SOL     OW12798   0.746   5.858   6.649
 3120SOL    HW212799   0.719   5.860   6.740
 3120SOL    HW312800   0.676   5.810   6.604
 3120SOL    MW412801   0.734   5.854   6.656
 3121SOL     OW12802   0.759   6.081   5.821
 3121SOL    HW212803   0.832   6.130   5.784
 3121SOL    HW312804   0.775   5.990   5.795
 3121SOL    MW412805   0.771   6.076   5.814
 3122SOL     OW12806   1.227   5.677   6.735
 3122SOL    HW212807   1.282   5.686   6.657
 3122SOL    HW312808   1.282   5.711   6.806
 3122SOL    MW412809   1.241   5.682   6.734
 3123SOL     OW12810   0.234   6.590   5.919
 3123SOL    HW212811   0.171   6.606   5.848
 3123SOL    HW312812   0.181   6.553   5.990
 3123SOL    MW412813   0.219   6.587   5.919
 3124SOL     OW12814   0.590   6.944   5.778
 3124SOL    HW212815   0.605   6.920   5.870
 3124SOL    HW312816   0.498   6.922   5.762
 3124SOL    MW412817   0.580   6.937   5.788
 3125SOL     OW12818   1.129   7.175   5.930
 3125SOL    HW212819   1.137   7.093   5.881
 3125SOL    HW312820   1.048   7.214   5.897
 3125SOL    MW412821   1.119   7.170   5.920
 3126SOL     OW12822   0.388   7.333   6.499
 3126SOL    HW212823   0.392   7.244   6.534
 3126SOL    HW312824   0.414   7.324   6.408
 3126SOL    MW412825   0.391   7.321   6.491
 3127SOL     OW12826   1.005   6.811   6.742
 3127SOL    HW212827   0.937   6.745   6.758
 3127SOL    HW312828   1.023   6.805   6.649
 3127SOL    MW412829   0.998   6.802   6.733
 3128SOL     OW12830   0.998   5.950   6.563
 3128SOL    HW212831   0.928   5.902   6.608
 3128SOL    HW312832   1.030   6.013   6.627
 3128SOL    MW412833   0.993   5.952   6.577
 3129SOL     OW12834   0.465   6.056   6.376
 3129SOL    HW212835   0.536   6.004   6.339
 3129SOL    HW312836   0.451   6.021   6.463
 3129SOL    MW412837   0.473   6.045   6.383
 3130SOL     OW12838   0.781   7.149   6.452
 3130SOL    HW212839   0.709   7.086   6.465
 3130SOL    HW312840   0.742   7.234   6.470
 3130SOL    MW412841   0.765   7.152   6.455
 3131SOL     OW12842   1.101   5.997   6.100
 3131SOL    HW212843   1.123   5.934   6.032
 3131SOL    HW312844   1.006   5.989   6.111
 3131SOL    MW412845   1.091   5.988   6.092
 3132SOL     OW12846   0.186   5.687   6.032
 3132SOL    HW212847   0.257   5.708   5.971
 3132SOL    HW312848   0.140   5.615   5.990
 3132SOL    MW412849   0.190   5.681   6.018
 3133SOL     OW12850   1.755   7.061   6.132
 3133SOL    HW212851   1.725   6.994   6.193
 3133SOL    HW312852   1.849   7.067   6.146
 3133SOL    MW412853   1.763   7.053   6.142
 3134SOL     OW12854   1.311   6.738   6.062
 3134SOL    HW212855   1.283   6.824   6.095
 3134SOL    HW312856   1.339   6.754   5.972
 3134SOL    MW412857   1.311   6.752   6.054
 3135SOL     OW12858   0.973   5.658   6.115
 3135SOL    HW212859   1.010   5.717   6.180
 3135SOL    HW312860   0.950   5.714   6.041
 3135SOL    MW412861   0.974   5.673   6.114
 3136SOL     OW12862   1.826   6.540   6.537
 3136SOL    HW212863   1.817   6.572   6.448
 3136SOL    HW312864   1.779   6.456   6.537
 3136SOL    MW412865   1.819   6.533   6.527
 3137SOL     OW12866   1.738   6.471   6.238
 3137SOL    HW212867   1.832   6.460   6.226
 3137SOL    HW312868   1.714   6.543   6.179
 3137SOL    MW412869   1.748   6.479   6.229
 3138SOL     OW12870   0.394   6.349   6.011
 3138SOL    HW212871   0.394   6.444   5.996
 3138SOL    HW312872   0.471   6.333   6.065
 3138SOL    MW412873   0.404   6.360   6.016
 3139SOL     OW12874   0.153   6.080   6.300
 3139SOL    HW212875   0.215   6.087   6.373
 3139SOL    HW312876   0.153   5.987   6.277
 3139SOL    MW412877   0.161   6.069   6.307
 3140SOL     OW12878   1.700   7.420   5.832
 3140SOL    HW212879   1.767   7.453   5.772
 3140SOL    HW312880   1.657   7.499   5.866
 3140SOL    MW412881   1.702   7.435   5.828
 3141SOL     OW12882   0.835   6.341   6.784
 3141SOL    HW212883   0.793   6.259   6.760
 3141SOL    HW312884   0.836   6.340   6.880
 3141SOL    MW412885   0.828   6.330   6.793
 3142SOL     OW12886   0.022   6.652   5.758
 3142SOL    HW212887  -0.009   6.717   5.821
 3142SOL    HW312888  -0.029   6.574   5.777
 3142SOL    MW412889   0.012   6.649   5.768
 3143SOL     OW12890   1.434   5.664   6.506
 3143SOL    HW212891   1.522   5.673   6.543
 3143SOL    HW312892   1.444   5.605   6.432
 3143SOL    MW412893   1.448   5.658   6.500
 3144SOL     OW12894   1.466   6.403   6.350
 3144SOL    HW212895   1.546   6.418   6.299
 3144SOL    HW312896   1.459   6.308   6.356
 3144SOL    MW412897   1.475   6.392   6.345
 3145SOL     OW12898   0.606   7.452   5.700
 3145SOL    HW212899   0.511   7.452   5.692
 3145SOL    HW312900   0.622   7.398   5.778
 3145SOL    MW412901   0.596   7.446   5.709
 3146SOL     OW12902   1.451   6.272   5.615
 3146SOL    HW212903   1.379   6.248   5.557
 3146SOL    HW312904   1.517   6.309   5.557
 3146SOL    MW412905   1.450   6.274   5.600
 3147SOL     OW12906   0.585   7.004   6.296
 3147SOL    HW212907   0.650   6.937   6.317
 3147SOL    HW312908   0.637   7.081   6.273
 3147SOL    MW412909   0.600   7.006   6.295
 3148SOL     OW12910   0.846   6.169   6.426
 3148SOL    HW212911   0.786   6.187   6.498
 3148SOL    HW312912   0.880   6.081   6.445
 3148SOL    MW412913   0.842   6.159   6.439
 3149SOL     OW12914   1.071   6.752   6.445
 3149SOL    HW212915   1.163   6.733   6.463
 3149SOL    HW312916   1.044   6.682   6.385
 3149SOL    MW412917   1.079   6.740   6.439
 3150SOL     OW12918   0.864   6.572   5.800
 3150SOL    HW212919   0.850   6.484   5.765
 3150SOL    HW312920   0.815   6.629   5.741
 3150SOL    MW412921   0.856   6.567   5.788
 3151SOL     OW12922   1.345   6.990   6.541
 3151SOL    HW212923   1.318   7.074   6.506
 3151SOL    HW312924   1.305   6.985   6.628
 3151SOL    MW412925   1.338   6.999   6.547
 3152SOL     OW12926   0.277   6.296   6.579
 3152SOL    HW212927   0.227   6.295   6.660
 3152SOL    HW312928   0.297   6.388   6.563
 3152SOL    MW412929   0.273   6.308   6.587
 3153SOL     OW12930   1.583   5.778   5.902
 3153SOL    HW212931   1.576   5.782   5.997
 3153SOL    HW312932   1.595   5.869   5.875
 3153SOL    MW412933   1.584   5.791   5.910
 3154SOL     OW12934   0.872   6.341   6.016
 3154SOL    HW212935   0.852   6.327   5.923
 3154SOL    HW312936   0.965   6.320   6.023
 3154SOL    MW412937   0.882   6.336   6.005
 3155SOL     OW12938   0.855   7.299   6.054
 3155SOL    HW212939   0.913   7.370   6.081
 3155SOL    HW312940   0.878   7.227   6.112
 3155SOL    MW412941   0.866   7.299   6.065
 3156SOL     OW12942   1.650   5.761   6.644
 3156SOL    HW212943   1.695   5.679   6.663
 3156SOL    HW312944   1.670   5.817   6.720
 3156SOL    MW412945   1.660   5.757   6.656
 3157SOL     OW12946   0.098   5.604   6.743
 3157SOL    HW212947   0.089   5.605   6.648
 3157SOL    HW312948   0.192   5.616   6.758
 3157SOL    MW412949   0.110   5.607   6.734
 3158SOL     OW12950   1.735   6.797   6.363
 3158SOL    HW212951   1.714   6.743   6.286
 3158SOL    HW312952   1.831   6.795   6.367
 3158SOL    MW412953   1.744   6.790   6.352
 3159SOL     OW12954   0.311   5.731   5.789
 3159SOL    HW212955   0.240   5.786   5.757
 3159SOL    HW312956   0.353   5.697   5.710
 3159SOL    MW412957   0.307   5.733   5.775
 3160SOL     OW12958   1.435   6.228   6.625
 3160SOL    HW212959   1.358   6.274   6.591
 3160SOL    HW312960   1.492   6.297   6.659
 3160SOL    MW412961   1.432   6.243   6.625
 3161SOL     OW12962   0.067   5.830   5.638
 3161SOL    HW212963   0.034   5.909   5.682
 3161SOL    HW312964   0.122   5.863   5.567
 3161SOL    MW412965   0.070   5.844   5.635
 3162SOL     OW12966   0.101   7.087   5.827
 3162SOL    HW212967   0.118   7.171   5.869
 3162SOL    HW312968   0.136   7.096   5.739
 3162SOL    MW412969   0.106   7.100   5.821
 3163SOL     OW12970   1.373   7.176   6.044
 3163SOL    HW212971   1.436   7.166   5.973
 3163SOL    HW312972   1.290   7.196   5.999
 3163SOL    MW412973   1.370   7.177   6.029
 3164SOL     OW12974   3.470   0.771   1.252
 3164SOL    HW212975   3.425   0.838   1.303
 3164SOL    HW312976   3.558   0.807   1.238
 3164SOL    MW412977   3.476   0.784   1.256
 3165SOL     OW12978   2.398   1.022   0.486
 3165SOL    HW212979   2.488   0.997   0.470
 3165SOL    HW312980   2.394   1.115   0.463
 3165SOL    MW412981   2.410   1.031   0.481
 3166SOL     OW12982   3.514   1.725   0.628
 3166SOL    HW212983   3.526   1.671   0.706
 3166SOL    HW312984   3.551   1.673   0.557
 3166SOL    MW412985   3.520   1.710   0.629
 3167SOL     OW12986   2.893   1.610   1.629
 3167SOL    HW212987   2.934   1.646   1.550
 3167SOL    HW312988   2.928   1.521   1.636
 3167SOL    MW412989   2.904   1.603   1.620
 3168SOL     OW12990   3.450   1.165   1.233
 3168SOL    HW212991   3.371   1.130   1.191
 3168SOL    HW312992   3.477   1.237   1.177
 3168SOL    MW412993   3.443   1.170   1.220
 3169SOL     OW12994   2.682   0.478   0.499
 3169SOL    HW212995   2.657   0.566   0.527
 3169SOL    HW312996   2.679   0.481   0.403
 3169SOL    MW412997   2.678   0.490   0.491
 3170SOL     OW12998   2.124   0.506   0.427
 3170SOL    HW212999   2.156   0.594   0.409
 3170SOL    HW313000   2.112   0.504   0.522
 3170SOL    MW413001   2.127   0.518   0.439
 3171SOL     OW13002   2.202   0.919   1.328
 3171SOL    HW213003   2.265   0.866   1.279
 3171SOL    HW313004   2.183   0.993   1.271
 3171SOL    MW413005   2.208   0.921   1.315
 3172SOL     OW13006   2.523   0.261   0.514
 3172SOL    HW213007   2.581   0.337   0.516
 3172SOL    HW313008   2.458   0.282   0.447
 3172SOL    MW413009   2.522   0.273   0.505
 3173SOL     OW13010   2.610   1.188   0.689
 3173SOL    HW213011   2.690   1.191   0.741
 3173SOL    HW313012   2.638   1.155   0.603
 3173SOL    MW413013   2.624   1.184   0.684
 3174SOL     OW13014   2.635   1.529   1.592
 3174SOL    HW213015   2.719   1.555   1.631
 3174SOL    HW313016   2.659   1.473   1.518
 3174SOL    MW413017   2.649   1.525   1.587
 3175SOL     OW13018   2.387   0.692   0.680
 3175SOL    HW213019   2.372   0.612   0.731
 3175SOL    HW313020   2.469   0.727   0.714
 3175SOL    MW413021   2.395   0.684   0.692
 3176SOL     OW13022   2.724   1.378   1.365
 3176SOL    HW213023   2.688   1.444   1.305
 3176SOL    HW313024   2.652   1.316   1.378
 3176SOL    MW413025   2.710   1.378   1.359
 3177SOL     OW13026   2.529   0.518   1.057
 3177SOL    HW213027   2.435   0.514   1.075
 3177SOL    HW313028   2.559   0.427   1.066
 3177SOL    MW413029   2.520   0.506   1.060
 3178SOL     OW13030   2.275   0.932   0.961
 3178SOL    HW213031   2.230   0.939   0.877
 3178SOL    HW313032   2.255   1.015   1.005
 3178SOL    MW413033   2.267   0.944   0.955
 3179SOL     OW13034   1.972   1.778   0.836
 3179SOL    HW213035   2.061   1.770   0.871
 3179SOL    HW313036   1.936   1.690   0.841
 3179SOL    MW413037   1.979   1.765   0.841
 3180SOL     OW13038   2.236   1.305   0.871
 3180SOL    HW213039   2.212   1.358   0.947
 3180SOL    HW313040   2.292   1.363   0.819
 3180SOL    MW413041   2.240   1.320   0.874
 3181SOL     OW13042   2.798   0.949   0.681
 3181SOL    HW213043   2.712   0.936   0.721
 3181SOL    HW313044   2.851   0.876   0.713
 3181SOL    MW413045   2.794   0.938   0.690
 3182SOL     OW13046   2.206   1.601   1.466
 3182SOL    HW213047   2.114   1.577   1.451
 3182SOL    HW313048   2.250   1.518   1.483
 3182SOL    MW413049   2.200   1.586   1.465
 3183SOL     OW13050   2.789   1.311   0.398
 3183SOL    HW213051   2.766   1.373   0.466
 3183SOL    HW313052   2.746   1.229   0.424
 3183SOL    MW413053   2.781   1.307   0.409
 3184SOL     OW13054   3.662   0.312   0.854
 3184SOL    HW213055   3.599   0.292   0.923
 3184SOL    HW313056   3.652   0.241   0.791
 3184SOL    MW413057   3.652   0.299   0.855
 3185SOL     OW13058   2.286   0.284   0.366
 3185SOL    HW213059   2.260   0.246   0.282
 3185SOL    HW313060   2.223   0.354   0.382
 3185SOL    MW413061   2.275   0.287   0.357
 3186SOL     OW13062   2.121   1.245   0.403
 3186SOL    HW213063   2.069   1.313   0.359
 3186SOL    HW313064   2.118   1.171   0.343
 3186SOL    MW413065   2.113   1.244   0.390
 3187SOL     OW13066   3.463   1.084   0.506
 3187SOL    HW213067   3.373   1.084   0.541
 3187SOL    HW313068   3.456   1.130   0.423
 3187SOL    MW413069   3.450   1.090   0.500
 3188SOL     OW13070   3.263   0.719   1.578
 3188SOL    HW213071   3.332   0.657   1.555
 3188SOL    HW313072   3.188   0.693   1.525
 3188SOL    MW413073   3.263   0.706   1.569
 3189SOL     OW13074   2.004   1.599   1.130
 3189SOL    HW213075   1.987   1.545   1.207
 3189SOL    HW313076   1.992   1.689   1.160
 3189SOL    MW413077   2.001   1.603   1.144
 3190SOL     OW13078   2.999   1.106   1.570
 3190SOL    HW213079   2.984   1.199   1.555
 3190SOL    HW313080   3.094   1.096   1.570
 3190SOL    MW413081   3.008   1.116   1.567
 3191SOL     OW13082   2.795   0.530   1.771
 3191SOL    HW213083   2.885   0.531   1.738
 3191SOL    HW313084   2.754   0.455   1.729
 3191SOL    MW413085   2.801   0.520   1.762
 3192SOL     OW13086   3.370   1.062   0.898
 3192SOL    HW213087   3.373   0.996   0.829
 3192SOL    HW313088   3.455   1.105   0.894
 3192SOL    MW413089   3.382   1.058   0.889
 3193SOL     OW13090   2.990   0.665   0.467
 3193SOL    HW213091   3.016   0.689   0.378
 3193SOL    HW313092   2.972   0.572   0.463
 3193SOL    MW413093   2.992   0.657   0.454
 3194SOL     OW13094   2.575   0.334   1.721
 3194SOL    HW213095   2.585   0.260   1.661
 3194SOL    HW313096   2.611   0.303   1.804
 3194SOL    MW413097   2.581   0.320   1.723
 3195SOL     OW13098   2.311   1.701   0.636
 3195SOL    HW213099   2.343   1.789   0.614
 3195SOL    HW313100   2.264   1.673   0.558
 3195SOL    MW413101   2.310   1.709   0.623
 3196SOL     OW13102   3.695   0.063   0.685
 3196SOL    HW213103   3.749   0.014   0.747
 3196SOL    HW313104   3.638  -0.003   0.646
 3196SOL    MW413105   3.695   0.047   0.687
 3197SOL     OW13106   2.027   1.761   0.213
 3197SOL    HW213107   2.056   1.851   0.205
 3197SOL    HW313108   1.977   1.744   0.134
 3197SOL    MW413109   2.025   1.769   0.202
 3198SOL     OW13110   2.814   0.016   1.098
 3198SOL    HW213111   2.773   0.094   1.060
 3198SOL    HW313112   2.908   0.034   1.093
 3198SOL    MW413113   2.820   0.028   1.093
 3199SOL     OW13114   2.760   0.987   1.593
 3199SOL    HW213115   2.737   0.967   1.683
 3199SOL    HW313116   2.845   1.031   1.598
 3199SOL    MW413117   2.767   0.990   1.605
 3200SOL     OW13118   2.840   0.124   1.353
 3200SOL    HW213119   2.846   0.086   1.266
 3200SOL    HW313120   2.829   0.218   1.338
 3200SOL    MW413121   2.841   0.132   1.341
 3201SOL     OW13122   2.929   0.613   1.187
 3201SOL    HW213123   3.004   0.642   1.134
 3201SOL    HW313124   2.861   0.678   1.171
 3201SOL    MW413125   2.930   0.625   1.177
 3202SOL     OW13126   3.479   0.581   1.464
 3202SOL    HW213127   3.460   0.490   1.443
 3202SOL    HW313128   3.457   0.630   1.385
 3202SOL    MW413129   3.474   0.574   1.451
 3203SOL     OW13130   3.621   1.675   1.368
 3203SOL    HW213131   3.549   1.637   1.419
 3203SOL    HW313132   3.638   1.760   1.409
 3203SOL    MW413133   3.615   1.680   1.380
 3204SOL     OW13134   2.926   0.319   1.570
 3204SOL    HW213135   2.892   0.358   1.489
 3204SOL    HW313136   2.904   0.227   1.563
 3204SOL    MW413137   2.919   0.312   1.560
 3205SOL     OW13138   3.335   1.133   1.646
 3205SOL    HW213139   3.417   1.174   1.676
 3205SOL    HW313140   3.298   1.095   1.726
 3205SOL    MW413141   3.341   1.134   1.661
 3206SOL     OW13142   3.630   0.506   0.630
 3206SOL    HW213143   3.719   0.475   0.647
 3206SOL    HW313144   3.573   0.446   0.678
 3206SOL    MW413145   3.633   0.494   0.639
 3207SOL     OW13146   2.056   0.220   0.659
 3207SOL    HW213147   2.047   0.160   0.585
 3207SOL    HW313148   1.989   0.191   0.722
 3207SOL    MW413149   2.046   0.207   0.657
 3208SOL     OW13150   2.999   1.313   0.220
 3208SOL    HW213151   2.949   1.315   0.302
 3208SOL    HW313152   2.933   1.331   0.152
 3208SOL    MW413153   2.985   1.315   0.222
 3209SOL     OW13154   2.003   0.393   1.022
 3209SOL    HW213155   1.975   0.484   1.031
 3209SOL    HW313156   1.940   0.354   0.961
 3209SOL    MW413157   1.990   0.399   1.016
 3210SOL     OW13158   2.462   1.731   0.328
 3210SOL    HW213159   2.383   1.689   0.361
 3210SOL    HW313160   2.528   1.714   0.395
 3210SOL    MW413161   2.461   1.723   0.341
 3211SOL     OW13162   3.590   1.251   1.725
 3211SOL    HW213163   3.640   1.177   1.757
 3211SOL    HW313164   3.536   1.278   1.800
 3211SOL    MW413165   3.590   1.245   1.738
 3212SOL     OW13166   2.598   1.146   0.035
 3212SOL    HW213167   2.520   1.092   0.022
 3212SOL    HW313168   2.569   1.219   0.088
 3212SOL    MW413169   2.584   1.148   0.040
 3213SOL     OW13170   3.724   0.886   1.227
 3213SOL    HW213171   3.740   0.924   1.140
 3213SOL    HW313172   3.758   0.952   1.288
 3213SOL    MW413173   3.731   0.899   1.223
 3214SOL     OW13174   3.516   1.595   0.896
 3214SOL    HW213175   3.545   1.662   0.957
 3214SOL    HW313176   3.497   1.519   0.951
 3214SOL    MW413177   3.518   1.595   0.911
 3215SOL     OW13178   1.987   0.668   1.192
 3215SOL    HW213179   2.049   0.698   1.258
 3215SOL    HW313180   1.921   0.737   1.186
 3215SOL    MW413181   1.986   0.681   1.199
 3216SOL     OW13182   2.082   1.777   1.644
 3216SOL    HW213183   2.056   1.845   1.582
 3216SOL    HW313184   2.130   1.714   1.592
 3216SOL    MW413185   2.084   1.777   1.630
 3217SOL     OW13186   2.134   1.096   1.151
 3217SOL    HW213187   2.187   1.171   1.176
 3217SOL    HW313188   2.053   1.134   1.117
 3217SOL    MW413189   2.130   1.111   1.151
 3218SOL     OW13190   2.674   1.000   1.139
 3218SOL    HW213191   2.702   0.909   1.151
 3218SOL    HW313192   2.603   0.994   1.075
 3218SOL    MW413193   2.667   0.988   1.134
 3219SOL     OW13194   1.989   0.865   0.557
 3219SOL    HW213195   2.080   0.880   0.584
 3219SOL    HW313196   1.992   0.786   0.503
 3219SOL    MW413197   2.001   0.857   0.555
 3220SOL     OW13198   2.225   0.573   1.811
 3220SOL    HW213199   2.172   0.653   1.818
 3220SOL    HW313200   2.295   0.585   1.876
 3220SOL    MW413201   2.227   0.586   1.819
 3221SOL     OW13202   2.611   0.123   1.518
 3221SOL    HW213203   2.588   0.031   1.520
 3221SOL    HW313204   2.697   0.125   1.475
 3221SOL    MW413205   2.618   0.113   1.514
 3222SOL     OW13206   2.295   0.647   1.557
 3222SOL    HW213207   2.375   0.697   1.543
 3222SOL    HW313208   2.286   0.641   1.652
 3222SOL    MW413209   2.304   0.653   1.567
 3223SOL     OW13210   2.616   1.797   0.931
 3223SOL    HW213211   2.705   1.812   0.961
 3223SOL    HW313212   2.611   1.844   0.847
 3223SOL    MW413213   2.626   1.805   0.924
 3224SOL     OW13214   3.272   0.172   1.828
 3224SOL    HW213215   3.328   0.099   1.854
 3224SOL    HW313216   3.242   0.210   1.910
 3224SOL    MW413217   3.276   0.167   1.841
 3225SOL     OW13218   1.997   1.477   0.596
 3225SOL    HW213219   1.969   1.516   0.678
 3225SOL    HW313220   2.017   1.386   0.618
 3225SOL    MW413221   1.995   1.469   0.609
 3226SOL     OW13222   2.830   1.520   0.631
 3226SOL    HW213223   2.913   1.474   0.615
 3226SOL    HW313224   2.820   1.519   0.727
 3226SOL    MW413225   2.840   1.513   0.641
 3227SOL     OW13226   3.662   0.665   0.945
 3227SOL    HW213227   3.751   0.695   0.927
 3227SOL    HW313228   3.642   0.605   0.874
 3227SOL    MW413229   3.671   0.662   0.934
 3228SOL     OW13230   3.513   0.844   1.825
 3228SOL    HW213231   3.568   0.768   1.806
 3228SOL    HW313232   3.515   0.852   1.920
 3228SOL    MW413233   3.521   0.835   1.833
 3229SOL     OW13234   2.808   0.406   1.344
 3229SOL    HW213235   2.727   0.447   1.372
 3229SOL    HW313236   2.855   0.474   1.296
 3229SOL    MW413237   2.803   0.421   1.342
 3230SOL     OW13238   3.068   0.744   0.967
 3230SOL    HW213239   3.081   0.838   0.977
 3230SOL    HW313240   3.029   0.734   0.881
 3230SOL    MW413241   3.064   0.755   0.957
 3231SOL     OW13242   2.520   0.939   0.771
 3231SOL    HW213243   2.431   0.930   0.804
 3231SOL    HW313244   2.524   1.029   0.739
 3231SOL    MW413245   2.509   0.950   0.771
 3232SOL     OW13246   3.319   0.522   0.766
 3232SOL    HW213247   3.264   0.443   0.765
 3232SOL    HW313248   3.301   0.563   0.850
 3232SOL    MW413249   3.309   0.517   0.775
 3233SOL     OW13250   2.290   0.209   1.583
 3233SOL    HW213251   2.211   0.227   1.635
 3233SOL    HW313252   2.285   0.271   1.510
 3233SOL    MW413253   2.280   0.219   1.580
 3234SOL     OW13254   2.938   0.726   0.723
 3234SOL    HW213255   2.875   0.658   0.747
 3234SOL    HW313256   2.958   0.707   0.631
 3234SOL    MW413257   2.932   0.713   0.715
 3235SOL     OW13258   2.194   1.621   0.425
 3235SOL    HW213259   2.155   1.668   0.351
 3235SOL    HW313260   2.128   1.556   0.450
 3235SOL    MW413261   2.181   1.619   0.419
 3236SOL     OW13262   2.686   1.030   0.449
 3236SOL    HW213263   2.688   1.004   0.356
 3236SOL    HW313264   2.744   0.967   0.492
 3236SOL    MW413265   2.694   1.019   0.443
 3237SOL     OW13266   3.239   1.590   1.221
 3237SOL    HW213267   3.164   1.636   1.259
 3237SOL    HW313268   3.221   1.497   1.238
 3237SOL    MW413269   3.228   1.584   1.229
 3238SOL     OW13270   3.243   1.798   0.651
 3238SOL    HW213271   3.186   1.751   0.590
 3238SOL    HW313272   3.329   1.759   0.638
 3238SOL    MW413273   3.246   1.789   0.641
 3239SOL     OW13274   3.196   0.274   0.782
 3239SOL    HW213275   3.224   0.206   0.843
 3239SOL    HW313276   3.110   0.245   0.752
 3239SOL    MW413277   3.189   0.261   0.786
 3240SOL     OW13278   2.001   1.208   0.716
 3240SOL    HW213279   2.065   1.240   0.779
 3240SOL    HW313280   2.050   1.144   0.664
 3240SOL    MW413281   2.016   1.204   0.717
 3241SOL     OW13282   2.501   1.284   1.698
 3241SOL    HW213283   2.549   1.367   1.685
 3241SOL    HW313284   2.558   1.232   1.754
 3241SOL    MW413285   2.515   1.288   1.704
 3242SOL     OW13286   2.077   1.526   1.838
 3242SOL    HW213287   2.133   1.450   1.853
 3242SOL    HW313288   2.026   1.504   1.760
 3242SOL    MW413289   2.077   1.513   1.829
 3243SOL     OW13290   2.962   1.363   1.447
 3243SOL    HW213291   2.873   1.369   1.415
 3243SOL    HW313292   3.006   1.442   1.415
 3243SOL    MW413293   2.957   1.373   1.439
 3244SOL     OW13294   2.255   0.031   1.789
 3244SOL    HW213295   2.183  -0.004   1.737
 3244SOL    HW313296   2.313   0.072   1.724
 3244SOL    MW413297   2.253   0.032   1.774
 3245SOL     OW13298   2.279   1.521   1.088
 3245SOL    HW213299   2.324   1.583   1.145
 3245SOL    HW313300   2.186   1.540   1.101
 3245SOL    MW413301   2.272   1.531   1.095
 3246SOL     OW13302   3.719   1.050   1.442
 3246SOL    HW213303   3.634   1.063   1.401
 3246SOL    HW313304   3.699   1.014   1.529
 3246SOL    MW413305   3.706   1.046   1.447
 3247SOL     OW13306   2.701   1.589   1.196
 3247SOL    HW213307   2.725   1.578   1.105
 3247SOL    HW313308   2.624   1.646   1.194
 3247SOL    MW413309   2.693   1.594   1.185
 3248SOL     OW13310   2.343   0.972   0.051
 3248SOL    HW213311   2.266   0.985   0.107
 3248SOL    HW313312   2.307   0.936  -0.030
 3248SOL    MW413313   2.329   0.968   0.048
 3249SOL     OW13314   2.496   1.294   0.986
 3249SOL    HW213315   2.489   1.273   1.080
 3249SOL    HW313316   2.414   1.262   0.949
 3249SOL    MW413317   2.484   1.288   0.993
 3250SOL     OW13318   3.360   0.304   1.388
 3250SOL    HW213319   3.307   0.306   1.468
 3250SOL    HW313320   3.345   0.217   1.351
 3250SOL    MW413321   3.352   0.294   1.393
 3251SOL     OW13322   3.696   0.228   1.261
 3251SOL    HW213323   3.677   0.295   1.196
 3251SOL    HW313324   3.753   0.166   1.216
 3251SOL    MW413325   3.700   0.229   1.247
 3252SOL     OW13326   1.942   1.386   1.649
 3252SOL    HW213327   1.986   1.319   1.595
 3252SOL    HW313328   1.857   1.348   1.669
 3252SOL    MW413329   1.937   1.372   1.645
 3253SOL     OW13330   2.625   0.061   0.701
 3253SOL    HW213331   2.554   0.122   0.683
 3253SOL    HW313332   2.676   0.058   0.620
 3253SOL    MW413333   2.621   0.067   0.688
 3254SOL     OW13334   2.383   1.301   0.450
 3254SOL    HW213335   2.376   1.333   0.540
 3254SOL    HW313336   2.293   1.285   0.422
 3254SOL    MW413337   2.371   1.303   0.457
 3255SOL     OW13338   2.978   1.694   1.359
 3255SOL    HW213339   2.898   1.679   1.309
 3255SOL    HW313340   2.985   1.789   1.366
 3255SOL    MW413341   2.969   1.705   1.353
 3256SOL     OW13342   3.092   1.659   0.849
 3256SOL    HW213343   3.139   1.732   0.808
 3256SOL    HW313344   3.013   1.698   0.885
 3256SOL    MW413345   3.087   1.674   0.848
 3257SOL     OW13346   3.500   1.754   1.124
 3257SOL    HW213347   3.543   1.724   1.204
 3257SOL    HW313348   3.419   1.702   1.121
 3257SOL    MW413349   3.495   1.743   1.134
 3258SOL     OW13350   2.585   0.718   1.831
 3258SOL    HW213351   2.655   0.660   1.803
 3258SOL    HW313352   2.528   0.663   1.886
 3258SOL    MW413353   2.587   0.705   1.835
 3259SOL     OW13354   3.372   0.930   1.464
 3259SOL    HW213355   3.377   0.983   1.544
 3259SOL    HW313356   3.334   0.847   1.492
 3259SOL    MW413357   3.368   0.925   1.479
 3260SOL     OW13358   3.012   0.065   1.710
 3260SOL    HW213359   3.007  -0.028   1.691
 3260SOL    HW313360   3.095   0.076   1.756
 3260SOL    MW413361   3.020   0.054   1.714
 3261SOL     OW13362   2.386   0.585   0.164
 3261SOL    HW213363   2.352   0.641   0.234
 3261SOL    HW313364   2.457   0.535   0.204
 3261SOL    MW413365   2.392   0.586   0.178
 3262SOL     OW13366   3.482   1.336   0.986
 3262SOL    HW213367   3.517   1.318   0.899
 3262SOL    HW313368   3.387   1.337   0.973
 3262SOL    MW413369   3.474   1.333   0.973
 3263SOL     OW13370   2.911   0.984   1.355
 3263SOL    HW213371   2.954   1.019   1.433
 3263SOL    HW313372   2.894   1.061   1.301
 3263SOL    MW413373   2.914   0.999   1.358
 3264SOL     OW13374   2.302   0.126   0.657
 3264SOL    HW213375   2.352   0.169   0.588
 3264SOL    HW313376   2.217   0.170   0.657
 3264SOL    MW413377   2.299   0.139   0.648
 3265SOL     OW13378   2.061   1.188   1.517
 3265SOL    HW213379   2.089   1.141   1.595
 3265SOL    HW313380   1.982   1.143   1.488
 3265SOL    MW413381   2.054   1.177   1.523
 3266SOL     OW13382   2.569   0.515   1.484
 3266SOL    HW213383   2.541   0.603   1.508
 3266SOL    HW313384   2.538   0.459   1.555
 3266SOL    MW413385   2.561   0.518   1.496
 3267SOL     OW13386   3.111   0.733   0.203
 3267SOL    HW213387   3.158   0.751   0.122
 3267SOL    HW313388   3.077   0.817   0.231
 3267SOL    MW413389   3.113   0.747   0.196
 3268SOL     OW13390   2.224   0.911   0.697
 3268SOL    HW213391   2.282   0.967   0.645
 3268SOL    HW313392   2.268   0.826   0.699
 3268SOL    MW413393   2.237   0.908   0.690
 3269SOL     OW13394   3.364   0.263   0.534
 3269SOL    HW213395   3.286   0.213   0.559
 3269SOL    HW313396   3.335   0.354   0.534
 3269SOL    MW413397   3.350   0.267   0.537
 3270SOL     OW13398   2.950   0.225   0.693
 3270SOL    HW213399   2.970   0.300   0.637
 3270SOL    HW313400   2.930   0.264   0.778
 3270SOL    MW413401   2.951   0.241   0.697
 3271SOL     OW13402   3.710   0.998   1.712
 3271SOL    HW213403   3.623   0.978   1.748
 3271SOL    HW313404   3.764   0.924   1.737
 3271SOL    MW413405   3.705   0.987   1.720
 3272SOL     OW13406   1.931   1.511   0.869
 3272SOL    HW213407   1.963   1.515   0.960
 3272SOL    HW313408   1.836   1.519   0.877
 3272SOL    MW413409   1.923   1.514   0.882
 3273SOL     OW13410   1.886   0.637   0.416
 3273SOL    HW213411   1.826   0.609   0.486
 3273SOL    HW313412   1.960   0.577   0.422
 3273SOL    MW413413   1.888   0.626   0.425
 3274SOL     OW13414   3.454   1.849   1.850
 3274SOL    HW213415   3.499   1.773   1.815
 3274SOL    HW313416   3.492   1.862   1.937
 3274SOL    MW413417   3.464   1.842   1.856
 3275SOL     OW13418   3.054   1.368   0.576
 3275SOL    HW213419   3.077   1.319   0.654
 3275SOL    HW313420   3.135   1.410   0.548
 3275SOL    MW413421   3.067   1.368   0.583
 3276SOL     OW13422   2.312   0.376   1.305
 3276SOL    HW213423   2.345   0.457   1.345
 3276SOL    HW313424   2.285   0.402   1.217
 3276SOL    MW413425   2.311   0.390   1.299
 3277SOL     OW13426   2.266   0.343   1.041
 3277SOL    HW213427   2.296   0.257   1.012
 3277SOL    HW313428   2.171   0.336   1.044
 3277SOL    MW413429   2.258   0.332   1.039
 3278SOL     OW13430   3.095   0.552   1.732
 3278SOL    HW213431   3.147   0.487   1.685
 3278SOL    HW313432   3.053   0.603   1.662
 3278SOL    MW413433   3.096   0.549   1.715
 3279SOL     OW13434   3.194   0.347   1.593
 3279SOL    HW213435   3.101   0.331   1.580
 3279SOL    HW313436   3.220   0.285   1.661
 3279SOL    MW413437   3.184   0.337   1.600
 3280SOL     OW13438   2.409   0.121   0.932
 3280SOL    HW213439   2.419   0.030   0.958
 3280SOL    HW313440   2.365   0.117   0.847
 3280SOL    MW413441   2.405   0.109   0.924
 3281SOL     OW13442   2.503   1.736   1.478
 3281SOL    HW213443   2.420   1.721   1.523
 3281SOL    HW313444   2.562   1.669   1.513
 3281SOL    MW413445   2.501   1.726   1.488
 3282SOL     OW13446   3.560   0.443   1.103
 3282SOL    HW213447   3.493   0.476   1.163
 3282SOL    HW313448   3.603   0.521   1.069
 3282SOL    MW413449   3.558   0.458   1.107
 3283SOL     OW13450   3.738   1.163   1.073
 3283SOL    HW213451   3.731   1.103   0.998
 3283SOL    HW313452   3.664   1.223   1.062
 3283SOL    MW413453   3.728   1.163   1.062
 3284SOL     OW13454   3.120   1.025   0.991
 3284SOL    HW213455   3.134   0.997   1.082
 3284SOL    HW313456   3.206   1.056   0.963
 3284SOL    MW413457   3.133   1.026   1.000
 3285SOL     OW13458   3.203   0.520   1.270
 3285SOL    HW213459   3.224   0.521   1.177
 3285SOL    HW313460   3.248   0.442   1.303
 3285SOL    MW413461   3.210   0.510   1.262
 3286SOL     OW13462   3.696   0.651   1.812
 3286SOL    HW213463   3.733   0.596   1.881
 3286SOL    HW313464   3.721   0.608   1.730
 3286SOL    MW413465   3.703   0.639   1.811
 3287SOL     OW13466   3.243   0.949   1.863
 3287SOL    HW213467   3.309   0.897   1.817
 3287SOL    HW313468   3.263   0.936   1.956
 3287SOL    MW413469   3.254   0.940   1.870
 3288SOL     OW13470   3.194   0.035   0.212
 3288SOL    HW213471   3.268   0.079   0.255
 3288SOL    HW313472   3.118   0.089   0.234
 3288SOL    MW413473   3.194   0.047   0.220
 3289SOL     OW13474   3.254   0.810   0.490
 3289SOL    HW213475   3.169   0.780   0.460
 3289SOL    HW313476   3.246   0.817   0.585
 3289SOL    MW413477   3.242   0.808   0.499
 3290SOL     OW13478   2.330   1.273   1.221
 3290SOL    HW213479   2.342   1.300   1.312
 3290SOL    HW313480   2.311   1.354   1.174
 3290SOL    MW413481   2.329   1.288   1.226
 3291SOL     OW13482   2.614   0.253   1.044
 3291SOL    HW213483   2.587   0.255   1.135
 3291SOL    HW313484   2.544   0.205   0.999
 3291SOL    MW413485   2.602   0.249   1.051
 3292SOL     OW13486   2.468   1.745   1.206
 3292SOL    HW213487   2.520   1.822   1.183
 3292SOL    HW313488   2.477   1.737   1.301
 3292SOL    MW413489   2.477   1.752   1.217
 3293SOL     OW13490   3.370   1.330   1.438
 3293SOL    HW213491   3.355   1.259   1.501
 3293SOL    HW313492   3.416   1.288   1.366
 3293SOL    MW413493   3.376   1.314   1.438
 3294SOL     OW13494   2.444   1.061   1.555
 3294SOL    HW213495   2.481   1.066   1.467
 3294SOL    HW313496   2.483   1.134   1.602
 3294SOL    MW413497   2.454   1.071   1.550
 3295SOL     OW13498   2.624   1.104   1.367
 3295SOL    HW213499   2.683   1.050   1.420
 3295SOL    HW313500   2.639   1.076   1.277
 3295SOL    MW413501   2.634   1.093   1.363
 3296SOL     OW13502   3.435   1.593   1.539
 3296SOL    HW213503   3.477   1.578   1.624
 3296SOL    HW313504   3.426   1.506   1.501
 3296SOL    MW413505   3.439   1.581   1.546
 3297SOL     OW13506   3.095   0.072   1.130
 3297SOL    HW213507   3.150   0.081   1.052
 3297SOL    HW313508   3.150   0.106   1.201
 3297SOL    MW413509   3.109   0.077   1.129
 3298SOL     OW13510   2.102   0.985   0.314
 3298SOL    HW213511   2.039   1.001   0.243
 3298SOL    HW313512   2.049   0.948   0.385
 3298SOL    MW413513   2.087   0.982   0.314
 3299SOL     OW13514   2.458   1.339   0.173
 3299SOL    HW213515   2.473   1.315   0.265
 3299SOL    HW313516   2.366   1.317   0.157
 3299SOL    MW413517   2.448   1.332   0.183
 3300SOL     OW13518   2.256   1.728   0.894
 3300SOL    HW213519   2.260   1.639   0.929
 3300SOL    HW313520   2.282   1.719   0.803
 3300SOL    MW413521   2.259   1.716   0.886
 3301SOL     OW13522   2.873   1.206   1.137
 3301SOL    HW213523   2.805   1.140   1.153
 3301SOL    HW313524   2.891   1.200   1.044
 3301SOL    MW413525   2.866   1.197   1.128
 3302SOL     OW13526   1.962   1.481   1.388
 3302SOL    HW213527   1.952   1.439   1.474
 3302SOL    HW313528   1.883   1.534   1.378
 3302SOL    MW413529   1.951   1.482   1.399
 3303SOL     OW13530   2.866   0.345   0.958
 3303SOL    HW213531   2.796   0.297   1.003
 3303SOL    HW313532   2.898   0.408   1.022
 3303SOL    MW413533   2.861   0.347   0.972
 3304SOL     OW13534   2.517   0.781   1.578
 3304SOL    HW213535   2.510   0.876   1.566
 3304SOL    HW313536   2.526   0.770   1.673
 3304SOL    MW413537   2.518   0.793   1.588
 3305SOL     OW13538   2.238   1.296   1.836
 3305SOL    HW213539   2.310   1.298   1.773
 3305SOL    HW313540   2.208   1.205   1.835
 3305SOL    MW413541   2.243   1.285   1.828
 3306SOL     OW13542   3.322   0.059   1.303
 3306SOL    HW213543   3.393   0.005   1.267
 3306SOL    HW313544   3.321   0.038   1.396
 3306SOL    MW413545   3.331   0.050   1.311
 3307SOL     OW13546   3.522   1.589   1.787
 3307SOL    HW213547   3.495   1.586   1.878
 3307SOL    HW313548   3.618   1.593   1.790
 3307SOL    MW413549   3.532   1.589   1.799
 3308SOL     OW13550   2.333   0.451   0.771
 3308SOL    HW213551   2.404   0.399   0.734
 3308SOL    HW313552   2.319   0.416   0.858
 3308SOL    MW413553   2.341   0.440   0.778
 3309SOL     OW13554   1.888   1.786   1.843
 3309SOL    HW213555   1.938   1.764   1.765
 3309SOL    HW313556   1.896   1.881   1.851
 3309SOL    MW413557   1.896   1.795   1.834
 3310SOL     OW13558   2.649   1.544   0.847
 3310SOL    HW213559   2.577   1.481   0.860
 3310SOL    HW313560   2.610   1.629   0.865
 3310SOL    MW413561   2.633   1.547   0.850
 3311SOL     OW13562   2.969   0.392   0.495
 3311SOL    HW213563   2.991   0.329   0.427
 3311SOL    HW313564   2.874   0.384   0.506
 3311SOL    MW413565   2.959   0.383   0.487
 3312SOL     OW13566   2.054   0.082   0.427
 3312SOL    HW213567   2.125   0.103   0.366
 3312SOL    HW313568   2.008   0.010   0.385
 3312SOL    MW413569   2.058   0.076   0.413
 3313SOL     OW13570   1.885   0.549   1.570
 3313SOL    HW213571   1.949   0.615   1.545
 3313SOL    HW313572   1.804   0.576   1.527
 3313SOL    MW413573   1.883   0.561   1.562
 3314SOL     OW13574   3.623   1.456   0.527
 3314SOL    HW213575   3.593   1.389   0.588
 3314SOL    HW313576   3.717   1.462   0.541
 3314SOL    MW413577   3.631   1.448   0.537
 3315SOL     OW13578   3.179   1.133   0.457
 3315SOL    HW213579   3.151   1.219   0.490
 3315SOL    HW313580   3.207   1.149   0.367
 3315SOL    MW413581   3.179   1.147   0.449
 3316SOL     OW13582   2.841   0.053   0.510
 3316SOL    HW213583   2.878   0.112   0.575
 3316SOL    HW313584   2.818   0.109   0.436
 3316SOL    MW413585   2.842   0.068   0.509
 3317SOL     OW13586   3.694   0.935   0.932
 3317SOL    HW213587   3.685   0.967   0.843
 3317SOL    HW313588   3.647   0.851   0.932
 3317SOL    MW413589   3.687   0.928   0.922
 3318SOL     OW13590   2.070   0.775   1.511
 3318SOL    HW213591   2.091   0.844   1.449
 3318SOL    HW313592   2.150   0.722   1.516
 3318SOL    MW413593   2.083   0.776   1.505
 3319SOL     OW13594   3.606   0.866   0.633
 3319SOL    HW213595   3.700   0.855   0.621
 3319SOL    HW313596   3.582   0.938   0.574
 3319SOL    MW413597   3.616   0.874   0.624
 3320SOL     OW13598   2.055   0.790   1.778
 3320SOL    HW213599   1.981   0.734   1.804
 3320SOL    HW313600   2.050   0.793   1.683
 3320SOL    MW413601   2.044   0.783   1.768
 3321SOL     OW13602   2.221   0.077   1.228
 3321SOL    HW213603   2.264   0.161   1.248
 3321SOL    HW313604   2.294   0.015   1.221
 3321SOL    MW413605   2.236   0.080   1.229
 3322SOL     OW13606   2.262   0.744   0.406
 3322SOL    HW213607   2.262   0.839   0.391
 3322SOL    HW313608   2.339   0.728   0.460
 3322SOL    MW413609   2.272   0.755   0.411
 3323SOL     OW13610   3.038   0.603   1.470
 3323SOL    HW213611   3.074   0.576   1.386
 3323SOL    HW313612   2.951   0.637   1.449
 3323SOL    MW413613   3.032   0.604   1.457
 3324SOL     OW13614   2.021   0.475   0.695
 3324SOL    HW213615   2.083   0.482   0.768
 3324SOL    HW313616   2.021   0.382   0.672
 3324SOL    MW413617   2.029   0.464   0.702
 3325SOL     OW13618   2.703   0.736   1.179
 3325SOL    HW213619   2.661   0.654   1.155
 3325SOL    HW313620   2.704   0.735   1.275
 3325SOL    MW413621   2.696   0.725   1.188
 3326SOL     OW13622   3.374   1.869   1.578
 3326SOL    HW213623   3.377   1.775   1.561
 3326SOL    HW313624   3.397   1.877   1.670
 3326SOL    MW413625   3.377   1.857   1.588
 3327SOL     OW13626   2.507   0.206   1.284
 3327SOL    HW213627   2.438   0.269   1.305
 3327SOL    HW313628   2.534   0.170   1.369
 3327SOL    MW413629   2.501   0.209   1.297
 3328SOL     OW13630   1.890   1.047   0.153
 3328SOL    HW213631   1.859   1.112   0.216
 3328SOL    HW313632   1.839   0.969   0.172
 3328SOL    MW413633   1.880   1.044   0.163
 3329SOL     OW13634   3.302   0.059   0.901
 3329SOL    HW213635   3.390   0.068   0.938
 3329SOL    HW313636   3.312   0.000   0.827
 3329SOL    MW413637   3.316   0.053   0.895
 3330SOL     OW13638   3.334   0.798   0.745
 3330SOL    HW213639   3.414   0.813   0.694
 3330SOL    HW313640   3.327   0.703   0.751
 3330SOL    MW413641   3.343   0.787   0.740
 3331SOL     OW13642   2.474   1.847   0.095
 3331SOL    HW213643   2.379   1.847   0.087
 3331SOL    HW313644   2.490   1.793   0.173
 3331SOL    MW413645   2.464   1.841   0.104
 3332SOL     OW13646   2.784   0.724   1.442
 3332SOL    HW213647   2.853   0.791   1.439
 3332SOL    HW313648   2.717   0.762   1.498
 3332SOL    MW413649   2.785   0.737   1.449
 3333SOL     OW13650   2.202   1.024   1.690
 3333SOL    HW213651   2.156   0.940   1.692
 3333SOL    HW313652   2.259   1.018   1.614
 3333SOL    MW413653   2.204   1.012   1.682
 3334SOL     OW13654   3.319   0.667   0.011
 3334SOL    HW213655   3.247   0.643  -0.047
 3334SOL    HW313656   3.385   0.704  -0.047
 3334SOL    MW413657   3.318   0.669  -0.004
 3335SOL     OW13658   2.453   1.399   0.691
 3335SOL    HW213659   2.518   1.332   0.712
 3335SOL    HW313660   2.505   1.476   0.668
 3335SOL    MW413661   2.468   1.401   0.690
 3336SOL     OW13662   2.714   0.564   0.821
 3336SOL    HW213663   2.654   0.582   0.893
 3336SOL    HW313664   2.748   0.476   0.840
 3336SOL    MW413665   2.710   0.554   0.834
 3337SOL     OW13666   3.655   0.063   1.490
 3337SOL    HW213667   3.576   0.109   1.518
 3337SOL    HW313668   3.690   0.117   1.419
 3337SOL    MW413669   3.649   0.076   1.484
 3338SOL     OW13670   2.939   1.147   0.840
 3338SOL    HW213671   3.031   1.128   0.858
 3338SOL    HW313672   2.912   1.077   0.780
 3338SOL    MW413673   2.947   1.135   0.834
 3339SOL     OW13674   2.732   0.967   0.195
 3339SOL    HW213675   2.718   0.879   0.160
 3339SOL    HW313676   2.683   1.024   0.136
 3339SOL    MW413677   2.724   0.962   0.183
 3340SOL     OW13678   3.213   1.385   0.936
 3340SOL    HW213679   3.186   1.469   0.901
 3340SOL    HW313680   3.173   1.380   1.023
 3340SOL    MW413681   3.206   1.394   0.942
 3341SOL     OW13682   3.132   1.333   1.204
 3341SOL    HW213683   3.143   1.300   1.293
 3341SOL    HW313684   3.051   1.292   1.173
 3341SOL    MW413685   3.122   1.325   1.210
 3342SOL     OW13686   2.145   0.691   0.974
 3342SOL    HW213687   2.095   0.690   1.055
 3342SOL    HW313688   2.165   0.783   0.958
 3342SOL    MW413689   2.141   0.703   0.982
 3343SOL     OW13690   3.212   1.455   1.736
 3343SOL    HW213691   3.212   1.549   1.752
 3343SOL    HW313692   3.257   1.445   1.652
 3343SOL    MW413693   3.218   1.465   1.727
 3344SOL     OW13694   2.740   0.736   0.411
 3344SOL    HW213695   2.720   0.722   0.318
 3344SOL    HW313696   2.833   0.715   0.418
 3344SOL    MW413697   2.750   0.731   0.400
 3345SOL     OW13698   2.067   0.359   1.715
 3345SOL    HW213699   2.024   0.418   1.652
 3345SOL    HW313700   2.135   0.414   1.755
 3345SOL    MW413701   2.071   0.374   1.712
 3346SOL     OW13702   3.179   0.979   1.260
 3346SOL    HW213703   3.242   0.976   1.333
 3346SOL    HW313704   3.095   0.997   1.302
 3346SOL    MW413705   3.175   0.981   1.275
 3347SOL     OW13706   2.723   1.694   0.449
 3347SOL    HW213707   2.781   1.765   0.476
 3347SOL    HW313708   2.746   1.622   0.507
 3347SOL    MW413709   2.734   1.694   0.460
 3348SOL     OW13710   3.518   0.156   1.039
 3348SOL    HW213711   3.563   0.074   1.058
 3348SOL    HW313712   3.538   0.212   1.115
 3348SOL    MW413713   3.528   0.152   1.051
 3349SOL     OW13714   1.966  -0.001   1.138
 3349SOL    HW213715   1.957   0.000   1.043
 3349SOL    HW313716   2.060   0.011   1.153
 3349SOL    MW413717   1.978   0.002   1.129
 3350SOL     OW13718   3.603   1.192   0.758
 3350SOL    HW213719   3.582   1.138   0.681
 3350SOL    HW313720   3.699   1.190   0.762
 3350SOL    MW413721   3.612   1.185   0.747
 3351SOL     OW13722   2.295   1.337   1.501
 3351SOL    HW213723   2.216   1.287   1.524
 3351SOL    HW313724   2.365   1.296   1.551
 3351SOL    MW413725   2.293   1.325   1.511
 3352SOL     OW13726   2.179   0.126   0.184
 3352SOL    HW213727   2.108   0.181   0.152
 3352SOL    HW313728   2.221   0.092   0.105
 3352SOL    MW413729   2.175   0.128   0.170
 3353SOL     OW13730   3.303   0.623   1.020
 3353SOL    HW213731   3.226   0.669   0.986
 3353SOL    HW313732   3.360   0.692   1.054
 3353SOL    MW413733   3.300   0.638   1.020
 3354SOL     OW13734   1.935   0.225   0.033
 3354SOL    HW213735   1.902   0.304   0.077
 3354SOL    HW313736   1.990   0.258  -0.038
 3354SOL    MW413737   1.938   0.239   0.030
 3355SOL     OW13738   1.969   1.482   0.222
 3355SOL    HW213739   1.986   1.566   0.264
 3355SOL    HW313740   2.004   1.491   0.134
 3355SOL    MW413741   1.974   1.495   0.216
 3356SOL     OW13742   3.241   1.571   0.439
 3356SOL    HW213743   3.304   1.561   0.368
 3356SOL    HW313744   3.158   1.591   0.394
 3356SOL    MW413745   3.238   1.572   0.424
 3357SOL     OW13746   3.604   0.839   2.125
 3357SOL    HW213747   3.645   0.781   2.190
 3357SOL    HW313748   3.511   0.831   2.142
 3357SOL    MW413749   3.598   0.831   2.135
 3358SOL     OW13750   3.470   0.771   3.120
 3358SOL    HW213751   3.425   0.838   3.171
 3358SOL    HW313752   3.558   0.807   3.106
 3358SOL    MW413753   3.476   0.784   3.124
 3359SOL     OW13754   2.398   1.022   2.354
 3359SOL    HW213755   2.488   0.997   2.338
 3359SOL    HW313756   2.394   1.115   2.331
 3359SOL    MW413757   2.410   1.031   2.349
 3360SOL     OW13758   3.514   1.725   2.496
 3360SOL    HW213759   3.526   1.671   2.574
 3360SOL    HW313760   3.551   1.673   2.425
 3360SOL    MW413761   3.520   1.710   2.497
 3361SOL     OW13762   2.893   1.610   3.497
 3361SOL    HW213763   2.934   1.646   3.418
 3361SOL    HW313764   2.928   1.521   3.504
 3361SOL    MW413765   2.904   1.603   3.488
 3362SOL     OW13766   3.450   1.165   3.101
 3362SOL    HW213767   3.371   1.130   3.059
 3362SOL    HW313768   3.477   1.237   3.045
 3362SOL    MW413769   3.443   1.170   3.088
 3363SOL     OW13770   2.682   0.478   2.367
 3363SOL    HW213771   2.657   0.566   2.395
 3363SOL    HW313772   2.679   0.481   2.271
 3363SOL    MW413773   2.678   0.490   2.359
 3364SOL     OW13774   2.124   0.506   2.295
 3364SOL    HW213775   2.156   0.594   2.277
 3364SOL    HW313776   2.112   0.504   2.390
 3364SOL    MW413777   2.127   0.518   2.307
 3365SOL     OW13778   2.202   0.919   3.196
 3365SOL    HW213779   2.265   0.866   3.147
 3365SOL    HW313780   2.183   0.993   3.139
 3365SOL    MW413781   2.208   0.921   3.183
 3366SOL     OW13782   2.523   0.261   2.382
 3366SOL    HW213783   2.581   0.337   2.384
 3366SOL    HW313784   2.458   0.282   2.315
 3366SOL    MW413785   2.522   0.273   2.373
 3367SOL     OW13786   2.610   1.188   2.557
 3367SOL    HW213787   2.690   1.191   2.609
 3367SOL    HW313788   2.638   1.155   2.471
 3367SOL    MW413789   2.624   1.184   2.552
 3368SOL     OW13790   2.635   1.529   3.460
 3368SOL    HW213791   2.719   1.555   3.499
 3368SOL    HW313792   2.659   1.473   3.386
 3368SOL    MW413793   2.649   1.525   3.455
 3369SOL     OW13794   2.387   0.692   2.548
 3369SOL    HW213795   2.372   0.612   2.599
 3369SOL    HW313796   2.469   0.727   2.582
 3369SOL    MW413797   2.395   0.684   2.560
 3370SOL     OW13798   2.724   1.378   3.233
 3370SOL    HW213799   2.688   1.444   3.173
 3370SOL    HW313800   2.652   1.316   3.246
 3370SOL    MW413801   2.710   1.378   3.227
 3371SOL     OW13802   2.529   0.518   2.925
 3371SOL    HW213803   2.435   0.514   2.943
 3371SOL    HW313804   2.559   0.427   2.934
 3371SOL    MW413805   2.520   0.506   2.928
 3372SOL     OW13806   2.275   0.932   2.829
 3372SOL    HW213807   2.230   0.939   2.745
 3372SOL    HW313808   2.255   1.015   2.873
 3372SOL    MW413809   2.267   0.944   2.823
 3373SOL     OW13810   1.972   1.778   2.704
 3373SOL    HW213811   2.061   1.770   2.739
 3373SOL    HW313812   1.936   1.690   2.709
 3373SOL    MW413813   1.979   1.765   2.709
 3374SOL     OW13814   3.237   1.170   2.073
 3374SOL    HW213815   3.155   1.206   2.039
 3374SOL    HW313816   3.305   1.213   2.022
 3374SOL    MW413817   3.235   1.180   2.061
 3375SOL     OW13818   2.236   1.305   2.739
 3375SOL    HW213819   2.212   1.358   2.815
 3375SOL    HW313820   2.292   1.363   2.687
 3375SOL    MW413821   2.240   1.320   2.742
 3376SOL     OW13822   2.798   0.949   2.549
 3376SOL    HW213823   2.712   0.936   2.589
 3376SOL    HW313824   2.851   0.876   2.581
 3376SOL    MW413825   2.794   0.938   2.558
 3377SOL     OW13826   2.206   1.601   3.334
 3377SOL    HW213827   2.114   1.577   3.319
 3377SOL    HW313828   2.250   1.518   3.351
 3377SOL    MW413829   2.200   1.586   3.333
 3378SOL     OW13830   2.789   1.311   2.266
 3378SOL    HW213831   2.766   1.373   2.334
 3378SOL    HW313832   2.746   1.229   2.292
 3378SOL    MW413833   2.781   1.307   2.277
 3379SOL     OW13834   3.662   0.312   2.722
 3379SOL    HW213835   3.599   0.292   2.791
 3379SOL    HW313836   3.652   0.241   2.659
 3379SOL    MW413837   3.652   0.299   2.723
 3380SOL     OW13838   2.286   0.284   2.234
 3380SOL    HW213839   2.260   0.246   2.150
 3380SOL    HW313840   2.223   0.354   2.250
 3380SOL    MW413841   2.275   0.287   2.225
 3381SOL     OW13842   2.121   1.245   2.271
 3381SOL    HW213843   2.069   1.313   2.227
 3381SOL    HW313844   2.118   1.171   2.211
 3381SOL    MW413845   2.113   1.244   2.258
 3382SOL     OW13846   2.783   1.708   2.049
 3382SOL    HW213847   2.738   1.724   2.132
 3382SOL    HW313848   2.714   1.673   1.991
 3382SOL    MW413849   2.769   1.705   2.051
 3383SOL     OW13850   3.718   0.481   2.024
 3383SOL    HW213851   3.627   0.483   2.052
 3383SOL    HW313852   3.763   0.543   2.082
 3383SOL    MW413853   3.711   0.489   2.034
 3384SOL     OW13854   3.463   1.084   2.374
 3384SOL    HW213855   3.373   1.084   2.409
 3384SOL    HW313856   3.456   1.130   2.291
 3384SOL    MW413857   3.450   1.090   2.368
 3385SOL     OW13858   3.263   0.719   3.446
 3385SOL    HW213859   3.332   0.657   3.423
 3385SOL    HW313860   3.188   0.693   3.393
 3385SOL    MW413861   3.263   0.706   3.437
 3386SOL     OW13862   2.004   1.599   2.998
 3386SOL    HW213863   1.987   1.545   3.075
 3386SOL    HW313864   1.992   1.689   3.028
 3386SOL    MW413865   2.001   1.603   3.012
 3387SOL     OW13866   2.999   1.106   3.438
 3387SOL    HW213867   2.984   1.199   3.423
 3387SOL    HW313868   3.094   1.096   3.438
 3387SOL    MW413869   3.008   1.116   3.435
 3388SOL     OW13870   2.795   0.530   3.639
 3388SOL    HW213871   2.885   0.531   3.606
 3388SOL    HW313872   2.754   0.455   3.597
 3388SOL    MW413873   2.801   0.520   3.630
 3389SOL     OW13874   3.370   1.062   2.766
 3389SOL    HW213875   3.373   0.996   2.697
 3389SOL    HW313876   3.455   1.105   2.762
 3389SOL    MW413877   3.382   1.058   2.757
 3390SOL     OW13878   2.990   0.665   2.335
 3390SOL    HW213879   3.016   0.689   2.246
 3390SOL    HW313880   2.972   0.572   2.331
 3390SOL    MW413881   2.992   0.657   2.322
 3391SOL     OW13882   3.655   1.285   2.186
 3391SOL    HW213883   3.611   1.326   2.261
 3391SOL    HW313884   3.712   1.353   2.151
 3391SOL    MW413885   3.657   1.299   2.191
 3392SOL     OW13886   2.575   0.334   3.589
 3392SOL    HW213887   2.585   0.260   3.529
 3392SOL    HW313888   2.611   0.303   3.672
 3392SOL    MW413889   2.581   0.320   3.591
 3393SOL     OW13890   2.311   1.701   2.504
 3393SOL    HW213891   2.343   1.789   2.482
 3393SOL    HW313892   2.264   1.673   2.426
 3393SOL    MW413893   2.310   1.709   2.491
 3394SOL     OW13894   3.695   0.063   2.553
 3394SOL    HW213895   3.749   0.014   2.615
 3394SOL    HW313896   3.638  -0.003   2.514
 3394SOL    MW413897   3.695   0.047   2.555
 3395SOL     OW13898   2.027   1.761   2.081
 3395SOL    HW213899   2.056   1.851   2.073
 3395SOL    HW313900   1.977   1.744   2.002
 3395SOL    MW413901   2.025   1.769   2.070
 3396SOL     OW13902   2.814   0.016   2.966
 3396SOL    HW213903   2.773   0.094   2.928
 3396SOL    HW313904   2.908   0.034   2.961
 3396SOL    MW413905   2.820   0.028   2.961
 3397SOL     OW13906   3.431   1.569   2.052
 3397SOL    HW213907   3.479   1.638   2.098
 3397SOL    HW313908   3.352   1.613   2.021
 3397SOL    MW413909   3.426   1.583   2.055
 3398SOL     OW13910   2.829   0.694   1.996
 3398SOL    HW213911   2.831   0.641   1.917
 3398SOL    HW313912   2.917   0.731   2.002
 3398SOL    MW413913   2.841   0.693   1.985
 3399SOL     OW13914   3.443   0.620   2.332
 3399SOL    HW213915   3.482   0.620   2.419
 3399SOL    HW313916   3.384   0.696   2.332
 3399SOL    MW413917   3.440   0.631   2.343
 3400SOL     OW13918   2.760   0.987   3.461
 3400SOL    HW213919   2.737   0.967   3.551
 3400SOL    HW313920   2.845   1.031   3.466
 3400SOL    MW413921   2.767   0.990   3.473
 3401SOL     OW13922   2.840   0.124   3.221
 3401SOL    HW213923   2.846   0.086   3.134
 3401SOL    HW313924   2.829   0.218   3.206
 3401SOL    MW413925   2.841   0.132   3.209
 3402SOL     OW13926   2.929   0.613   3.055
 3402SOL    HW213927   3.004   0.642   3.002
 3402SOL    HW313928   2.861   0.678   3.039
 3402SOL    MW413929   2.930   0.625   3.045
 3403SOL     OW13930   3.479   0.581   3.332
 3403SOL    HW213931   3.460   0.490   3.311
 3403SOL    HW313932   3.457   0.630   3.253
 3403SOL    MW413933   3.474   0.574   3.319
 3404SOL     OW13934   3.621   1.675   3.236
 3404SOL    HW213935   3.549   1.637   3.287
 3404SOL    HW313936   3.638   1.760   3.277
 3404SOL    MW413937   3.615   1.680   3.248
 3405SOL     OW13938   2.926   0.319   3.438
 3405SOL    HW213939   2.892   0.358   3.357
 3405SOL    HW313940   2.904   0.227   3.431
 3405SOL    MW413941   2.919   0.312   3.428
 3406SOL     OW13942   3.335   1.133   3.514
 3406SOL    HW213943   3.417   1.174   3.544
 3406SOL    HW313944   3.298   1.095   3.594
 3406SOL    MW413945   3.341   1.134   3.529
 3407SOL     OW13946   3.630   0.506   2.498
 3407SOL    HW213947   3.719   0.475   2.515
 3407SOL    HW313948   3.573   0.446   2.546
 3407SOL    MW413949   3.633   0.494   2.507
 3408SOL     OW13950   2.056   0.220   2.527
 3408SOL    HW213951   2.047   0.160   2.453
 3408SOL    HW313952   1.989   0.191   2.590
 3408SOL    MW413953   2.046   0.207   2.525
 3409SOL     OW13954   2.999   1.313   2.088
 3409SOL    HW213955   2.949   1.315   2.170
 3409SOL    HW313956   2.933   1.331   2.020
 3409SOL    MW413957   2.985   1.315   2.090
 3410SOL     OW13958   2.003   0.393   2.890
 3410SOL    HW213959   1.975   0.484   2.899
 3410SOL    HW313960   1.940   0.354   2.829
 3410SOL    MW413961   1.990   0.399   2.884
 3411SOL     OW13962   2.462   1.731   2.196
 3411SOL    HW213963   2.383   1.689   2.229
 3411SOL    HW313964   2.528   1.714   2.263
 3411SOL    MW413965   2.461   1.723   2.209
 3412SOL     OW13966   3.590   1.251   3.593
 3412SOL    HW213967   3.640   1.177   3.625
 3412SOL    HW313968   3.536   1.278   3.668
 3412SOL    MW413969   3.590   1.245   3.606
 3413SOL     OW13970   2.598   1.146   1.903
 3413SOL    HW213971   2.520   1.092   1.890
 3413SOL    HW313972   2.569   1.219   1.956
 3413SOL    MW413973   2.584   1.148   1.908
 3414SOL     OW13974   3.724   0.886   3.095
 3414SOL    HW213975   3.740   0.924   3.008
 3414SOL    HW313976   3.758   0.952   3.156
 3414SOL    MW413977   3.731   0.899   3.091
 3415SOL     OW13978   3.516   1.595   2.764
 3415SOL    HW213979   3.545   1.662   2.825
 3415SOL    HW313980   3.497   1.519   2.819
 3415SOL    MW413981   3.518   1.595   2.779
 3416SOL     OW13982   3.179   1.662   1.971
 3416SOL    HW213983   3.105   1.625   2.021
 3416SOL    HW313984   3.187   1.752   2.004
 3416SOL    MW413985   3.170   1.669   1.983
 3417SOL     OW13986   1.987   0.668   3.060
 3417SOL    HW213987   2.049   0.698   3.126
 3417SOL    HW313988   1.921   0.737   3.054
 3417SOL    MW413989   1.986   0.681   3.067
 3418SOL     OW13990   3.403   1.336   1.913
 3418SOL    HW213991   3.350   1.385   1.849
 3418SOL    HW313992   3.434   1.402   1.974
 3418SOL    MW413993   3.401   1.350   1.911
 3419SOL     OW13994   2.628   0.225   1.968
 3419SOL    HW213995   2.576   0.145   1.956
 3419SOL    HW313996   2.715   0.202   1.936
 3419SOL    MW413997   2.631   0.211   1.962
 3420SOL     OW13998   2.082   1.777   3.512
 3420SOL    HW213999   2.056   1.845   3.450
 3420SOL    HW314000   2.130   1.714   3.460
 3420SOL    MW414001   2.084   1.777   3.498
 3421SOL     OW14002   2.134   1.096   3.019
 3421SOL    HW214003   2.187   1.171   3.044
 3421SOL    HW314004   2.053   1.134   2.985
 3421SOL    MW414005   2.130   1.111   3.019
 3422SOL     OW14006   2.674   1.000   3.007
 3422SOL    HW214007   2.702   0.909   3.019
 3422SOL    HW314008   2.603   0.994   2.943
 3422SOL    MW414009   2.667   0.988   3.002
 3423SOL     OW14010   1.989   0.865   2.425
 3423SOL    HW214011   2.080   0.880   2.452
 3423SOL    HW314012   1.992   0.786   2.371
 3423SOL    MW414013   2.001   0.857   2.423
 3424SOL     OW14014   2.225   0.573   3.679
 3424SOL    HW214015   2.172   0.653   3.686
 3424SOL    HW314016   2.295   0.585   3.744
 3424SOL    MW414017   2.227   0.586   3.687
 3425SOL     OW14018   2.611   0.123   3.386
 3425SOL    HW214019   2.588   0.031   3.388
 3425SOL    HW314020   2.697   0.125   3.343
 3425SOL    MW414021   2.618   0.113   3.382
 3426SOL     OW14022   2.295   0.647   3.425
 3426SOL    HW214023   2.375   0.697   3.411
 3426SOL    HW314024   2.286   0.641   3.520
 3426SOL    MW414025   2.304   0.653   3.435
 3427SOL     OW14026   2.616   1.797   2.799
 3427SOL    HW214027   2.705   1.812   2.829
 3427SOL    HW314028   2.611   1.844   2.715
 3427SOL    MW414029   2.626   1.805   2.792
 3428SOL     OW14030   3.272   0.172   3.696
 3428SOL    HW214031   3.328   0.099   3.722
 3428SOL    HW314032   3.242   0.210   3.778
 3428SOL    MW414033   3.276   0.167   3.709
 3429SOL     OW14034   1.997   1.477   2.464
 3429SOL    HW214035   1.969   1.516   2.546
 3429SOL    HW314036   2.017   1.386   2.486
 3429SOL    MW414037   1.995   1.469   2.477
 3430SOL     OW14038   2.830   1.520   2.499
 3430SOL    HW214039   2.913   1.474   2.483
 3430SOL    HW314040   2.820   1.519   2.595
 3430SOL    MW414041   2.840   1.513   2.509
 3431SOL     OW14042   3.662   0.665   2.813
 3431SOL    HW214043   3.751   0.695   2.795
 3431SOL    HW314044   3.642   0.605   2.742
 3431SOL    MW414045   3.671   0.662   2.802
 3432SOL     OW14046   3.513   0.844   3.693
 3432SOL    HW214047   3.568   0.768   3.674
 3432SOL    HW314048   3.515   0.852   3.788
 3432SOL    MW414049   3.521   0.835   3.701
 3433SOL     OW14050   2.563   1.577   1.904
 3433SOL    HW214051   2.503   1.646   1.874
 3433SOL    HW314052   2.508   1.519   1.957
 3433SOL    MW414053   2.547   1.579   1.906
 3434SOL     OW14054   3.001   0.222   2.127
 3434SOL    HW214055   2.934   0.198   2.064
 3434SOL    HW314056   3.066   0.271   2.076
 3434SOL    MW414057   3.001   0.224   2.112
 3435SOL     OW14058   2.808   0.406   3.212
 3435SOL    HW214059   2.727   0.447   3.240
 3435SOL    HW314060   2.855   0.474   3.164
 3435SOL    MW414061   2.803   0.421   3.210
 3436SOL     OW14062   3.068   0.744   2.835
 3436SOL    HW214063   3.081   0.838   2.845
 3436SOL    HW314064   3.029   0.734   2.749
 3436SOL    MW414065   3.064   0.755   2.825
 3437SOL     OW14066   2.520   0.939   2.639
 3437SOL    HW214067   2.431   0.930   2.672
 3437SOL    HW314068   2.524   1.029   2.607
 3437SOL    MW414069   2.509   0.950   2.639
 3438SOL     OW14070   3.319   0.522   2.634
 3438SOL    HW214071   3.264   0.443   2.633
 3438SOL    HW314072   3.301   0.563   2.718
 3438SOL    MW414073   3.309   0.517   2.643
 3439SOL     OW14074   2.290   0.209   3.451
 3439SOL    HW214075   2.211   0.227   3.503
 3439SOL    HW314076   2.285   0.271   3.378
 3439SOL    MW414077   2.280   0.219   3.448
 3440SOL     OW14078   2.938   0.726   2.591
 3440SOL    HW214079   2.875   0.658   2.615
 3440SOL    HW314080   2.958   0.707   2.499
 3440SOL    MW414081   2.932   0.713   2.583
 3441SOL     OW14082   2.194   1.621   2.293
 3441SOL    HW214083   2.155   1.668   2.219
 3441SOL    HW314084   2.128   1.556   2.318
 3441SOL    MW414085   2.181   1.619   2.287
 3442SOL     OW14086   2.686   1.030   2.317
 3442SOL    HW214087   2.688   1.004   2.224
 3442SOL    HW314088   2.744   0.967   2.360
 3442SOL    MW414089   2.694   1.019   2.311
 3443SOL     OW14090   3.239   1.590   3.089
 3443SOL    HW214091   3.164   1.636   3.127
 3443SOL    HW314092   3.221   1.497   3.106
 3443SOL    MW414093   3.228   1.584   3.097
 3444SOL     OW14094   3.243   1.798   2.519
 3444SOL    HW214095   3.186   1.751   2.458
 3444SOL    HW314096   3.329   1.759   2.506
 3444SOL    MW414097   3.246   1.789   2.509
 3445SOL     OW14098   3.196   0.274   2.650
 3445SOL    HW214099   3.224   0.206   2.711
 3445SOL    HW314100   3.110   0.245   2.620
 3445SOL    MW414101   3.189   0.261   2.654
 3446SOL     OW14102   2.001   1.208   2.584
 3446SOL    HW214103   2.065   1.240   2.647
 3446SOL    HW314104   2.050   1.144   2.532
 3446SOL    MW414105   2.016   1.204   2.585
 3447SOL     OW14106   2.501   1.284   3.566
 3447SOL    HW214107   2.549   1.367   3.553
 3447SOL    HW314108   2.558   1.232   3.622
 3447SOL    MW414109   2.515   1.288   3.572
 3448SOL     OW14110   2.077   1.526   3.706
 3448SOL    HW214111   2.133   1.450   3.721
 3448SOL    HW314112   2.026   1.504   3.628
 3448SOL    MW414113   2.077   1.513   3.697
 3449SOL     OW14114   3.176   0.378   1.985
 3449SOL    HW214115   3.149   0.444   1.921
 3449SOL    HW314116   3.246   0.421   2.035
 3449SOL    MW414117   3.181   0.391   1.982
 3450SOL     OW14118   2.844   0.083   1.922
 3450SOL    HW214119   2.900   0.075   1.844
 3450SOL    HW314120   2.821  -0.007   1.944
 3450SOL    MW414121   2.849   0.070   1.915
 3451SOL     OW14122   3.349   0.934   2.127
 3451SOL    HW214123   3.316   1.023   2.117
 3451SOL    HW314124   3.314   0.905   2.212
 3451SOL    MW414125   3.339   0.943   2.138
 3452SOL     OW14126   2.962   1.363   3.315
 3452SOL    HW214127   2.873   1.369   3.283
 3452SOL    HW314128   3.006   1.442   3.283
 3452SOL    MW414129   2.957   1.373   3.307
 3453SOL     OW14130   2.255   0.031   3.657
 3453SOL    HW214131   2.183  -0.004   3.605
 3453SOL    HW314132   2.313   0.072   3.592
 3453SOL    MW414133   2.253   0.032   3.642
 3454SOL     OW14134   2.279   1.521   2.956
 3454SOL    HW214135   2.324   1.583   3.013
 3454SOL    HW314136   2.186   1.540   2.969
 3454SOL    MW414137   2.272   1.531   2.963
 3455SOL     OW14138   3.719   1.050   3.310
 3455SOL    HW214139   3.634   1.063   3.269
 3455SOL    HW314140   3.699   1.014   3.397
 3455SOL    MW414141   3.706   1.046   3.315
 3456SOL     OW14142   2.701   1.589   3.064
 3456SOL    HW214143   2.725   1.578   2.973
 3456SOL    HW314144   2.624   1.646   3.062
 3456SOL    MW414145   2.693   1.594   3.053
 3457SOL     OW14146   2.343   0.972   1.919
 3457SOL    HW214147   2.266   0.985   1.975
 3457SOL    HW314148   2.307   0.936   1.838
 3457SOL    MW414149   2.329   0.968   1.916
 3458SOL     OW14150   2.996   0.945   2.162
 3458SOL    HW214151   2.906   0.966   2.137
 3458SOL    HW314152   3.023   1.018   2.218
 3458SOL    MW414153   2.988   0.957   2.165
 3459SOL     OW14154   2.496   1.294   2.854
 3459SOL    HW214155   2.489   1.273   2.948
 3459SOL    HW314156   2.414   1.262   2.817
 3459SOL    MW414157   2.484   1.288   2.861
 3460SOL     OW14158   3.360   0.304   3.256
 3460SOL    HW214159   3.307   0.306   3.336
 3460SOL    HW314160   3.345   0.217   3.219
 3460SOL    MW414161   3.352   0.294   3.261
 3461SOL     OW14162   3.696   0.228   3.129
 3461SOL    HW214163   3.677   0.295   3.064
 3461SOL    HW314164   3.753   0.166   3.084
 3461SOL    MW414165   3.700   0.229   3.115
 3462SOL     OW14166   1.942   1.386   3.517
 3462SOL    HW214167   1.986   1.319   3.463
 3462SOL    HW314168   1.857   1.348   3.537
 3462SOL    MW414169   1.937   1.372   3.513
 3463SOL     OW14170   2.625   0.061   2.569
 3463SOL    HW214171   2.554   0.122   2.551
 3463SOL    HW314172   2.676   0.058   2.488
 3463SOL    MW414173   2.621   0.067   2.556
 3464SOL     OW14174   2.383   1.301   2.318
 3464SOL    HW214175   2.376   1.333   2.408
 3464SOL    HW314176   2.293   1.285   2.290
 3464SOL    MW414177   2.371   1.303   2.325
 3465SOL     OW14178   2.978   1.694   3.227
 3465SOL    HW214179   2.898   1.679   3.177
 3465SOL    HW314180   2.985   1.789   3.234
 3465SOL    MW414181   2.969   1.705   3.221
 3466SOL     OW14182   3.092   1.659   2.717
 3466SOL    HW214183   3.139   1.732   2.676
 3466SOL    HW314184   3.013   1.698   2.753
 3466SOL    MW414185   3.087   1.674   2.716
 3467SOL     OW14186   3.500   1.754   2.992
 3467SOL    HW214187   3.543   1.724   3.072
 3467SOL    HW314188   3.419   1.702   2.989
 3467SOL    MW414189   3.495   1.743   3.002
 3468SOL     OW14190   2.585   0.718   3.699
 3468SOL    HW214191   2.655   0.660   3.671
 3468SOL    HW314192   2.528   0.663   3.754
 3468SOL    MW414193   2.587   0.705   3.703
 3469SOL     OW14194   3.372   0.930   3.332
 3469SOL    HW214195   3.377   0.983   3.412
 3469SOL    HW314196   3.334   0.847   3.360
 3469SOL    MW414197   3.368   0.925   3.347
 3470SOL     OW14198   3.012   0.065   3.578
 3470SOL    HW214199   3.007  -0.028   3.559
 3470SOL    HW314200   3.095   0.076   3.624
 3470SOL    MW414201   3.020   0.054   3.582
 3471SOL     OW14202   2.386   0.585   2.032
 3471SOL    HW214203   2.352   0.641   2.102
 3471SOL    HW314204   2.457   0.535   2.072
 3471SOL    MW414205   2.392   0.586   2.046
 3472SOL     OW14206   3.482   1.336   2.854
 3472SOL    HW214207   3.517   1.318   2.767
 3472SOL    HW314208   3.387   1.337   2.841
 3472SOL    MW414209   3.474   1.333   2.841
 3473SOL     OW14210   2.911   0.984   3.223
 3473SOL    HW214211   2.954   1.019   3.301
 3473SOL    HW314212   2.894   1.061   3.169
 3473SOL    MW414213   2.914   0.999   3.226
 3474SOL     OW14214   3.442   0.471   2.096
 3474SOL    HW214215   3.434   0.542   2.033
 3474SOL    HW314216   3.460   0.515   2.179
 3474SOL    MW414217   3.443   0.485   2.098
 3475SOL     OW14218   2.302   0.126   2.525
 3475SOL    HW214219   2.352   0.169   2.456
 3475SOL    HW314220   2.217   0.170   2.525
 3475SOL    MW414221   2.299   0.139   2.516
 3476SOL     OW14222   2.061   1.188   3.385
 3476SOL    HW214223   2.089   1.141   3.463
 3476SOL    HW314224   1.982   1.143   3.356
 3476SOL    MW414225   2.054   1.177   3.391
 3477SOL     OW14226   2.569   0.515   3.352
 3477SOL    HW214227   2.541   0.603   3.376
 3477SOL    HW314228   2.538   0.459   3.423
 3477SOL    MW414229   2.561   0.518   3.364
 3478SOL     OW14230   3.111   0.733   2.071
 3478SOL    HW214231   3.158   0.751   1.990
 3478SOL    HW314232   3.077   0.817   2.099
 3478SOL    MW414233   3.113   0.747   2.064
 3479SOL     OW14234   2.224   0.911   2.565
 3479SOL    HW214235   2.282   0.967   2.513
 3479SOL    HW314236   2.268   0.826   2.567
 3479SOL    MW414237   2.237   0.908   2.558
 3480SOL     OW14238   3.364   0.263   2.402
 3480SOL    HW214239   3.286   0.213   2.427
 3480SOL    HW314240   3.335   0.354   2.402
 3480SOL    MW414241   3.350   0.267   2.405
 3481SOL     OW14242   2.950   0.225   2.561
 3481SOL    HW214243   2.970   0.300   2.505
 3481SOL    HW314244   2.930   0.264   2.646
 3481SOL    MW414245   2.951   0.241   2.565
 3482SOL     OW14246   2.846   1.475   1.893
 3482SOL    HW214247   2.873   1.553   1.845
 3482SOL    HW314248   2.753   1.490   1.912
 3482SOL    MW414249   2.837   1.488   1.889
 3483SOL     OW14250   3.710   0.998   3.580
 3483SOL    HW214251   3.623   0.978   3.616
 3483SOL    HW314252   3.764   0.924   3.605
 3483SOL    MW414253   3.705   0.987   3.588
 3484SOL     OW14254   1.931   1.511   2.737
 3484SOL    HW214255   1.963   1.515   2.828
 3484SOL    HW314256   1.836   1.519   2.745
 3484SOL    MW414257   1.923   1.514   2.750
 3485SOL     OW14258   1.886   0.637   2.284
 3485SOL    HW214259   1.826   0.609   2.354
 3485SOL    HW314260   1.960   0.577   2.290
 3485SOL    MW414261   1.888   0.626   2.293
 3486SOL     OW14262   3.454   1.849   3.718
 3486SOL    HW214263   3.499   1.773   3.683
 3486SOL    HW314264   3.492   1.862   3.805
 3486SOL    MW414265   3.464   1.842   3.724
 3487SOL     OW14266   3.054   1.368   2.444
 3487SOL    HW214267   3.077   1.319   2.522
 3487SOL    HW314268   3.135   1.410   2.416
 3487SOL    MW414269   3.067   1.368   2.451
 3488SOL     OW14270   2.312   0.376   3.173
 3488SOL    HW214271   2.345   0.457   3.213
 3488SOL    HW314272   2.285   0.402   3.085
 3488SOL    MW414273   2.311   0.390   3.167
 3489SOL     OW14274   2.266   0.343   2.909
 3489SOL    HW214275   2.296   0.257   2.880
 3489SOL    HW314276   2.171   0.336   2.912
 3489SOL    MW414277   2.258   0.332   2.907
 3490SOL     OW14278   3.095   0.552   3.600
 3490SOL    HW214279   3.147   0.487   3.553
 3490SOL    HW314280   3.053   0.603   3.530
 3490SOL    MW414281   3.096   0.549   3.583
 3491SOL     OW14282   3.194   0.347   3.461
 3491SOL    HW214283   3.101   0.331   3.448
 3491SOL    HW314284   3.220   0.285   3.529
 3491SOL    MW414285   3.184   0.337   3.468
 3492SOL     OW14286   2.409   0.121   2.800
 3492SOL    HW214287   2.419   0.030   2.826
 3492SOL    HW314288   2.365   0.117   2.715
 3492SOL    MW414289   2.405   0.109   2.792
 3493SOL     OW14290   2.503   1.736   3.346
 3493SOL    HW214291   2.420   1.721   3.391
 3493SOL    HW314292   2.562   1.669   3.381
 3493SOL    MW414293   2.501   1.726   3.356
 3494SOL     OW14294   3.560   0.443   2.971
 3494SOL    HW214295   3.493   0.476   3.031
 3494SOL    HW314296   3.603   0.521   2.937
 3494SOL    MW414297   3.558   0.458   2.975
 3495SOL     OW14298   3.738   1.163   2.941
 3495SOL    HW214299   3.731   1.103   2.866
 3495SOL    HW314300   3.664   1.223   2.930
 3495SOL    MW414301   3.728   1.163   2.930
 3496SOL     OW14302   3.120   1.025   2.859
 3496SOL    HW214303   3.134   0.997   2.950
 3496SOL    HW314304   3.206   1.056   2.831
 3496SOL    MW414305   3.133   1.026   2.868
 3497SOL     OW14306   3.203   0.520   3.138
 3497SOL    HW214307   3.224   0.521   3.045
 3497SOL    HW314308   3.248   0.442   3.171
 3497SOL    MW414309   3.210   0.510   3.130
 3498SOL     OW14310   3.696   0.651   3.680
 3498SOL    HW214311   3.733   0.596   3.749
 3498SOL    HW314312   3.721   0.608   3.598
 3498SOL    MW414313   3.703   0.639   3.679
 3499SOL     OW14314   3.243   0.949   3.731
 3499SOL    HW214315   3.309   0.897   3.685
 3499SOL    HW314316   3.263   0.936   3.824
 3499SOL    MW414317   3.254   0.940   3.738
 3500SOL     OW14318   3.194   0.035   2.080
 3500SOL    HW214319   3.268   0.079   2.123
 3500SOL    HW314320   3.118   0.089   2.102
 3500SOL    MW414321   3.194   0.047   2.088
 3501SOL     OW14322   3.254   0.810   2.358
 3501SOL    HW214323   3.169   0.780   2.328
 3501SOL    HW314324   3.246   0.817   2.453
 3501SOL    MW414325   3.242   0.808   2.367
 3502SOL     OW14326   2.330   1.273   3.089
 3502SOL    HW214327   2.342   1.300   3.180
 3502SOL    HW314328   2.311   1.354   3.042
 3502SOL    MW414329   2.329   1.288   3.094
 3503SOL     OW14330   2.614   0.253   2.912
 3503SOL    HW214331   2.587   0.255   3.003
 3503SOL    HW314332   2.544   0.205   2.867
 3503SOL    MW414333   2.602   0.249   2.919
 3504SOL     OW14334   2.468   1.745   3.074
 3504SOL    HW214335   2.520   1.822   3.051
 3504SOL    HW314336   2.477   1.737   3.169
 3504SOL    MW414337   2.477   1.752   3.085
 3505SOL     OW14338   3.370   1.330   3.306
 3505SOL    HW214339   3.355   1.259   3.369
 3505SOL    HW314340   3.416   1.288   3.234
 3505SOL    MW414341   3.376   1.314   3.306
 3506SOL     OW14342   2.444   1.061   3.423
 3506SOL    HW214343   2.481   1.066   3.335
 3506SOL    HW314344   2.483   1.134   3.470
 3506SOL    MW414345   2.454   1.071   3.418
 3507SOL     OW14346   2.624   1.104   3.235
 3507SOL    HW214347   2.683   1.050   3.288
 3507SOL    HW314348   2.639   1.076   3.145
 3507SOL    MW414349   2.634   1.093   3.231
 3508SOL     OW14350   2.627   0.476   2.084
 3508SOL    HW214351   2.700   0.525   2.047
 3508SOL    HW314352   2.643   0.385   2.058
 3508SOL    MW414353   2.639   0.471   2.077
 3509SOL     OW14354   3.435   1.593   3.407
 3509SOL    HW214355   3.477   1.578   3.492
 3509SOL    HW314356   3.426   1.506   3.369
 3509SOL    MW414357   3.439   1.581   3.414
 3510SOL     OW14358   3.095   0.072   2.998
 3510SOL    HW214359   3.150   0.081   2.920
 3510SOL    HW314360   3.150   0.106   3.069
 3510SOL    MW414361   3.109   0.077   2.997
 3511SOL     OW14362   2.102   0.985   2.182
 3511SOL    HW214363   2.039   1.001   2.111
 3511SOL    HW314364   2.049   0.948   2.253
 3511SOL    MW414365   2.087   0.982   2.182
 3512SOL     OW14366   2.458   1.339   2.041
 3512SOL    HW214367   2.473   1.315   2.133
 3512SOL    HW314368   2.366   1.317   2.025
 3512SOL    MW414369   2.448   1.332   2.051
 3513SOL     OW14370   2.997   1.570   2.193
 3513SOL    HW214371   3.005   1.488   2.144
 3513SOL    HW314372   2.916   1.609   2.160
 3513SOL    MW414373   2.987   1.565   2.183
 3514SOL     OW14374   2.256   1.728   2.762
 3514SOL    HW214375   2.260   1.639   2.797
 3514SOL    HW314376   2.282   1.719   2.671
 3514SOL    MW414377   2.259   1.716   2.754
 3515SOL     OW14378   2.873   1.206   3.005
 3515SOL    HW214379   2.805   1.140   3.021
 3515SOL    HW314380   2.891   1.200   2.912
 3515SOL    MW414381   2.866   1.197   2.996
 3516SOL     OW14382   1.962   1.481   3.256
 3516SOL    HW214383   1.952   1.439   3.342
 3516SOL    HW314384   1.883   1.534   3.246
 3516SOL    MW414385   1.951   1.482   3.267
 3517SOL     OW14386   2.866   0.345   2.826
 3517SOL    HW214387   2.796   0.297   2.871
 3517SOL    HW314388   2.898   0.408   2.890
 3517SOL    MW414389   2.861   0.347   2.840
 3518SOL     OW14390   2.517   0.781   3.446
 3518SOL    HW214391   2.510   0.876   3.434
 3518SOL    HW314392   2.526   0.770   3.541
 3518SOL    MW414393   2.518   0.793   3.456
 3519SOL     OW14394   2.238   1.296   3.704
 3519SOL    HW214395   2.310   1.298   3.641
 3519SOL    HW314396   2.208   1.205   3.703
 3519SOL    MW414397   2.243   1.285   3.696
 3520SOL     OW14398   3.322   0.059   3.171
 3520SOL    HW214399   3.393   0.005   3.135
 3520SOL    HW314400   3.321   0.038   3.264
 3520SOL    MW414401   3.331   0.050   3.179
 3521SOL     OW14402   3.522   1.589   3.655
 3521SOL    HW214403   3.495   1.586   3.746
 3521SOL    HW314404   3.618   1.593   3.658
 3521SOL    MW414405   3.532   1.589   3.667
 3522SOL     OW14406   2.333   0.451   2.639
 3522SOL    HW214407   2.404   0.399   2.602
 3522SOL    HW314408   2.319   0.416   2.726
 3522SOL    MW414409   2.341   0.440   2.646
 3523SOL     OW14410   1.888   1.786   3.711
 3523SOL    HW214411   1.938   1.764   3.633
 3523SOL    HW314412   1.896   1.881   3.719
 3523SOL    MW414413   1.896   1.795   3.702
 3524SOL     OW14414   2.649   1.544   2.715
 3524SOL    HW214415   2.577   1.481   2.728
 3524SOL    HW314416   2.610   1.629   2.733
 3524SOL    MW414417   2.633   1.547   2.718
 3525SOL     OW14418   2.969   0.392   2.363
 3525SOL    HW214419   2.991   0.329   2.295
 3525SOL    HW314420   2.874   0.384   2.374
 3525SOL    MW414421   2.959   0.383   2.355
 3526SOL     OW14422   2.054   0.082   2.295
 3526SOL    HW214423   2.125   0.103   2.234
 3526SOL    HW314424   2.008   0.010   2.253
 3526SOL    MW414425   2.058   0.076   2.281
 3527SOL     OW14426   1.885   0.549   3.438
 3527SOL    HW214427   1.949   0.615   3.413
 3527SOL    HW314428   1.804   0.576   3.395
 3527SOL    MW414429   1.883   0.561   3.430
 3528SOL     OW14430   3.623   1.456   2.395
 3528SOL    HW214431   3.593   1.389   2.456
 3528SOL    HW314432   3.717   1.462   2.409
 3528SOL    MW414433   3.631   1.448   2.405
 3529SOL     OW14434   3.179   1.133   2.325
 3529SOL    HW214435   3.151   1.219   2.358
 3529SOL    HW314436   3.207   1.149   2.235
 3529SOL    MW414437   3.179   1.147   2.317
 3530SOL     OW14438   2.841   0.053   2.378
 3530SOL    HW214439   2.878   0.112   2.443
 3530SOL    HW314440   2.818   0.109   2.304
 3530SOL    MW414441   2.842   0.068   2.377
 3531SOL     OW14442   3.694   0.935   2.800
 3531SOL    HW214443   3.685   0.967   2.711
 3531SOL    HW314444   3.647   0.851   2.800
 3531SOL    MW414445   3.687   0.928   2.790
 3532SOL     OW14446   2.070   0.775   3.379
 3532SOL    HW214447   2.091   0.844   3.317
 3532SOL    HW314448   2.150   0.722   3.384
 3532SOL    MW414449   2.083   0.776   3.373
 3533SOL     OW14450   3.606   0.866   2.501
 3533SOL    HW214451   3.700   0.855   2.489
 3533SOL    HW314452   3.582   0.938   2.442
 3533SOL    MW414453   3.616   0.874   2.492
 3534SOL     OW14454   2.055   0.790   3.646
 3534SOL    HW214455   1.981   0.734   3.672
 3534SOL    HW314456   2.050   0.793   3.551
 3534SOL    MW414457   2.044   0.783   3.636
 3535SOL     OW14458   2.221   0.077   3.096
 3535SOL    HW214459   2.264   0.161   3.116
 3535SOL    HW314460   2.294   0.015   3.089
 3535SOL    MW414461   2.236   0.080   3.097
 3536SOL     OW14462   2.262   0.744   2.274
 3536SOL    HW214463   2.262   0.839   2.259
 3536SOL    HW314464   2.339   0.728   2.328
 3536SOL    MW414465   2.272   0.755   2.279
 3537SOL     OW14466   3.038   0.603   3.338
 3537SOL    HW214467   3.074   0.576   3.254
 3537SOL    HW314468   2.951   0.637   3.317
 3537SOL    MW414469   3.032   0.604   3.325
 3538SOL     OW14470   2.021   0.475   2.563
 3538SOL    HW214471   2.083   0.482   2.636
 3538SOL    HW314472   2.021   0.382   2.540
 3538SOL    MW414473   2.029   0.464   2.570
 3539SOL     OW14474   3.568   1.815   2.095
 3539SOL    HW214475   3.635   1.848   2.035
 3539SOL    HW314476   3.525   1.894   2.129
 3539SOL    MW414477   3.570   1.830   2.091
 3540SOL     OW14478   2.703   0.736   3.047
 3540SOL    HW214479   2.661   0.654   3.023
 3540SOL    HW314480   2.704   0.735   3.143
 3540SOL    MW414481   2.696   0.725   3.056
 3541SOL     OW14482   3.374   1.869   3.446
 3541SOL    HW214483   3.377   1.775   3.429
 3541SOL    HW314484   3.397   1.877   3.538
 3541SOL    MW414485   3.377   1.857   3.456
 3542SOL     OW14486   2.507   0.206   3.152
 3542SOL    HW214487   2.438   0.269   3.173
 3542SOL    HW314488   2.534   0.170   3.237
 3542SOL    MW414489   2.501   0.209   3.165
 3543SOL     OW14490   1.890   1.047   2.021
 3543SOL    HW214491   1.859   1.112   2.084
 3543SOL    HW314492   1.839   0.969   2.040
 3543SOL    MW414493   1.880   1.044   2.031
 3544SOL     OW14494   3.302   0.059   2.769
 3544SOL    HW214495   3.390   0.068   2.806
 3544SOL    HW314496   3.312   0.000   2.695
 3544SOL    MW414497   3.316   0.053   2.763
 3545SOL     OW14498   3.334   0.798   2.613
 3545SOL    HW214499   3.414   0.813   2.562
 3545SOL    HW314500   3.327   0.703   2.619
 3545SOL    MW414501   3.343   0.787   2.608
 3546SOL     OW14502   2.474   1.847   1.963
 3546SOL    HW214503   2.379   1.847   1.955
 3546SOL    HW314504   2.490   1.793   2.041
 3546SOL    MW414505   2.464   1.841   1.972
 3547SOL     OW14506   2.784   0.724   3.310
 3547SOL    HW214507   2.853   0.791   3.307
 3547SOL    HW314508   2.717   0.762   3.366
 3547SOL    MW414509   2.785   0.737   3.317
 3548SOL     OW14510   2.202   1.024   3.558
 3548SOL    HW214511   2.156   0.940   3.560
 3548SOL    HW314512   2.259   1.018   3.482
 3548SOL    MW414513   2.204   1.012   3.550
 3549SOL     OW14514   3.319   0.667   1.879
 3549SOL    HW214515   3.247   0.643   1.821
 3549SOL    HW314516   3.385   0.704   1.821
 3549SOL    MW414517   3.318   0.669   1.864
 3550SOL     OW14518   2.453   1.399   2.559
 3550SOL    HW214519   2.518   1.332   2.580
 3550SOL    HW314520   2.505   1.476   2.536
 3550SOL    MW414521   2.468   1.401   2.558
 3551SOL     OW14522   2.714   0.564   2.689
 3551SOL    HW214523   2.654   0.582   2.761
 3551SOL    HW314524   2.748   0.476   2.708
 3551SOL    MW414525   2.710   0.554   2.702
 3552SOL     OW14526   3.655   0.063   3.358
 3552SOL    HW214527   3.576   0.109   3.386
 3552SOL    HW314528   3.690   0.117   3.287
 3552SOL    MW414529   3.649   0.076   3.352
 3553SOL     OW14530   2.939   1.147   2.708
 3553SOL    HW214531   3.031   1.128   2.726
 3553SOL    HW314532   2.912   1.077   2.648
 3553SOL    MW414533   2.947   1.135   2.702
 3554SOL     OW14534   2.732   0.967   2.063
 3554SOL    HW214535   2.718   0.879   2.028
 3554SOL    HW314536   2.683   1.024   2.004
 3554SOL    MW414537   2.724   0.962   2.051
 3555SOL     OW14538   3.213   1.385   2.804
 3555SOL    HW214539   3.186   1.469   2.769
 3555SOL    HW314540   3.173   1.380   2.891
 3555SOL    MW414541   3.206   1.394   2.810
 3556SOL     OW14542   3.132   1.333   3.072
 3556SOL    HW214543   3.143   1.300   3.161
 3556SOL    HW314544   3.051   1.292   3.041
 3556SOL    MW414545   3.122   1.325   3.078
 3557SOL     OW14546   2.145   0.691   2.842
 3557SOL    HW214547   2.095   0.690   2.923
 3557SOL    HW314548   2.165   0.783   2.826
 3557SOL    MW414549   2.141   0.703   2.850
 3558SOL     OW14550   3.212   1.455   3.604
 3558SOL    HW214551   3.212   1.549   3.620
 3558SOL    HW314552   3.257   1.445   3.520
 3558SOL    MW414553   3.218   1.465   3.595
 3559SOL     OW14554   3.451   0.173   2.165
 3559SOL    HW214555   3.444   0.177   2.260
 3559SOL    HW314556   3.463   0.264   2.138
 3559SOL    MW414557   3.452   0.186   2.173
 3560SOL     OW14558   2.740   0.736   2.279
 3560SOL    HW214559   2.720   0.722   2.186
 3560SOL    HW314560   2.833   0.715   2.286
 3560SOL    MW414561   2.750   0.731   2.268
 3561SOL     OW14562   2.067   0.359   3.583
 3561SOL    HW214563   2.024   0.418   3.520
 3561SOL    HW314564   2.135   0.414   3.623
 3561SOL    MW414565   2.071   0.374   3.580
 3562SOL     OW14566   3.179   0.979   3.128
 3562SOL    HW214567   3.242   0.976   3.201
 3562SOL    HW314568   3.095   0.997   3.170
 3562SOL    MW414569   3.175   0.981   3.143
 3563SOL     OW14570   2.723   1.694   2.317
 3563SOL    HW214571   2.781   1.765   2.344
 3563SOL    HW314572   2.746   1.622   2.375
 3563SOL    MW414573   2.734   1.694   2.328
 3564SOL     OW14574   3.518   0.156   2.907
 3564SOL    HW214575   3.563   0.074   2.926
 3564SOL    HW314576   3.538   0.212   2.983
 3564SOL    MW414577   3.528   0.152   2.919
 3565SOL     OW14578   1.966  -0.001   3.006
 3565SOL    HW214579   1.957   0.000   2.911
 3565SOL    HW314580   2.060   0.011   3.021
 3565SOL    MW414581   1.978   0.002   2.997
 3566SOL     OW14582   3.603   1.192   2.626
 3566SOL    HW214583   3.582   1.138   2.549
 3566SOL    HW314584   3.699   1.190   2.630
 3566SOL    MW414585   3.612   1.185   2.615
 3567SOL     OW14586   2.295   1.337   3.369
 3567SOL    HW214587   2.216   1.287   3.392
 3567SOL    HW314588   2.365   1.296   3.419
 3567SOL    MW414589   2.293   1.325   3.379
 3568SOL     OW14590   2.179   0.126   2.052
 3568SOL    HW214591   2.108   0.181   2.020
 3568SOL    HW314592   2.221   0.092   1.973
 3568SOL    MW414593   2.175   0.128   2.038
 3569SOL     OW14594   3.303   0.623   2.888
 3569SOL    HW214595   3.226   0.669   2.854
 3569SOL    HW314596   3.360   0.692   2.922
 3569SOL    MW414597   3.300   0.638   2.888
 3570SOL     OW14598   1.935   0.225   1.901
 3570SOL    HW214599   1.902   0.304   1.945
 3570SOL    HW314600   1.990   0.258   1.830
 3570SOL    MW414601   1.938   0.239   1.898
 3571SOL     OW14602   1.969   1.482   2.090
 3571SOL    HW214603   1.986   1.566   2.132
 3571SOL    HW314604   2.004   1.491   2.002
 3571SOL    MW414605   1.974   1.495   2.084
 3572SOL     OW14606   3.241   1.571   2.307
 3572SOL    HW214607   3.304   1.561   2.236
 3572SOL    HW314608   3.158   1.591   2.262
 3572SOL    MW414609   3.238   1.572   2.292
 3573SOL     OW14610   3.604   0.839   3.993
 3573SOL    HW214611   3.645   0.781   4.058
 3573SOL    HW314612   3.511   0.831   4.010
 3573SOL    MW414613   3.598   0.831   4.003
 3574SOL     OW14614   3.470   0.771   4.988
 3574SOL    HW214615   3.425   0.838   5.039
 3574SOL    HW314616   3.558   0.807   4.974
 3574SOL    MW414617   3.476   0.784   4.992
 3575SOL     OW14618   2.398   1.022   4.222
 3575SOL    HW214619   2.488   0.997   4.206
 3575SOL    HW314620   2.394   1.115   4.199
 3575SOL    MW414621   2.410   1.031   4.217
 3576SOL     OW14622   3.514   1.725   4.364
 3576SOL    HW214623   3.526   1.671   4.442
 3576SOL    HW314624   3.551   1.673   4.293
 3576SOL    MW414625   3.520   1.710   4.365
 3577SOL     OW14626   2.893   1.610   5.365
 3577SOL    HW214627   2.934   1.646   5.286
 3577SOL    HW314628   2.928   1.521   5.372
 3577SOL    MW414629   2.904   1.603   5.356
 3578SOL     OW14630   3.450   1.165   4.969
 3578SOL    HW214631   3.371   1.130   4.927
 3578SOL    HW314632   3.477   1.237   4.913
 3578SOL    MW414633   3.443   1.170   4.956
 3579SOL     OW14634   2.682   0.478   4.235
 3579SOL    HW214635   2.657   0.566   4.263
 3579SOL    HW314636   2.679   0.481   4.139
 3579SOL    MW414637   2.678   0.490   4.227
 3580SOL     OW14638   2.124   0.506   4.163
 3580SOL    HW214639   2.156   0.594   4.145
 3580SOL    HW314640   2.112   0.504   4.258
 3580SOL    MW414641   2.127   0.518   4.175
 3581SOL     OW14642   2.202   0.919   5.064
 3581SOL    HW214643   2.265   0.866   5.015
 3581SOL    HW314644   2.183   0.993   5.007
 3581SOL    MW414645   2.208   0.921   5.051
 3582SOL     OW14646   2.523   0.261   4.250
 3582SOL    HW214647   2.581   0.337   4.252
 3582SOL    HW314648   2.458   0.282   4.183
 3582SOL    MW414649   2.522   0.273   4.241
 3583SOL     OW14650   2.610   1.188   4.425
 3583SOL    HW214651   2.690   1.191   4.477
 3583SOL    HW314652   2.638   1.155   4.339
 3583SOL    MW414653   2.624   1.184   4.420
 3584SOL     OW14654   2.635   1.529   5.328
 3584SOL    HW214655   2.719   1.555   5.367
 3584SOL    HW314656   2.659   1.473   5.254
 3584SOL    MW414657   2.649   1.525   5.323
 3585SOL     OW14658   2.387   0.692   4.416
 3585SOL    HW214659   2.372   0.612   4.467
 3585SOL    HW314660   2.469   0.727   4.450
 3585SOL    MW414661   2.395   0.684   4.428
 3586SOL     OW14662   2.724   1.378   5.101
 3586SOL    HW214663   2.688   1.444   5.041
 3586SOL    HW314664   2.652   1.316   5.114
 3586SOL    MW414665   2.710   1.378   5.095
 3587SOL     OW14666   2.529   0.518   4.793
 3587SOL    HW214667   2.435   0.514   4.811
 3587SOL    HW314668   2.559   0.427   4.802
 3587SOL    MW414669   2.520   0.506   4.796
 3588SOL     OW14670   2.275   0.932   4.697
 3588SOL    HW214671   2.230   0.939   4.613
 3588SOL    HW314672   2.255   1.015   4.741
 3588SOL    MW414673   2.267   0.944   4.691
 3589SOL     OW14674   1.972   1.778   4.572
 3589SOL    HW214675   2.061   1.770   4.607
 3589SOL    HW314676   1.936   1.690   4.577
 3589SOL    MW414677   1.979   1.765   4.577
 3590SOL     OW14678   3.237   1.170   3.941
 3590SOL    HW214679   3.155   1.206   3.907
 3590SOL    HW314680   3.305   1.213   3.890
 3590SOL    MW414681   3.235   1.180   3.929
 3591SOL     OW14682   2.236   1.305   4.607
 3591SOL    HW214683   2.212   1.358   4.683
 3591SOL    HW314684   2.292   1.363   4.555
 3591SOL    MW414685   2.240   1.320   4.610
 3592SOL     OW14686   2.798   0.949   4.417
 3592SOL    HW214687   2.712   0.936   4.457
 3592SOL    HW314688   2.851   0.876   4.449
 3592SOL    MW414689   2.794   0.938   4.426
 3593SOL     OW14690   2.206   1.601   5.202
 3593SOL    HW214691   2.114   1.577   5.187
 3593SOL    HW314692   2.250   1.518   5.219
 3593SOL    MW414693   2.200   1.586   5.201
 3594SOL     OW14694   2.789   1.311   4.134
 3594SOL    HW214695   2.766   1.373   4.202
 3594SOL    HW314696   2.746   1.229   4.160
 3594SOL    MW414697   2.781   1.307   4.145
 3595SOL     OW14698   3.662   0.312   4.590
 3595SOL    HW214699   3.599   0.292   4.659
 3595SOL    HW314700   3.652   0.241   4.527
 3595SOL    MW414701   3.652   0.299   4.591
 3596SOL     OW14702   2.286   0.284   4.102
 3596SOL    HW214703   2.260   0.246   4.018
 3596SOL    HW314704   2.223   0.354   4.118
 3596SOL    MW414705   2.275   0.287   4.093
 3597SOL     OW14706   2.121   1.245   4.139
 3597SOL    HW214707   2.069   1.313   4.095
 3597SOL    HW314708   2.118   1.171   4.079
 3597SOL    MW414709   2.113   1.244   4.126
 3598SOL     OW14710   2.783   1.708   3.917
 3598SOL    HW214711   2.738   1.724   4.000
 3598SOL    HW314712   2.714   1.673   3.859
 3598SOL    MW414713   2.769   1.705   3.919
 3599SOL     OW14714   3.718   0.481   3.892
 3599SOL    HW214715   3.627   0.483   3.920
 3599SOL    HW314716   3.763   0.543   3.950
 3599SOL    MW414717   3.711   0.489   3.902
 3600SOL     OW14718   3.463   1.084   4.242
 3600SOL    HW214719   3.373   1.084   4.277
 3600SOL    HW314720   3.456   1.130   4.159
 3600SOL    MW414721   3.450   1.090   4.236
 3601SOL     OW14722   3.263   0.719   5.314
 3601SOL    HW214723   3.332   0.657   5.291
 3601SOL    HW314724   3.188   0.693   5.261
 3601SOL    MW414725   3.263   0.706   5.305
 3602SOL     OW14726   2.004   1.599   4.866
 3602SOL    HW214727   1.987   1.545   4.943
 3602SOL    HW314728   1.992   1.689   4.896
 3602SOL    MW414729   2.001   1.603   4.880
 3603SOL     OW14730   2.999   1.106   5.306
 3603SOL    HW214731   2.984   1.199   5.291
 3603SOL    HW314732   3.094   1.096   5.306
 3603SOL    MW414733   3.008   1.116   5.303
 3604SOL     OW14734   2.795   0.530   5.507
 3604SOL    HW214735   2.885   0.531   5.474
 3604SOL    HW314736   2.754   0.455   5.465
 3604SOL    MW414737   2.801   0.520   5.498
 3605SOL     OW14738   3.370   1.062   4.634
 3605SOL    HW214739   3.373   0.996   4.565
 3605SOL    HW314740   3.455   1.105   4.630
 3605SOL    MW414741   3.382   1.058   4.625
 3606SOL     OW14742   2.990   0.665   4.203
 3606SOL    HW214743   3.016   0.689   4.114
 3606SOL    HW314744   2.972   0.572   4.199
 3606SOL    MW414745   2.992   0.657   4.190
 3607SOL     OW14746   3.655   1.285   4.054
 3607SOL    HW214747   3.611   1.326   4.129
 3607SOL    HW314748   3.712   1.353   4.019
 3607SOL    MW414749   3.657   1.299   4.059
 3608SOL     OW14750   2.575   0.334   5.457
 3608SOL    HW214751   2.585   0.260   5.397
 3608SOL    HW314752   2.611   0.303   5.540
 3608SOL    MW414753   2.581   0.320   5.459
 3609SOL     OW14754   2.311   1.701   4.372
 3609SOL    HW214755   2.343   1.789   4.350
 3609SOL    HW314756   2.264   1.673   4.294
 3609SOL    MW414757   2.310   1.709   4.359
 3610SOL     OW14758   3.695   0.063   4.421
 3610SOL    HW214759   3.749   0.014   4.483
 3610SOL    HW314760   3.638  -0.003   4.382
 3610SOL    MW414761   3.695   0.047   4.423
 3611SOL     OW14762   2.027   1.761   3.949
 3611SOL    HW214763   2.056   1.851   3.941
 3611SOL    HW314764   1.977   1.744   3.870
 3611SOL    MW414765   2.025   1.769   3.938
 3612SOL     OW14766   2.814   0.016   4.834
 3612SOL    HW214767   2.773   0.094   4.796
 3612SOL    HW314768   2.908   0.034   4.829
 3612SOL    MW414769   2.820   0.028   4.829
 3613SOL     OW14770   3.431   1.569   3.920
 3613SOL    HW214771   3.479   1.638   3.966
 3613SOL    HW314772   3.352   1.613   3.889
 3613SOL    MW414773   3.426   1.583   3.923
 3614SOL     OW14774   2.829   0.694   3.864
 3614SOL    HW214775   2.831   0.641   3.785
 3614SOL    HW314776   2.917   0.731   3.870
 3614SOL    MW414777   2.841   0.693   3.853
 3615SOL     OW14778   3.443   0.620   4.200
 3615SOL    HW214779   3.482   0.620   4.287
 3615SOL    HW314780   3.384   0.696   4.200
 3615SOL    MW414781   3.440   0.631   4.211
 3616SOL     OW14782   2.760   0.987   5.329
 3616SOL    HW214783   2.737   0.967   5.419
 3616SOL    HW314784   2.845   1.031   5.334
 3616SOL    MW414785   2.767   0.990   5.341
 3617SOL     OW14786   2.840   0.124   5.089
 3617SOL    HW214787   2.846   0.086   5.002
 3617SOL    HW314788   2.829   0.218   5.074
 3617SOL    MW414789   2.841   0.132   5.077
 3618SOL     OW14790   2.929   0.613   4.923
 3618SOL    HW214791   3.004   0.642   4.870
 3618SOL    HW314792   2.861   0.678   4.907
 3618SOL    MW414793   2.930   0.625   4.913
 3619SOL     OW14794   3.479   0.581   5.200
 3619SOL    HW214795   3.460   0.490   5.179
 3619SOL    HW314796   3.457   0.630   5.121
 3619SOL    MW414797   3.474   0.574   5.187
 3620SOL     OW14798   3.621   1.675   5.104
 3620SOL    HW214799   3.549   1.637   5.155
 3620SOL    HW314800   3.638   1.760   5.145
 3620SOL    MW414801   3.615   1.680   5.116
 3621SOL     OW14802   2.926   0.319   5.306
 3621SOL    HW214803   2.892   0.358   5.225
 3621SOL    HW314804   2.904   0.227   5.299
 3621SOL    MW414805   2.919   0.312   5.296
 3622SOL     OW14806   3.335   1.133   5.382
 3622SOL    HW214807   3.417   1.174   5.412
 3622SOL    HW314808   3.298   1.095   5.462
 3622SOL    MW414809   3.341   1.134   5.397
 3623SOL     OW14810   3.630   0.506   4.366
 3623SOL    HW214811   3.719   0.475   4.383
 3623SOL    HW314812   3.573   0.446   4.414
 3623SOL    MW414813   3.633   0.494   4.375
 3624SOL     OW14814   2.056   0.220   4.395
 3624SOL    HW214815   2.047   0.160   4.321
 3624SOL    HW314816   1.989   0.191   4.458
 3624SOL    MW414817   2.046   0.207   4.393
 3625SOL     OW14818   2.999   1.313   3.956
 3625SOL    HW214819   2.949   1.315   4.038
 3625SOL    HW314820   2.933   1.331   3.888
 3625SOL    MW414821   2.985   1.315   3.958
 3626SOL     OW14822   2.003   0.393   4.758
 3626SOL    HW214823   1.975   0.484   4.767
 3626SOL    HW314824   1.940   0.354   4.697
 3626SOL    MW414825   1.990   0.399   4.752
 3627SOL     OW14826   2.462   1.731   4.064
 3627SOL    HW214827   2.383   1.689   4.097
 3627SOL    HW314828   2.528   1.714   4.131
 3627SOL    MW414829   2.461   1.723   4.077
 3628SOL     OW14830   3.590   1.251   5.461
 3628SOL    HW214831   3.640   1.177   5.493
 3628SOL    HW314832   3.536   1.278   5.536
 3628SOL    MW414833   3.590   1.245   5.474
 3629SOL     OW14834   2.598   1.146   3.771
 3629SOL    HW214835   2.520   1.092   3.758
 3629SOL    HW314836   2.569   1.219   3.824
 3629SOL    MW414837   2.584   1.148   3.776
 3630SOL     OW14838   3.724   0.886   4.963
 3630SOL    HW214839   3.740   0.924   4.876
 3630SOL    HW314840   3.758   0.952   5.024
 3630SOL    MW414841   3.731   0.899   4.959
 3631SOL     OW14842   3.516   1.595   4.632
 3631SOL    HW214843   3.545   1.662   4.693
 3631SOL    HW314844   3.497   1.519   4.687
 3631SOL    MW414845   3.518   1.595   4.647
 3632SOL     OW14846   3.179   1.662   3.839
 3632SOL    HW214847   3.105   1.625   3.889
 3632SOL    HW314848   3.187   1.752   3.872
 3632SOL    MW414849   3.170   1.669   3.851
 3633SOL     OW14850   1.987   0.668   4.928
 3633SOL    HW214851   2.049   0.698   4.994
 3633SOL    HW314852   1.921   0.737   4.922
 3633SOL    MW414853   1.986   0.681   4.935
 3634SOL     OW14854   3.403   1.336   3.781
 3634SOL    HW214855   3.350   1.385   3.717
 3634SOL    HW314856   3.434   1.402   3.842
 3634SOL    MW414857   3.401   1.350   3.779
 3635SOL     OW14858   2.628   0.225   3.836
 3635SOL    HW214859   2.576   0.145   3.824
 3635SOL    HW314860   2.715   0.202   3.804
 3635SOL    MW414861   2.631   0.211   3.830
 3636SOL     OW14862   2.082   1.777   5.380
 3636SOL    HW214863   2.056   1.845   5.318
 3636SOL    HW314864   2.130   1.714   5.328
 3636SOL    MW414865   2.084   1.777   5.366
 3637SOL     OW14866   2.134   1.096   4.887
 3637SOL    HW214867   2.187   1.171   4.912
 3637SOL    HW314868   2.053   1.134   4.853
 3637SOL    MW414869   2.130   1.111   4.887
 3638SOL     OW14870   2.674   1.000   4.875
 3638SOL    HW214871   2.702   0.909   4.887
 3638SOL    HW314872   2.603   0.994   4.811
 3638SOL    MW414873   2.667   0.988   4.870
 3639SOL     OW14874   1.989   0.865   4.293
 3639SOL    HW214875   2.080   0.880   4.320
 3639SOL    HW314876   1.992   0.786   4.239
 3639SOL    MW414877   2.001   0.857   4.291
 3640SOL     OW14878   2.225   0.573   5.547
 3640SOL    HW214879   2.172   0.653   5.554
 3640SOL    HW314880   2.295   0.585   5.612
 3640SOL    MW414881   2.227   0.586   5.555
 3641SOL     OW14882   2.611   0.123   5.254
 3641SOL    HW214883   2.588   0.031   5.256
 3641SOL    HW314884   2.697   0.125   5.211
 3641SOL    MW414885   2.618   0.113   5.250
 3642SOL     OW14886   2.295   0.647   5.293
 3642SOL    HW214887   2.375   0.697   5.279
 3642SOL    HW314888   2.286   0.641   5.388
 3642SOL    MW414889   2.304   0.653   5.303
 3643SOL     OW14890   2.616   1.797   4.667
 3643SOL    HW214891   2.705   1.812   4.697
 3643SOL    HW314892   2.611   1.844   4.583
 3643SOL    MW414893   2.626   1.805   4.660
 3644SOL     OW14894   3.272   0.172   5.564
 3644SOL    HW214895   3.328   0.099   5.590
 3644SOL    HW314896   3.242   0.210   5.646
 3644SOL    MW414897   3.276   0.167   5.577
 3645SOL     OW14898   1.997   1.477   4.332
 3645SOL    HW214899   1.969   1.516   4.414
 3645SOL    HW314900   2.017   1.386   4.354
 3645SOL    MW414901   1.995   1.469   4.345
 3646SOL     OW14902   2.830   1.520   4.367
 3646SOL    HW214903   2.913   1.474   4.351
 3646SOL    HW314904   2.820   1.519   4.463
 3646SOL    MW414905   2.840   1.513   4.377
 3647SOL     OW14906   3.662   0.665   4.681
 3647SOL    HW214907   3.751   0.695   4.663
 3647SOL    HW314908   3.642   0.605   4.610
 3647SOL    MW414909   3.671   0.662   4.670
 3648SOL     OW14910   3.513   0.844   5.561
 3648SOL    HW214911   3.568   0.768   5.542
 3648SOL    HW314912   3.515   0.852   5.656
 3648SOL    MW414913   3.521   0.835   5.569
 3649SOL     OW14914   2.563   1.577   3.772
 3649SOL    HW214915   2.503   1.646   3.742
 3649SOL    HW314916   2.508   1.519   3.825
 3649SOL    MW414917   2.547   1.579   3.774
 3650SOL     OW14918   3.001   0.222   3.995
 3650SOL    HW214919   2.934   0.198   3.932
 3650SOL    HW314920   3.066   0.271   3.944
 3650SOL    MW414921   3.001   0.224   3.980
 3651SOL     OW14922   2.808   0.406   5.080
 3651SOL    HW214923   2.727   0.447   5.108
 3651SOL    HW314924   2.855   0.474   5.032
 3651SOL    MW414925   2.803   0.421   5.078
 3652SOL     OW14926   3.068   0.744   4.703
 3652SOL    HW214927   3.081   0.838   4.713
 3652SOL    HW314928   3.029   0.734   4.617
 3652SOL    MW414929   3.064   0.755   4.693
 3653SOL     OW14930   2.520   0.939   4.507
 3653SOL    HW214931   2.431   0.930   4.540
 3653SOL    HW314932   2.524   1.029   4.475
 3653SOL    MW414933   2.509   0.950   4.507
 3654SOL     OW14934   3.319   0.522   4.502
 3654SOL    HW214935   3.264   0.443   4.501
 3654SOL    HW314936   3.301   0.563   4.586
 3654SOL    MW414937   3.309   0.517   4.511
 3655SOL     OW14938   2.290   0.209   5.319
 3655SOL    HW214939   2.211   0.227   5.371
 3655SOL    HW314940   2.285   0.271   5.246
 3655SOL    MW414941   2.280   0.219   5.316
 3656SOL     OW14942   2.938   0.726   4.459
 3656SOL    HW214943   2.875   0.658   4.483
 3656SOL    HW314944   2.958   0.707   4.367
 3656SOL    MW414945   2.932   0.713   4.451
 3657SOL     OW14946   2.194   1.621   4.161
 3657SOL    HW214947   2.155   1.668   4.087
 3657SOL    HW314948   2.128   1.556   4.186
 3657SOL    MW414949   2.181   1.619   4.155
 3658SOL     OW14950   2.686   1.030   4.185
 3658SOL    HW214951   2.688   1.004   4.092
 3658SOL    HW314952   2.744   0.967   4.228
 3658SOL    MW414953   2.694   1.019   4.179
 3659SOL     OW14954   3.239   1.590   4.957
 3659SOL    HW214955   3.164   1.636   4.995
 3659SOL    HW314956   3.221   1.497   4.974
 3659SOL    MW414957   3.228   1.584   4.965
 3660SOL     OW14958   3.243   1.798   4.387
 3660SOL    HW214959   3.186   1.751   4.326
 3660SOL    HW314960   3.329   1.759   4.374
 3660SOL    MW414961   3.246   1.789   4.377
 3661SOL     OW14962   3.196   0.274   4.518
 3661SOL    HW214963   3.224   0.206   4.579
 3661SOL    HW314964   3.110   0.245   4.488
 3661SOL    MW414965   3.189   0.261   4.522
 3662SOL     OW14966   2.001   1.208   4.452
 3662SOL    HW214967   2.065   1.240   4.515
 3662SOL    HW314968   2.050   1.144   4.400
 3662SOL    MW414969   2.016   1.204   4.453
 3663SOL     OW14970   2.501   1.284   5.434
 3663SOL    HW214971   2.549   1.367   5.421
 3663SOL    HW314972   2.558   1.232   5.490
 3663SOL    MW414973   2.515   1.288   5.440
 3664SOL     OW14974   2.077   1.526   5.574
 3664SOL    HW214975   2.133   1.450   5.589
 3664SOL    HW314976   2.026   1.504   5.496
 3664SOL    MW414977   2.077   1.513   5.565
 3665SOL     OW14978   3.176   0.378   3.853
 3665SOL    HW214979   3.149   0.444   3.789
 3665SOL    HW314980   3.246   0.421   3.903
 3665SOL    MW414981   3.181   0.391   3.850
 3666SOL     OW14982   2.844   0.083   3.790
 3666SOL    HW214983   2.900   0.075   3.712
 3666SOL    HW314984   2.821  -0.007   3.812
 3666SOL    MW414985   2.849   0.070   3.783
 3667SOL     OW14986   3.349   0.934   3.995
 3667SOL    HW214987   3.316   1.023   3.985
 3667SOL    HW314988   3.314   0.905   4.080
 3667SOL    MW414989   3.339   0.943   4.006
 3668SOL     OW14990   2.962   1.363   5.183
 3668SOL    HW214991   2.873   1.369   5.151
 3668SOL    HW314992   3.006   1.442   5.151
 3668SOL    MW414993   2.957   1.373   5.175
 3669SOL     OW14994   2.255   0.031   5.525
 3669SOL    HW214995   2.183  -0.004   5.473
 3669SOL    HW314996   2.313   0.072   5.460
 3669SOL    MW414997   2.253   0.032   5.510
 3670SOL     OW14998   2.279   1.521   4.824
 3670SOL    HW214999   2.324   1.583   4.881
 3670SOL    HW315000   2.186   1.540   4.837
 3670SOL    MW415001   2.272   1.531   4.831
 3671SOL     OW15002   3.719   1.050   5.178
 3671SOL    HW215003   3.634   1.063   5.137
 3671SOL    HW315004   3.699   1.014   5.265
 3671SOL    MW415005   3.706   1.046   5.183
 3672SOL     OW15006   2.701   1.589   4.932
 3672SOL    HW215007   2.725   1.578   4.841
 3672SOL    HW315008   2.624   1.646   4.930
 3672SOL    MW415009   2.693   1.594   4.921
 3673SOL     OW15010   2.343   0.972   3.787
 3673SOL    HW215011   2.266   0.985   3.843
 3673SOL    HW315012   2.307   0.936   3.706
 3673SOL    MW415013   2.329   0.968   3.784
 3674SOL     OW15014   2.996   0.945   4.030
 3674SOL    HW215015   2.906   0.966   4.005
 3674SOL    HW315016   3.023   1.018   4.086
 3674SOL    MW415017   2.988   0.957   4.033
 3675SOL     OW15018   2.496   1.294   4.722
 3675SOL    HW215019   2.489   1.273   4.816
 3675SOL    HW315020   2.414   1.262   4.685
 3675SOL    MW415021   2.484   1.288   4.729
 3676SOL     OW15022   3.360   0.304   5.124
 3676SOL    HW215023   3.307   0.306   5.204
 3676SOL    HW315024   3.345   0.217   5.087
 3676SOL    MW415025   3.352   0.294   5.129
 3677SOL     OW15026   3.696   0.228   4.997
 3677SOL    HW215027   3.677   0.295   4.932
 3677SOL    HW315028   3.753   0.166   4.952
 3677SOL    MW415029   3.700   0.229   4.983
 3678SOL     OW15030   1.942   1.386   5.385
 3678SOL    HW215031   1.986   1.319   5.331
 3678SOL    HW315032   1.857   1.348   5.405
 3678SOL    MW415033   1.937   1.372   5.381
 3679SOL     OW15034   2.625   0.061   4.437
 3679SOL    HW215035   2.554   0.122   4.419
 3679SOL    HW315036   2.676   0.058   4.356
 3679SOL    MW415037   2.621   0.067   4.424
 3680SOL     OW15038   2.383   1.301   4.186
 3680SOL    HW215039   2.376   1.333   4.276
 3680SOL    HW315040   2.293   1.285   4.158
 3680SOL    MW415041   2.371   1.303   4.193
 3681SOL     OW15042   2.978   1.694   5.095
 3681SOL    HW215043   2.898   1.679   5.045
 3681SOL    HW315044   2.985   1.789   5.102
 3681SOL    MW415045   2.969   1.705   5.089
 3682SOL     OW15046   3.092   1.659   4.585
 3682SOL    HW215047   3.139   1.732   4.544
 3682SOL    HW315048   3.013   1.698   4.621
 3682SOL    MW415049   3.087   1.674   4.584
 3683SOL     OW15050   3.500   1.754   4.860
 3683SOL    HW215051   3.543   1.724   4.940
 3683SOL    HW315052   3.419   1.702   4.857
 3683SOL    MW415053   3.495   1.743   4.870
 3684SOL     OW15054   2.585   0.718   5.567
 3684SOL    HW215055   2.655   0.660   5.539
 3684SOL    HW315056   2.528   0.663   5.622
 3684SOL    MW415057   2.587   0.705   5.571
 3685SOL     OW15058   3.372   0.930   5.200
 3685SOL    HW215059   3.377   0.983   5.280
 3685SOL    HW315060   3.334   0.847   5.228
 3685SOL    MW415061   3.368   0.925   5.215
 3686SOL     OW15062   3.012   0.065   5.446
 3686SOL    HW215063   3.007  -0.028   5.427
 3686SOL    HW315064   3.095   0.076   5.492
 3686SOL    MW415065   3.020   0.054   5.450
 3687SOL     OW15066   2.386   0.585   3.900
 3687SOL    HW215067   2.352   0.641   3.970
 3687SOL    HW315068   2.457   0.535   3.940
 3687SOL    MW415069   2.392   0.586   3.914
 3688SOL     OW15070   3.482   1.336   4.722
 3688SOL    HW215071   3.517   1.318   4.635
 3688SOL    HW315072   3.387   1.337   4.709
 3688SOL    MW415073   3.474   1.333   4.709
 3689SOL     OW15074   2.911   0.984   5.091
 3689SOL    HW215075   2.954   1.019   5.169
 3689SOL    HW315076   2.894   1.061   5.037
 3689SOL    MW415077   2.914   0.999   5.094
 3690SOL     OW15078   3.442   0.471   3.964
 3690SOL    HW215079   3.434   0.542   3.901
 3690SOL    HW315080   3.460   0.515   4.047
 3690SOL    MW415081   3.443   0.485   3.966
 3691SOL     OW15082   2.302   0.126   4.393
 3691SOL    HW215083   2.352   0.169   4.324
 3691SOL    HW315084   2.217   0.170   4.393
 3691SOL    MW415085   2.299   0.139   4.384
 3692SOL     OW15086   2.061   1.188   5.253
 3692SOL    HW215087   2.089   1.141   5.331
 3692SOL    HW315088   1.982   1.143   5.224
 3692SOL    MW415089   2.054   1.177   5.259
 3693SOL     OW15090   2.569   0.515   5.220
 3693SOL    HW215091   2.541   0.603   5.244
 3693SOL    HW315092   2.538   0.459   5.291
 3693SOL    MW415093   2.561   0.518   5.232
 3694SOL     OW15094   3.111   0.733   3.939
 3694SOL    HW215095   3.158   0.751   3.858
 3694SOL    HW315096   3.077   0.817   3.967
 3694SOL    MW415097   3.113   0.747   3.932
 3695SOL     OW15098   2.224   0.911   4.433
 3695SOL    HW215099   2.282   0.967   4.381
 3695SOL    HW315100   2.268   0.826   4.435
 3695SOL    MW415101   2.237   0.908   4.426
 3696SOL     OW15102   3.364   0.263   4.270
 3696SOL    HW215103   3.286   0.213   4.295
 3696SOL    HW315104   3.335   0.354   4.270
 3696SOL    MW415105   3.350   0.267   4.273
 3697SOL     OW15106   2.950   0.225   4.429
 3697SOL    HW215107   2.970   0.300   4.373
 3697SOL    HW315108   2.930   0.264   4.514
 3697SOL    MW415109   2.951   0.241   4.433
 3698SOL     OW15110   2.846   1.475   3.761
 3698SOL    HW215111   2.873   1.553   3.713
 3698SOL    HW315112   2.753   1.490   3.780
 3698SOL    MW415113   2.837   1.488   3.757
 3699SOL     OW15114   3.710   0.998   5.448
 3699SOL    HW215115   3.623   0.978   5.484
 3699SOL    HW315116   3.764   0.924   5.473
 3699SOL    MW415117   3.705   0.987   5.456
 3700SOL     OW15118   1.931   1.511   4.605
 3700SOL    HW215119   1.963   1.515   4.696
 3700SOL    HW315120   1.836   1.519   4.613
 3700SOL    MW415121   1.923   1.514   4.618
 3701SOL     OW15122   1.886   0.637   4.152
 3701SOL    HW215123   1.826   0.609   4.222
 3701SOL    HW315124   1.960   0.577   4.158
 3701SOL    MW415125   1.888   0.626   4.161
 3702SOL     OW15126   3.454   1.849   5.586
 3702SOL    HW215127   3.499   1.773   5.551
 3702SOL    HW315128   3.492   1.862   5.673
 3702SOL    MW415129   3.464   1.842   5.592
 3703SOL     OW15130   3.054   1.368   4.312
 3703SOL    HW215131   3.077   1.319   4.390
 3703SOL    HW315132   3.135   1.410   4.284
 3703SOL    MW415133   3.067   1.368   4.319
 3704SOL     OW15134   2.312   0.376   5.041
 3704SOL    HW215135   2.345   0.457   5.081
 3704SOL    HW315136   2.285   0.402   4.953
 3704SOL    MW415137   2.311   0.390   5.035
 3705SOL     OW15138   2.266   0.343   4.777
 3705SOL    HW215139   2.296   0.257   4.748
 3705SOL    HW315140   2.171   0.336   4.780
 3705SOL    MW415141   2.258   0.332   4.775
 3706SOL     OW15142   3.095   0.552   5.468
 3706SOL    HW215143   3.147   0.487   5.421
 3706SOL    HW315144   3.053   0.603   5.398
 3706SOL    MW415145   3.096   0.549   5.451
 3707SOL     OW15146   3.194   0.347   5.329
 3707SOL    HW215147   3.101   0.331   5.316
 3707SOL    HW315148   3.220   0.285   5.397
 3707SOL    MW415149   3.184   0.337   5.336
 3708SOL     OW15150   2.409   0.121   4.668
 3708SOL    HW215151   2.419   0.030   4.694
 3708SOL    HW315152   2.365   0.117   4.583
 3708SOL    MW415153   2.405   0.109   4.660
 3709SOL     OW15154   2.503   1.736   5.214
 3709SOL    HW215155   2.420   1.721   5.259
 3709SOL    HW315156   2.562   1.669   5.249
 3709SOL    MW415157   2.501   1.726   5.224
 3710SOL     OW15158   3.560   0.443   4.839
 3710SOL    HW215159   3.493   0.476   4.899
 3710SOL    HW315160   3.603   0.521   4.805
 3710SOL    MW415161   3.558   0.458   4.843
 3711SOL     OW15162   3.738   1.163   4.809
 3711SOL    HW215163   3.731   1.103   4.734
 3711SOL    HW315164   3.664   1.223   4.798
 3711SOL    MW415165   3.728   1.163   4.798
 3712SOL     OW15166   3.120   1.025   4.727
 3712SOL    HW215167   3.134   0.997   4.818
 3712SOL    HW315168   3.206   1.056   4.699
 3712SOL    MW415169   3.133   1.026   4.736
 3713SOL     OW15170   3.203   0.520   5.006
 3713SOL    HW215171   3.224   0.521   4.913
 3713SOL    HW315172   3.248   0.442   5.039
 3713SOL    MW415173   3.210   0.510   4.998
 3714SOL     OW15174   3.696   0.651   5.548
 3714SOL    HW215175   3.733   0.596   5.617
 3714SOL    HW315176   3.721   0.608   5.466
 3714SOL    MW415177   3.703   0.639   5.547
 3715SOL     OW15178   3.243   0.949   5.600
 3715SOL    HW215179   3.309   0.897   5.554
 3715SOL    HW315180   3.263   0.936   5.693
 3715SOL    MW415181   3.254   0.940   5.607
 3716SOL     OW15182   3.194   0.035   3.948
 3716SOL    HW215183   3.268   0.079   3.991
 3716SOL    HW315184   3.118   0.089   3.970
 3716SOL    MW415185   3.194   0.047   3.956
 3717SOL     OW15186   3.254   0.810   4.226
 3717SOL    HW215187   3.169   0.780   4.196
 3717SOL    HW315188   3.246   0.817   4.321
 3717SOL    MW415189   3.242   0.808   4.235
 3718SOL     OW15190   2.330   1.273   4.957
 3718SOL    HW215191   2.342   1.300   5.048
 3718SOL    HW315192   2.311   1.354   4.910
 3718SOL    MW415193   2.329   1.288   4.962
 3719SOL     OW15194   2.614   0.253   4.780
 3719SOL    HW215195   2.587   0.255   4.871
 3719SOL    HW315196   2.544   0.205   4.735
 3719SOL    MW415197   2.602   0.249   4.787
 3720SOL     OW15198   2.468   1.745   4.942
 3720SOL    HW215199   2.520   1.822   4.919
 3720SOL    HW315200   2.477   1.737   5.037
 3720SOL    MW415201   2.477   1.752   4.953
 3721SOL     OW15202   3.370   1.330   5.174
 3721SOL    HW215203   3.355   1.259   5.237
 3721SOL    HW315204   3.416   1.288   5.102
 3721SOL    MW415205   3.376   1.314   5.174
 3722SOL     OW15206   2.444   1.061   5.291
 3722SOL    HW215207   2.481   1.066   5.203
 3722SOL    HW315208   2.483   1.134   5.338
 3722SOL    MW415209   2.454   1.071   5.286
 3723SOL     OW15210   2.624   1.104   5.103
 3723SOL    HW215211   2.683   1.050   5.156
 3723SOL    HW315212   2.639   1.076   5.013
 3723SOL    MW415213   2.634   1.093   5.099
 3724SOL     OW15214   2.627   0.476   3.952
 3724SOL    HW215215   2.700   0.525   3.915
 3724SOL    HW315216   2.643   0.385   3.926
 3724SOL    MW415217   2.639   0.471   3.945
 3725SOL     OW15218   3.435   1.593   5.275
 3725SOL    HW215219   3.477   1.578   5.360
 3725SOL    HW315220   3.426   1.506   5.237
 3725SOL    MW415221   3.439   1.581   5.282
 3726SOL     OW15222   3.095   0.072   4.866
 3726SOL    HW215223   3.150   0.081   4.788
 3726SOL    HW315224   3.150   0.106   4.937
 3726SOL    MW415225   3.109   0.077   4.865
 3727SOL     OW15226   2.102   0.985   4.050
 3727SOL    HW215227   2.039   1.001   3.979
 3727SOL    HW315228   2.049   0.948   4.121
 3727SOL    MW415229   2.087   0.982   4.050
 3728SOL     OW15230   2.458   1.339   3.909
 3728SOL    HW215231   2.473   1.315   4.001
 3728SOL    HW315232   2.366   1.317   3.893
 3728SOL    MW415233   2.448   1.332   3.919
 3729SOL     OW15234   2.997   1.570   4.061
 3729SOL    HW215235   3.005   1.488   4.012
 3729SOL    HW315236   2.916   1.609   4.028
 3729SOL    MW415237   2.987   1.565   4.051
 3730SOL     OW15238   2.256   1.728   4.630
 3730SOL    HW215239   2.260   1.639   4.665
 3730SOL    HW315240   2.282   1.719   4.539
 3730SOL    MW415241   2.259   1.716   4.622
 3731SOL     OW15242   2.873   1.206   4.873
 3731SOL    HW215243   2.805   1.140   4.889
 3731SOL    HW315244   2.891   1.200   4.780
 3731SOL    MW415245   2.866   1.197   4.864
 3732SOL     OW15246   1.962   1.481   5.124
 3732SOL    HW215247   1.952   1.439   5.210
 3732SOL    HW315248   1.883   1.534   5.114
 3732SOL    MW415249   1.951   1.482   5.135
 3733SOL     OW15250   2.866   0.345   4.694
 3733SOL    HW215251   2.796   0.297   4.739
 3733SOL    HW315252   2.898   0.408   4.758
 3733SOL    MW415253   2.861   0.347   4.708
 3734SOL     OW15254   2.517   0.781   5.314
 3734SOL    HW215255   2.510   0.876   5.302
 3734SOL    HW315256   2.526   0.770   5.409
 3734SOL    MW415257   2.518   0.793   5.324
 3735SOL     OW15258   2.238   1.296   5.572
 3735SOL    HW215259   2.310   1.298   5.509
 3735SOL    HW315260   2.208   1.205   5.571
 3735SOL    MW415261   2.243   1.285   5.564
 3736SOL     OW15262   3.322   0.059   5.039
 3736SOL    HW215263   3.393   0.005   5.003
 3736SOL    HW315264   3.321   0.038   5.132
 3736SOL    MW415265   3.331   0.050   5.047
 3737SOL     OW15266   3.522   1.589   5.523
 3737SOL    HW215267   3.495   1.586   5.614
 3737SOL    HW315268   3.618   1.593   5.526
 3737SOL    MW415269   3.532   1.589   5.535
 3738SOL     OW15270   2.333   0.451   4.507
 3738SOL    HW215271   2.404   0.399   4.470
 3738SOL    HW315272   2.319   0.416   4.594
 3738SOL    MW415273   2.341   0.440   4.514
 3739SOL     OW15274   1.888   1.786   5.579
 3739SOL    HW215275   1.938   1.764   5.501
 3739SOL    HW315276   1.896   1.881   5.587
 3739SOL    MW415277   1.896   1.795   5.570
 3740SOL     OW15278   2.649   1.544   4.583
 3740SOL    HW215279   2.577   1.481   4.596
 3740SOL    HW315280   2.610   1.629   4.601
 3740SOL    MW415281   2.633   1.547   4.586
 3741SOL     OW15282   2.969   0.392   4.231
 3741SOL    HW215283   2.991   0.329   4.163
 3741SOL    HW315284   2.874   0.384   4.242
 3741SOL    MW415285   2.959   0.383   4.223
 3742SOL     OW15286   2.054   0.082   4.163
 3742SOL    HW215287   2.125   0.103   4.102
 3742SOL    HW315288   2.008   0.010   4.121
 3742SOL    MW415289   2.058   0.076   4.149
 3743SOL     OW15290   1.885   0.549   5.306
 3743SOL    HW215291   1.949   0.615   5.281
 3743SOL    HW315292   1.804   0.576   5.263
 3743SOL    MW415293   1.883   0.561   5.298
 3744SOL     OW15294   3.623   1.456   4.263
 3744SOL    HW215295   3.593   1.389   4.324
 3744SOL    HW315296   3.717   1.462   4.277
 3744SOL    MW415297   3.631   1.448   4.273
 3745SOL     OW15298   3.179   1.133   4.193
 3745SOL    HW215299   3.151   1.219   4.226
 3745SOL    HW315300   3.207   1.149   4.103
 3745SOL    MW415301   3.179   1.147   4.185
 3746SOL     OW15302   2.841   0.053   4.246
 3746SOL    HW215303   2.878   0.112   4.311
 3746SOL    HW315304   2.818   0.109   4.172
 3746SOL    MW415305   2.842   0.068   4.245
 3747SOL     OW15306   3.694   0.935   4.668
 3747SOL    HW215307   3.685   0.967   4.579
 3747SOL    HW315308   3.647   0.851   4.668
 3747SOL    MW415309   3.687   0.928   4.658
 3748SOL     OW15310   2.070   0.775   5.247
 3748SOL    HW215311   2.091   0.844   5.185
 3748SOL    HW315312   2.150   0.722   5.252
 3748SOL    MW415313   2.083   0.776   5.241
 3749SOL     OW15314   3.606   0.866   4.369
 3749SOL    HW215315   3.700   0.855   4.357
 3749SOL    HW315316   3.582   0.938   4.310
 3749SOL    MW415317   3.616   0.874   4.360
 3750SOL     OW15318   2.055   0.790   5.514
 3750SOL    HW215319   1.981   0.734   5.540
 3750SOL    HW315320   2.050   0.793   5.419
 3750SOL    MW415321   2.044   0.783   5.504
 3751SOL     OW15322   2.221   0.077   4.964
 3751SOL    HW215323   2.264   0.161   4.984
 3751SOL    HW315324   2.294   0.015   4.957
 3751SOL    MW415325   2.236   0.080   4.965
 3752SOL     OW15326   2.262   0.744   4.142
 3752SOL    HW215327   2.262   0.839   4.127
 3752SOL    HW315328   2.339   0.728   4.196
 3752SOL    MW415329   2.272   0.755   4.147
 3753SOL     OW15330   3.038   0.603   5.206
 3753SOL    HW215331   3.074   0.576   5.122
 3753SOL    HW315332   2.951   0.637   5.185
 3753SOL    MW415333   3.032   0.604   5.193
 3754SOL     OW15334   2.021   0.475   4.431
 3754SOL    HW215335   2.083   0.482   4.504
 3754SOL    HW315336   2.021   0.382   4.408
 3754SOL    MW415337   2.029   0.464   4.438
 3755SOL     OW15338   3.568   1.815   3.963
 3755SOL    HW215339   3.635   1.848   3.903
 3755SOL    HW315340   3.525   1.894   3.997
 3755SOL    MW415341   3.570   1.830   3.959
 3756SOL     OW15342   2.703   0.736   4.915
 3756SOL    HW215343   2.661   0.654   4.891
 3756SOL    HW315344   2.704   0.735   5.011
 3756SOL    MW415345   2.696   0.725   4.924
 3757SOL     OW15346   3.374   1.869   5.314
 3757SOL    HW215347   3.377   1.775   5.297
 3757SOL    HW315348   3.397   1.877   5.406
 3757SOL    MW415349   3.377   1.857   5.324
 3758SOL     OW15350   2.507   0.206   5.020
 3758SOL    HW215351   2.438   0.269   5.041
 3758SOL    HW315352   2.534   0.170   5.105
 3758SOL    MW415353   2.501   0.209   5.033
 3759SOL     OW15354   1.890   1.047   3.889
 3759SOL    HW215355   1.859   1.112   3.952
 3759SOL    HW315356   1.839   0.969   3.908
 3759SOL    MW415357   1.880   1.044   3.899
 3760SOL     OW15358   3.302   0.059   4.637
 3760SOL    HW215359   3.390   0.068   4.674
 3760SOL    HW315360   3.312   0.000   4.563
 3760SOL    MW415361   3.316   0.053   4.631
 3761SOL     OW15362   3.334   0.798   4.481
 3761SOL    HW215363   3.414   0.813   4.430
 3761SOL    HW315364   3.327   0.703   4.487
 3761SOL    MW415365   3.343   0.787   4.476
 3762SOL     OW15366   2.474   1.847   3.831
 3762SOL    HW215367   2.379   1.847   3.823
 3762SOL    HW315368   2.490   1.793   3.909
 3762SOL    MW415369   2.464   1.841   3.840
 3763SOL     OW15370   2.784   0.724   5.178
 3763SOL    HW215371   2.853   0.791   5.175
 3763SOL    HW315372   2.717   0.762   5.234
 3763SOL    MW415373   2.785   0.737   5.185
 3764SOL     OW15374   2.202   1.024   5.426
 3764SOL    HW215375   2.156   0.940   5.428
 3764SOL    HW315376   2.259   1.018   5.350
 3764SOL    MW415377   2.204   1.012   5.418
 3765SOL     OW15378   3.319   0.667   3.747
 3765SOL    HW215379   3.247   0.643   3.689
 3765SOL    HW315380   3.385   0.704   3.689
 3765SOL    MW415381   3.318   0.669   3.732
 3766SOL     OW15382   2.453   1.399   4.427
 3766SOL    HW215383   2.518   1.332   4.448
 3766SOL    HW315384   2.505   1.476   4.404
 3766SOL    MW415385   2.468   1.401   4.426
 3767SOL     OW15386   2.714   0.564   4.557
 3767SOL    HW215387   2.654   0.582   4.629
 3767SOL    HW315388   2.748   0.476   4.576
 3767SOL    MW415389   2.710   0.554   4.570
 3768SOL     OW15390   3.655   0.063   5.226
 3768SOL    HW215391   3.576   0.109   5.254
 3768SOL    HW315392   3.690   0.117   5.155
 3768SOL    MW415393   3.649   0.076   5.220
 3769SOL     OW15394   2.939   1.147   4.576
 3769SOL    HW215395   3.031   1.128   4.594
 3769SOL    HW315396   2.912   1.077   4.516
 3769SOL    MW415397   2.947   1.135   4.570
 3770SOL     OW15398   2.732   0.967   3.931
 3770SOL    HW215399   2.718   0.879   3.896
 3770SOL    HW315400   2.683   1.024   3.872
 3770SOL    MW415401   2.724   0.962   3.919
 3771SOL     OW15402   3.213   1.385   4.672
 3771SOL    HW215403   3.186   1.469   4.637
 3771SOL    HW315404   3.173   1.380   4.759
 3771SOL    MW415405   3.206   1.394   4.678
 3772SOL     OW15406   3.132   1.333   4.940
 3772SOL    HW215407   3.143   1.300   5.029
 3772SOL    HW315408   3.051   1.292   4.909
 3772SOL    MW415409   3.122   1.325   4.946
 3773SOL     OW15410   2.145   0.691   4.710
 3773SOL    HW215411   2.095   0.690   4.791
 3773SOL    HW315412   2.165   0.783   4.694
 3773SOL    MW415413   2.141   0.703   4.718
 3774SOL     OW15414   3.212   1.455   5.472
 3774SOL    HW215415   3.212   1.549   5.488
 3774SOL    HW315416   3.257   1.445   5.388
 3774SOL    MW415417   3.218   1.465   5.463
 3775SOL     OW15418   3.451   0.173   4.033
 3775SOL    HW215419   3.444   0.177   4.128
 3775SOL    HW315420   3.463   0.264   4.006
 3775SOL    MW415421   3.452   0.186   4.041
 3776SOL     OW15422   2.740   0.736   4.147
 3776SOL    HW215423   2.720   0.722   4.054
 3776SOL    HW315424   2.833   0.715   4.154
 3776SOL    MW415425   2.750   0.731   4.136
 3777SOL     OW15426   2.067   0.359   5.451
 3777SOL    HW215427   2.024   0.418   5.388
 3777SOL    HW315428   2.135   0.414   5.491
 3777SOL    MW415429   2.071   0.374   5.448
 3778SOL     OW15430   3.179   0.979   4.996
 3778SOL    HW215431   3.242   0.976   5.069
 3778SOL    HW315432   3.095   0.997   5.038
 3778SOL    MW415433   3.175   0.981   5.011
 3779SOL     OW15434   2.723   1.694   4.185
 3779SOL    HW215435   2.781   1.765   4.212
 3779SOL    HW315436   2.746   1.622   4.243
 3779SOL    MW415437   2.734   1.694   4.196
 3780SOL     OW15438   3.518   0.156   4.775
 3780SOL    HW215439   3.563   0.074   4.794
 3780SOL    HW315440   3.538   0.212   4.851
 3780SOL    MW415441   3.528   0.152   4.787
 3781SOL     OW15442   1.966  -0.001   4.874
 3781SOL    HW215443   1.957   0.000   4.779
 3781SOL    HW315444   2.060   0.011   4.889
 3781SOL    MW415445   1.978   0.002   4.865
 3782SOL     OW15446   3.603   1.192   4.494
 3782SOL    HW215447   3.582   1.138   4.417
 3782SOL    HW315448   3.699   1.190   4.498
 3782SOL    MW415449   3.612   1.185   4.483
 3783SOL     OW15450   2.295   1.337   5.237
 3783SOL    HW215451   2.216   1.287   5.260
 3783SOL    HW315452   2.365   1.296   5.287
 3783SOL    MW415453   2.293   1.325   5.247
 3784SOL     OW15454   2.179   0.126   3.920
 3784SOL    HW215455   2.108   0.181   3.888
 3784SOL    HW315456   2.221   0.092   3.841
 3784SOL    MW415457   2.175   0.128   3.906
 3785SOL     OW15458   3.303   0.623   4.756
 3785SOL    HW215459   3.226   0.669   4.722
 3785SOL    HW315460   3.360   0.692   4.790
 3785SOL    MW415461   3.300   0.638   4.756
 3786SOL     OW15462   1.935   0.225   3.769
 3786SOL    HW215463   1.902   0.304   3.813
 3786SOL    HW315464   1.990   0.258   3.698
 3786SOL    MW415465   1.938   0.239   3.766
 3787SOL     OW15466   1.969   1.482   3.958
 3787SOL    HW215467   1.986   1.566   4.000
 3787SOL    HW315468   2.004   1.491   3.870
 3787SOL    MW415469   1.974   1.495   3.952
 3788SOL     OW15470   3.241   1.571   4.175
 3788SOL    HW215471   3.304   1.561   4.104
 3788SOL    HW315472   3.158   1.591   4.130
 3788SOL    MW415473   3.238   1.572   4.160
 3789SOL     OW15474   3.604   0.839   5.862
 3789SOL    HW215475   3.645   0.781   5.927
 3789SOL    HW315476   3.511   0.831   5.879
 3789SOL    MW415477   3.598   0.831   5.872
 3790SOL     OW15478   2.398   1.022   6.091
 3790SOL    HW215479   2.488   0.997   6.075
 3790SOL    HW315480   2.394   1.115   6.068
 3790SOL    MW415481   2.410   1.031   6.086
 3791SOL     OW15482   3.514   1.725   6.233
 3791SOL    HW215483   3.526   1.671   6.311
 3791SOL    HW315484   3.551   1.673   6.162
 3791SOL    MW415485   3.520   1.710   6.234
 3792SOL     OW15486   2.682   0.478   6.104
 3792SOL    HW215487   2.657   0.566   6.132
 3792SOL    HW315488   2.679   0.481   6.008
 3792SOL    MW415489   2.678   0.490   6.096
 3793SOL     OW15490   2.124   0.506   6.032
 3793SOL    HW215491   2.156   0.594   6.014
 3793SOL    HW315492   2.112   0.504   6.127
 3793SOL    MW415493   2.127   0.518   6.044
 3794SOL     OW15494   2.523   0.261   6.119
 3794SOL    HW215495   2.581   0.337   6.121
 3794SOL    HW315496   2.458   0.282   6.052
 3794SOL    MW415497   2.522   0.273   6.110
 3795SOL     OW15498   2.610   1.188   6.294
 3795SOL    HW215499   2.690   1.191   6.346
 3795SOL    HW315500   2.638   1.155   6.208
 3795SOL    MW415501   2.624   1.184   6.289
 3796SOL     OW15502   2.387   0.692   6.285
 3796SOL    HW215503   2.372   0.612   6.336
 3796SOL    HW315504   2.469   0.727   6.319
 3796SOL    MW415505   2.395   0.684   6.297
 3797SOL     OW15506   2.529   0.518   6.662
 3797SOL    HW215507   2.435   0.514   6.680
 3797SOL    HW315508   2.559   0.427   6.671
 3797SOL    MW415509   2.520   0.506   6.665
 3798SOL     OW15510   2.275   0.932   6.566
 3798SOL    HW215511   2.230   0.939   6.482
 3798SOL    HW315512   2.255   1.015   6.610
 3798SOL    MW415513   2.267   0.944   6.560
 3799SOL     OW15514   1.972   1.778   6.441
 3799SOL    HW215515   2.061   1.770   6.476
 3799SOL    HW315516   1.936   1.690   6.446
 3799SOL    MW415517   1.979   1.765   6.446
 3800SOL     OW15518   3.237   1.170   5.810
 3800SOL    HW215519   3.155   1.206   5.776
 3800SOL    HW315520   3.305   1.213   5.759
 3800SOL    MW415521   3.235   1.180   5.798
 3801SOL     OW15522   2.236   1.305   6.476
 3801SOL    HW215523   2.212   1.358   6.552
 3801SOL    HW315524   2.292   1.363   6.424
 3801SOL    MW415525   2.240   1.320   6.479
 3802SOL     OW15526   2.798   0.949   6.286
 3802SOL    HW215527   2.712   0.936   6.326
 3802SOL    HW315528   2.851   0.876   6.318
 3802SOL    MW415529   2.794   0.938   6.295
 3803SOL     OW15530   2.789   1.311   6.003
 3803SOL    HW215531   2.766   1.373   6.071
 3803SOL    HW315532   2.746   1.229   6.029
 3803SOL    MW415533   2.781   1.307   6.014
 3804SOL     OW15534   3.662   0.312   6.459
 3804SOL    HW215535   3.599   0.292   6.528
 3804SOL    HW315536   3.652   0.241   6.396
 3804SOL    MW415537   3.652   0.299   6.460
 3805SOL     OW15538   2.286   0.284   5.971
 3805SOL    HW215539   2.260   0.246   5.887
 3805SOL    HW315540   2.223   0.354   5.987
 3805SOL    MW415541   2.275   0.287   5.962
 3806SOL     OW15542   2.121   1.245   6.008
 3806SOL    HW215543   2.069   1.313   5.964
 3806SOL    HW315544   2.118   1.171   5.948
 3806SOL    MW415545   2.113   1.244   5.995
 3807SOL     OW15546   2.783   1.708   5.786
 3807SOL    HW215547   2.738   1.724   5.869
 3807SOL    HW315548   2.714   1.673   5.728
 3807SOL    MW415549   2.769   1.705   5.788
 3808SOL     OW15550   3.718   0.481   5.761
 3808SOL    HW215551   3.627   0.483   5.789
 3808SOL    HW315552   3.763   0.543   5.819
 3808SOL    MW415553   3.711   0.489   5.771
 3809SOL     OW15554   3.463   1.084   6.111
 3809SOL    HW215555   3.373   1.084   6.146
 3809SOL    HW315556   3.456   1.130   6.028
 3809SOL    MW415557   3.450   1.090   6.105
 3810SOL     OW15558   2.004   1.599   6.735
 3810SOL    HW215559   1.987   1.545   6.812
 3810SOL    HW315560   1.992   1.689   6.765
 3810SOL    MW415561   2.001   1.603   6.749
 3811SOL     OW15562   2.990   0.665   6.072
 3811SOL    HW215563   3.016   0.689   5.983
 3811SOL    HW315564   2.972   0.572   6.068
 3811SOL    MW415565   2.992   0.657   6.059
 3812SOL     OW15566   3.655   1.285   5.923
 3812SOL    HW215567   3.611   1.326   5.998
 3812SOL    HW315568   3.712   1.353   5.888
 3812SOL    MW415569   3.657   1.299   5.928
 3813SOL     OW15570   2.311   1.701   6.241
 3813SOL    HW215571   2.343   1.789   6.219
 3813SOL    HW315572   2.264   1.673   6.163
 3813SOL    MW415573   2.310   1.709   6.228
 3814SOL     OW15574   3.695   0.063   6.290
 3814SOL    HW215575   3.749   0.014   6.352
 3814SOL    HW315576   3.638  -0.003   6.251
 3814SOL    MW415577   3.695   0.047   6.292
 3815SOL     OW15578   2.027   1.761   5.818
 3815SOL    HW215579   2.056   1.851   5.810
 3815SOL    HW315580   1.977   1.744   5.739
 3815SOL    MW415581   2.025   1.769   5.807
 3816SOL     OW15582   3.431   1.569   5.789
 3816SOL    HW215583   3.479   1.638   5.835
 3816SOL    HW315584   3.352   1.613   5.758
 3816SOL    MW415585   3.426   1.583   5.792
 3817SOL     OW15586   2.829   0.694   5.733
 3817SOL    HW215587   2.831   0.641   5.654
 3817SOL    HW315588   2.917   0.731   5.739
 3817SOL    MW415589   2.841   0.693   5.722
 3818SOL     OW15590   3.443   0.620   6.069
 3818SOL    HW215591   3.482   0.620   6.156
 3818SOL    HW315592   3.384   0.696   6.069
 3818SOL    MW415593   3.440   0.631   6.080
 3819SOL     OW15594   3.630   0.506   6.235
 3819SOL    HW215595   3.719   0.475   6.252
 3819SOL    HW315596   3.573   0.446   6.283
 3819SOL    MW415597   3.633   0.494   6.244
 3820SOL     OW15598   2.056   0.220   6.264
 3820SOL    HW215599   2.047   0.160   6.190
 3820SOL    HW315600   1.989   0.191   6.327
 3820SOL    MW415601   2.046   0.207   6.262
 3821SOL     OW15602   2.999   1.313   5.825
 3821SOL    HW215603   2.949   1.315   5.907
 3821SOL    HW315604   2.933   1.331   5.757
 3821SOL    MW415605   2.985   1.315   5.827
 3822SOL     OW15606   2.003   0.393   6.627
 3822SOL    HW215607   1.975   0.484   6.636
 3822SOL    HW315608   1.940   0.354   6.566
 3822SOL    MW415609   1.990   0.399   6.621
 3823SOL     OW15610   2.462   1.731   5.933
 3823SOL    HW215611   2.383   1.689   5.966
 3823SOL    HW315612   2.528   1.714   6.000
 3823SOL    MW415613   2.461   1.723   5.946
 3824SOL     OW15614   2.598   1.146   5.640
 3824SOL    HW215615   2.520   1.092   5.627
 3824SOL    HW315616   2.569   1.219   5.693
 3824SOL    MW415617   2.584   1.148   5.645
 3825SOL     OW15618   3.179   1.662   5.708
 3825SOL    HW215619   3.105   1.625   5.758
 3825SOL    HW315620   3.187   1.752   5.741
 3825SOL    MW415621   3.170   1.669   5.720
 3826SOL     OW15622   3.403   1.336   5.650
 3826SOL    HW215623   3.350   1.385   5.586
 3826SOL    HW315624   3.434   1.402   5.711
 3826SOL    MW415625   3.401   1.350   5.648
 3827SOL     OW15626   2.628   0.225   5.705
 3827SOL    HW215627   2.576   0.145   5.693
 3827SOL    HW315628   2.715   0.202   5.673
 3827SOL    MW415629   2.631   0.211   5.699
 3828SOL     OW15630   2.134   1.096   6.756
 3828SOL    HW215631   2.187   1.171   6.781
 3828SOL    HW315632   2.053   1.134   6.722
 3828SOL    MW415633   2.130   1.111   6.756
 3829SOL     OW15634   1.989   0.865   6.162
 3829SOL    HW215635   2.080   0.880   6.189
 3829SOL    HW315636   1.992   0.786   6.108
 3829SOL    MW415637   2.001   0.857   6.160
 3830SOL     OW15638   2.616   1.797   6.536
 3830SOL    HW215639   2.705   1.812   6.566
 3830SOL    HW315640   2.611   1.844   6.452
 3830SOL    MW415641   2.626   1.805   6.529
 3831SOL     OW15642   1.997   1.477   6.201
 3831SOL    HW215643   1.969   1.516   6.283
 3831SOL    HW315644   2.017   1.386   6.223
 3831SOL    MW415645   1.995   1.469   6.214
 3832SOL     OW15646   2.830   1.520   6.236
 3832SOL    HW215647   2.913   1.474   6.220
 3832SOL    HW315648   2.820   1.519   6.332
 3832SOL    MW415649   2.840   1.513   6.246
 3833SOL     OW15650   2.563   1.577   5.641
 3833SOL    HW215651   2.503   1.646   5.611
 3833SOL    HW315652   2.508   1.519   5.694
 3833SOL    MW415653   2.547   1.579   5.643
 3834SOL     OW15654   3.001   0.222   5.864
 3834SOL    HW215655   2.934   0.198   5.801
 3834SOL    HW315656   3.066   0.271   5.813
 3834SOL    MW415657   3.001   0.224   5.849
 3835SOL     OW15658   2.520   0.939   6.376
 3835SOL    HW215659   2.431   0.930   6.409
 3835SOL    HW315660   2.524   1.029   6.344
 3835SOL    MW415661   2.509   0.950   6.376
 3836SOL     OW15662   3.319   0.522   6.371
 3836SOL    HW215663   3.264   0.443   6.370
 3836SOL    HW315664   3.301   0.563   6.455
 3836SOL    MW415665   3.309   0.517   6.380
 3837SOL     OW15666   2.938   0.726   6.328
 3837SOL    HW215667   2.875   0.658   6.352
 3837SOL    HW315668   2.958   0.707   6.236
 3837SOL    MW415669   2.932   0.713   6.320
 3838SOL     OW15670   2.194   1.621   6.030
 3838SOL    HW215671   2.155   1.668   5.956
 3838SOL    HW315672   2.128   1.556   6.055
 3838SOL    MW415673   2.181   1.619   6.024
 3839SOL     OW15674   2.686   1.030   6.054
 3839SOL    HW215675   2.688   1.004   5.961
 3839SOL    HW315676   2.744   0.967   6.097
 3839SOL    MW415677   2.694   1.019   6.048
 3840SOL     OW15678   3.243   1.798   6.256
 3840SOL    HW215679   3.186   1.751   6.195
 3840SOL    HW315680   3.329   1.759   6.243
 3840SOL    MW415681   3.246   1.789   6.246
 3841SOL     OW15682   3.196   0.274   6.387
 3841SOL    HW215683   3.224   0.206   6.448
 3841SOL    HW315684   3.110   0.245   6.357
 3841SOL    MW415685   3.189   0.261   6.391
 3842SOL     OW15686   2.001   1.208   6.321
 3842SOL    HW215687   2.065   1.240   6.384
 3842SOL    HW315688   2.050   1.144   6.269
 3842SOL    MW415689   2.016   1.204   6.322
 3843SOL     OW15690   3.176   0.378   5.722
 3843SOL    HW215691   3.149   0.444   5.658
 3843SOL    HW315692   3.246   0.421   5.772
 3843SOL    MW415693   3.181   0.391   5.719
 3844SOL     OW15694   2.844   0.083   5.659
 3844SOL    HW215695   2.900   0.075   5.581
 3844SOL    HW315696   2.821  -0.007   5.681
 3844SOL    MW415697   2.849   0.070   5.652
 3845SOL     OW15698   3.349   0.934   5.864
 3845SOL    HW215699   3.316   1.023   5.854
 3845SOL    HW315700   3.314   0.905   5.949
 3845SOL    MW415701   3.339   0.943   5.875
 3846SOL     OW15702   2.279   1.521   6.693
 3846SOL    HW215703   2.324   1.583   6.750
 3846SOL    HW315704   2.186   1.540   6.706
 3846SOL    MW415705   2.272   1.531   6.700
 3847SOL     OW15706   2.343   0.972   5.656
 3847SOL    HW215707   2.266   0.985   5.712
 3847SOL    HW315708   2.307   0.936   5.575
 3847SOL    MW415709   2.329   0.968   5.653
 3848SOL     OW15710   2.996   0.945   5.899
 3848SOL    HW215711   2.906   0.966   5.874
 3848SOL    HW315712   3.023   1.018   5.955
 3848SOL    MW415713   2.988   0.957   5.902
 3849SOL     OW15714   2.496   1.294   6.591
 3849SOL    HW215715   2.489   1.273   6.685
 3849SOL    HW315716   2.414   1.262   6.554
 3849SOL    MW415717   2.484   1.288   6.598
 3850SOL     OW15718   2.625   0.061   6.306
 3850SOL    HW215719   2.554   0.122   6.288
 3850SOL    HW315720   2.676   0.058   6.225
 3850SOL    MW415721   2.621   0.067   6.293
 3851SOL     OW15722   2.383   1.301   6.055
 3851SOL    HW215723   2.376   1.333   6.145
 3851SOL    HW315724   2.293   1.285   6.027
 3851SOL    MW415725   2.371   1.303   6.062
 3852SOL     OW15726   3.092   1.659   6.454
 3852SOL    HW215727   3.139   1.732   6.413
 3852SOL    HW315728   3.013   1.698   6.490
 3852SOL    MW415729   3.087   1.674   6.453
 3853SOL     OW15730   2.386   0.585   5.769
 3853SOL    HW215731   2.352   0.641   5.839
 3853SOL    HW315732   2.457   0.535   5.809
 3853SOL    MW415733   2.392   0.586   5.783
 3854SOL     OW15734   3.442   0.471   5.833
 3854SOL    HW215735   3.434   0.542   5.770
 3854SOL    HW315736   3.460   0.515   5.916
 3854SOL    MW415737   3.443   0.485   5.835
 3855SOL     OW15738   2.302   0.126   6.262
 3855SOL    HW215739   2.352   0.169   6.193
 3855SOL    HW315740   2.217   0.170   6.262
 3855SOL    MW415741   2.299   0.139   6.253
 3856SOL     OW15742   3.111   0.733   5.808
 3856SOL    HW215743   3.158   0.751   5.727
 3856SOL    HW315744   3.077   0.817   5.836
 3856SOL    MW415745   3.113   0.747   5.801
 3857SOL     OW15746   2.224   0.911   6.302
 3857SOL    HW215747   2.282   0.967   6.250
 3857SOL    HW315748   2.268   0.826   6.304
 3857SOL    MW415749   2.237   0.908   6.295
 3858SOL     OW15750   3.364   0.263   6.139
 3858SOL    HW215751   3.286   0.213   6.164
 3858SOL    HW315752   3.335   0.354   6.139
 3858SOL    MW415753   3.350   0.267   6.142
 3859SOL     OW15754   2.950   0.225   6.298
 3859SOL    HW215755   2.970   0.300   6.242
 3859SOL    HW315756   2.930   0.264   6.383
 3859SOL    MW415757   2.951   0.241   6.302
 3860SOL     OW15758   2.846   1.475   5.630
 3860SOL    HW215759   2.873   1.553   5.582
 3860SOL    HW315760   2.753   1.490   5.649
 3860SOL    MW415761   2.837   1.488   5.626
 3861SOL     OW15762   1.931   1.511   6.474
 3861SOL    HW215763   1.963   1.515   6.565
 3861SOL    HW315764   1.836   1.519   6.482
 3861SOL    MW415765   1.923   1.514   6.487
 3862SOL     OW15766   1.886   0.637   6.021
 3862SOL    HW215767   1.826   0.609   6.091
 3862SOL    HW315768   1.960   0.577   6.027
 3862SOL    MW415769   1.888   0.626   6.030
 3863SOL     OW15770   3.054   1.368   6.181
 3863SOL    HW215771   3.077   1.319   6.259
 3863SOL    HW315772   3.135   1.410   6.153
 3863SOL    MW415773   3.067   1.368   6.188
 3864SOL     OW15774   2.266   0.343   6.646
 3864SOL    HW215775   2.296   0.257   6.617
 3864SOL    HW315776   2.171   0.336   6.649
 3864SOL    MW415777   2.258   0.332   6.644
 3865SOL     OW15778   2.409   0.121   6.537
 3865SOL    HW215779   2.419   0.030   6.563
 3865SOL    HW315780   2.365   0.117   6.452
 3865SOL    MW415781   2.405   0.109   6.529
 3866SOL     OW15782   3.194   0.035   5.817
 3866SOL    HW215783   3.268   0.079   5.860
 3866SOL    HW315784   3.118   0.089   5.839
 3866SOL    MW415785   3.194   0.047   5.825
 3867SOL     OW15786   3.254   0.810   6.095
 3867SOL    HW215787   3.169   0.780   6.065
 3867SOL    HW315788   3.246   0.817   6.190
 3867SOL    MW415789   3.242   0.808   6.104
 3868SOL     OW15790   2.627   0.476   5.821
 3868SOL    HW215791   2.700   0.525   5.784
 3868SOL    HW315792   2.643   0.385   5.795
 3868SOL    MW415793   2.639   0.471   5.814
 3869SOL     OW15794   2.102   0.985   5.919
 3869SOL    HW215795   2.039   1.001   5.848
 3869SOL    HW315796   2.049   0.948   5.990
 3869SOL    MW415797   2.087   0.982   5.919
 3870SOL     OW15798   2.458   1.339   5.778
 3870SOL    HW215799   2.473   1.315   5.870
 3870SOL    HW315800   2.366   1.317   5.762
 3870SOL    MW415801   2.448   1.332   5.788
 3871SOL     OW15802   2.997   1.570   5.930
 3871SOL    HW215803   3.005   1.488   5.881
 3871SOL    HW315804   2.916   1.609   5.897
 3871SOL    MW415805   2.987   1.565   5.920
 3872SOL     OW15806   2.256   1.728   6.499
 3872SOL    HW215807   2.260   1.639   6.534
 3872SOL    HW315808   2.282   1.719   6.408
 3872SOL    MW415809   2.259   1.716   6.491
 3873SOL     OW15810   2.333   0.451   6.376
 3873SOL    HW215811   2.404   0.399   6.339
 3873SOL    HW315812   2.319   0.416   6.463
 3873SOL    MW415813   2.341   0.440   6.383
 3874SOL     OW15814   2.649   1.544   6.452
 3874SOL    HW215815   2.577   1.481   6.465
 3874SOL    HW315816   2.610   1.629   6.470
 3874SOL    MW415817   2.633   1.547   6.455
 3875SOL     OW15818   2.969   0.392   6.100
 3875SOL    HW215819   2.991   0.329   6.032
 3875SOL    HW315820   2.874   0.384   6.111
 3875SOL    MW415821   2.959   0.383   6.092
 3876SOL     OW15822   2.054   0.082   6.032
 3876SOL    HW215823   2.125   0.103   5.971
 3876SOL    HW315824   2.008   0.010   5.990
 3876SOL    MW415825   2.058   0.076   6.018
 3877SOL     OW15826   3.623   1.456   6.132
 3877SOL    HW215827   3.593   1.389   6.193
 3877SOL    HW315828   3.717   1.462   6.146
 3877SOL    MW415829   3.631   1.448   6.142
 3878SOL     OW15830   3.179   1.133   6.062
 3878SOL    HW215831   3.151   1.219   6.095
 3878SOL    HW315832   3.207   1.149   5.972
 3878SOL    MW415833   3.179   1.147   6.054
 3879SOL     OW15834   2.841   0.053   6.115
 3879SOL    HW215835   2.878   0.112   6.180
 3879SOL    HW315836   2.818   0.109   6.041
 3879SOL    MW415837   2.842   0.068   6.114
 3880SOL     OW15838   3.694   0.935   6.537
 3880SOL    HW215839   3.685   0.967   6.448
 3880SOL    HW315840   3.647   0.851   6.537
 3880SOL    MW415841   3.687   0.928   6.527
 3881SOL     OW15842   3.606   0.866   6.238
 3881SOL    HW215843   3.700   0.855   6.226
 3881SOL    HW315844   3.582   0.938   6.179
 3881SOL    MW415845   3.616   0.874   6.229
 3882SOL     OW15846   2.262   0.744   6.011
 3882SOL    HW215847   2.262   0.839   5.996
 3882SOL    HW315848   2.339   0.728   6.065
 3882SOL    MW415849   2.272   0.755   6.016
 3883SOL     OW15850   2.021   0.475   6.300
 3883SOL    HW215851   2.083   0.482   6.373
 3883SOL    HW315852   2.021   0.382   6.277
 3883SOL    MW415853   2.029   0.464   6.307
 3884SOL     OW15854   3.568   1.815   5.832
 3884SOL    HW215855   3.635   1.848   5.772
 3884SOL    HW315856   3.525   1.894   5.866
 3884SOL    MW415857   3.570   1.830   5.828
 3885SOL     OW15858   1.890   1.047   5.758
 3885SOL    HW215859   1.859   1.112   5.821
 3885SOL    HW315860   1.839   0.969   5.777
 3885SOL    MW415861   1.880   1.044   5.768
 3886SOL     OW15862   3.334   0.798   6.350
 3886SOL    HW215863   3.414   0.813   6.299
 3886SOL    HW315864   3.327   0.703   6.356
 3886SOL    MW415865   3.343   0.787   6.345
 3887SOL     OW15866   2.474   1.847   5.700
 3887SOL    HW215867   2.379   1.847   5.692
 3887SOL    HW315868   2.490   1.793   5.778
 3887SOL    MW415869   2.464   1.841   5.709
 3888SOL     OW15870   3.319   0.667   5.615
 3888SOL    HW215871   3.247   0.643   5.557
 3888SOL    HW315872   3.385   0.704   5.557
 3888SOL    MW415873   3.318   0.669   5.600
 3889SOL     OW15874   2.453   1.399   6.296
 3889SOL    HW215875   2.518   1.332   6.317
 3889SOL    HW315876   2.505   1.476   6.273
 3889SOL    MW415877   2.468   1.401   6.295
 3890SOL     OW15878   2.714   0.564   6.426
 3890SOL    HW215879   2.654   0.582   6.498
 3890SOL    HW315880   2.748   0.476   6.445
 3890SOL    MW415881   2.710   0.554   6.439
 3891SOL     OW15882   2.939   1.147   6.445
 3891SOL    HW215883   3.031   1.128   6.463
 3891SOL    HW315884   2.912   1.077   6.385
 3891SOL    MW415885   2.947   1.135   6.439
 3892SOL     OW15886   2.732   0.967   5.800
 3892SOL    HW215887   2.718   0.879   5.765
 3892SOL    HW315888   2.683   1.024   5.741
 3892SOL    MW415889   2.724   0.962   5.788
 3893SOL     OW15890   2.145   0.691   6.579
 3893SOL    HW215891   2.095   0.690   6.660
 3893SOL    HW315892   2.165   0.783   6.563
 3893SOL    MW415893   2.141   0.703   6.587
 3894SOL     OW15894   3.451   0.173   5.902
 3894SOL    HW215895   3.444   0.177   5.997
 3894SOL    HW315896   3.463   0.264   5.875
 3894SOL    MW415897   3.452   0.186   5.910
 3895SOL     OW15898   2.740   0.736   6.016
 3895SOL    HW215899   2.720   0.722   5.923
 3895SOL    HW315900   2.833   0.715   6.023
 3895SOL    MW415901   2.750   0.731   6.005
 3896SOL     OW15902   2.723   1.694   6.054
 3896SOL    HW215903   2.781   1.765   6.081
 3896SOL    HW315904   2.746   1.622   6.112
 3896SOL    MW415905   2.734   1.694   6.065
 3897SOL     OW15906   1.966  -0.001   6.743
 3897SOL    HW215907   1.957   0.000   6.648
 3897SOL    HW315908   2.060   0.011   6.758
 3897SOL    MW415909   1.978   0.002   6.734
 3898SOL     OW15910   3.603   1.192   6.363
 3898SOL    HW215911   3.582   1.138   6.286
 3898SOL    HW315912   3.699   1.190   6.367
 3898SOL    MW415913   3.612   1.185   6.352
 3899SOL     OW15914   2.179   0.126   5.789
 3899SOL    HW215915   2.108   0.181   5.757
 3899SOL    HW315916   2.221   0.092   5.710
 3899SOL    MW415917   2.175   0.128   5.775
 3900SOL     OW15918   1.935   0.225   5.638
 3900SOL    HW215919   1.902   0.304   5.682
 3900SOL    HW315920   1.990   0.258   5.567
 3900SOL    MW415921   1.938   0.239   5.635
 3901SOL     OW15922   1.969   1.482   5.827
 3901SOL    HW215923   1.986   1.566   5.869
 3901SOL    HW315924   2.004   1.491   5.739
 3901SOL    MW415925   1.974   1.495   5.821
 3902SOL     OW15926   3.241   1.571   6.044
 3902SOL    HW215927   3.304   1.561   5.973
 3902SOL    HW315928   3.158   1.591   5.999
 3902SOL    MW415929   3.238   1.572   6.029
 3903SOL     OW15930   3.470   2.639   1.252
 3903SOL    HW215931   3.425   2.706   1.303
 3903SOL    HW315932   3.558   2.675   1.238
 3903SOL    MW415933   3.476   2.652   1.256
 3904SOL     OW15934   2.398   2.890   0.486
 3904SOL    HW215935   2.488   2.865   0.470
 3904SOL    HW315936   2.394   2.983   0.463
 3904SOL    MW415937   2.410   2.899   0.481
 3905SOL     OW15938   3.514   3.593   0.628
 3905SOL    HW215939   3.526   3.539   0.706
 3905SOL    HW315940   3.551   3.541   0.557
 3905SOL    MW415941   3.520   3.578   0.629
 3906SOL     OW15942   2.893   3.478   1.629
 3906SOL    HW215943   2.934   3.514   1.550
 3906SOL    HW315944   2.928   3.389   1.636
 3906SOL    MW415945   2.904   3.471   1.620
 3907SOL     OW15946   3.450   3.033   1.233
 3907SOL    HW215947   3.371   2.998   1.191
 3907SOL    HW315948   3.477   3.105   1.177
 3907SOL    MW415949   3.443   3.038   1.220
 3908SOL     OW15950   2.682   2.346   0.499
 3908SOL    HW215951   2.657   2.434   0.527
 3908SOL    HW315952   2.679   2.349   0.403
 3908SOL    MW415953   2.678   2.358   0.491
 3909SOL     OW15954   2.124   2.374   0.427
 3909SOL    HW215955   2.156   2.462   0.409
 3909SOL    HW315956   2.112   2.372   0.522
 3909SOL    MW415957   2.127   2.386   0.439
 3910SOL     OW15958   2.202   2.787   1.328
 3910SOL    HW215959   2.265   2.734   1.279
 3910SOL    HW315960   2.183   2.861   1.271
 3910SOL    MW415961   2.208   2.789   1.315
 3911SOL     OW15962   2.523   2.129   0.514
 3911SOL    HW215963   2.581   2.205   0.516
 3911SOL    HW315964   2.458   2.150   0.447
 3911SOL    MW415965   2.522   2.141   0.505
 3912SOL     OW15966   2.610   3.056   0.689
 3912SOL    HW215967   2.690   3.059   0.741
 3912SOL    HW315968   2.638   3.023   0.603
 3912SOL    MW415969   2.624   3.052   0.684
 3913SOL     OW15970   2.635   3.397   1.592
 3913SOL    HW215971   2.719   3.423   1.631
 3913SOL    HW315972   2.659   3.341   1.518
 3913SOL    MW415973   2.649   3.393   1.587
 3914SOL     OW15974   2.387   2.560   0.680
 3914SOL    HW215975   2.372   2.480   0.731
 3914SOL    HW315976   2.469   2.595   0.714
 3914SOL    MW415977   2.395   2.552   0.692
 3915SOL     OW15978   2.724   3.246   1.365
 3915SOL    HW215979   2.688   3.312   1.305
 3915SOL    HW315980   2.652   3.184   1.378
 3915SOL    MW415981   2.710   3.246   1.359
 3916SOL     OW15982   2.529   2.386   1.057
 3916SOL    HW215983   2.435   2.382   1.075
 3916SOL    HW315984   2.559   2.295   1.066
 3916SOL    MW415985   2.520   2.374   1.060
 3917SOL     OW15986   2.275   2.800   0.961
 3917SOL    HW215987   2.230   2.807   0.877
 3917SOL    HW315988   2.255   2.883   1.005
 3917SOL    MW415989   2.267   2.812   0.955
 3918SOL     OW15990   1.972   3.646   0.836
 3918SOL    HW215991   2.061   3.638   0.871
 3918SOL    HW315992   1.936   3.558   0.841
 3918SOL    MW415993   1.979   3.633   0.841
 3919SOL     OW15994   2.236   3.173   0.871
 3919SOL    HW215995   2.212   3.226   0.947
 3919SOL    HW315996   2.292   3.231   0.819
 3919SOL    MW415997   2.240   3.188   0.874
 3920SOL     OW15998   2.798   2.817   0.681
 3920SOL    HW215999   2.712   2.804   0.721
 3920SOL    HW316000   2.851   2.744   0.713
 3920SOL    MW416001   2.794   2.806   0.690
 3921SOL     OW16002   2.206   3.469   1.466
 3921SOL    HW216003   2.114   3.445   1.451
 3921SOL    HW316004   2.250   3.386   1.483
 3921SOL    MW416005   2.200   3.454   1.465
 3922SOL     OW16006   2.789   3.179   0.398
 3922SOL    HW216007   2.766   3.241   0.466
 3922SOL    HW316008   2.746   3.097   0.424
 3922SOL    MW416009   2.781   3.175   0.409
 3923SOL     OW16010   3.662   2.180   0.854
 3923SOL    HW216011   3.599   2.160   0.923
 3923SOL    HW316012   3.652   2.109   0.791
 3923SOL    MW416013   3.652   2.167   0.855
 3924SOL     OW16014   2.286   2.152   0.366
 3924SOL    HW216015   2.260   2.114   0.282
 3924SOL    HW316016   2.223   2.222   0.382
 3924SOL    MW416017   2.275   2.155   0.357
 3925SOL     OW16018   2.121   3.113   0.403
 3925SOL    HW216019   2.069   3.181   0.359
 3925SOL    HW316020   2.118   3.039   0.343
 3925SOL    MW416021   2.113   3.112   0.390
 3926SOL     OW16022   3.463   2.952   0.506
 3926SOL    HW216023   3.373   2.952   0.541
 3926SOL    HW316024   3.456   2.998   0.423
 3926SOL    MW416025   3.450   2.958   0.500
 3927SOL     OW16026   3.263   2.587   1.578
 3927SOL    HW216027   3.332   2.525   1.555
 3927SOL    HW316028   3.188   2.561   1.525
 3927SOL    MW416029   3.263   2.574   1.569
 3928SOL     OW16030   2.004   3.467   1.130
 3928SOL    HW216031   1.987   3.413   1.207
 3928SOL    HW316032   1.992   3.557   1.160
 3928SOL    MW416033   2.001   3.471   1.144
 3929SOL     OW16034   2.999   2.974   1.570
 3929SOL    HW216035   2.984   3.067   1.555
 3929SOL    HW316036   3.094   2.964   1.570
 3929SOL    MW416037   3.008   2.984   1.567
 3930SOL     OW16038   2.795   2.398   1.771
 3930SOL    HW216039   2.885   2.399   1.738
 3930SOL    HW316040   2.754   2.323   1.729
 3930SOL    MW416041   2.801   2.388   1.762
 3931SOL     OW16042   3.370   2.930   0.898
 3931SOL    HW216043   3.373   2.864   0.829
 3931SOL    HW316044   3.455   2.973   0.894
 3931SOL    MW416045   3.382   2.926   0.889
 3932SOL     OW16046   2.990   2.533   0.467
 3932SOL    HW216047   3.016   2.557   0.378
 3932SOL    HW316048   2.972   2.440   0.463
 3932SOL    MW416049   2.992   2.525   0.454
 3933SOL     OW16050   2.575   2.202   1.721
 3933SOL    HW216051   2.585   2.128   1.661
 3933SOL    HW316052   2.611   2.171   1.804
 3933SOL    MW416053   2.581   2.188   1.723
 3934SOL     OW16054   2.311   3.569   0.636
 3934SOL    HW216055   2.343   3.657   0.614
 3934SOL    HW316056   2.264   3.541   0.558
 3934SOL    MW416057   2.310   3.577   0.623
 3935SOL     OW16058   3.695   1.931   0.685
 3935SOL    HW216059   3.749   1.882   0.747
 3935SOL    HW316060   3.638   1.865   0.646
 3935SOL    MW416061   3.695   1.915   0.687
 3936SOL     OW16062   2.027   3.629   0.213
 3936SOL    HW216063   2.056   3.719   0.205
 3936SOL    HW316064   1.977   3.612   0.134
 3936SOL    MW416065   2.025   3.637   0.202
 3937SOL     OW16066   2.814   1.884   1.098
 3937SOL    HW216067   2.773   1.962   1.060
 3937SOL    HW316068   2.908   1.902   1.093
 3937SOL    MW416069   2.820   1.896   1.093
 3938SOL     OW16070   2.760   2.855   1.593
 3938SOL    HW216071   2.737   2.835   1.683
 3938SOL    HW316072   2.845   2.899   1.598
 3938SOL    MW416073   2.767   2.858   1.605
 3939SOL     OW16074   2.840   1.992   1.353
 3939SOL    HW216075   2.846   1.954   1.266
 3939SOL    HW316076   2.829   2.086   1.338
 3939SOL    MW416077   2.841   2.000   1.341
 3940SOL     OW16078   2.929   2.481   1.187
 3940SOL    HW216079   3.004   2.510   1.134
 3940SOL    HW316080   2.861   2.546   1.171
 3940SOL    MW416081   2.930   2.493   1.177
 3941SOL     OW16082   3.479   2.449   1.464
 3941SOL    HW216083   3.460   2.358   1.443
 3941SOL    HW316084   3.457   2.498   1.385
 3941SOL    MW416085   3.474   2.442   1.451
 3942SOL     OW16086   3.621   3.543   1.368
 3942SOL    HW216087   3.549   3.505   1.419
 3942SOL    HW316088   3.638   3.628   1.409
 3942SOL    MW416089   3.615   3.548   1.380
 3943SOL     OW16090   2.926   2.187   1.570
 3943SOL    HW216091   2.892   2.226   1.489
 3943SOL    HW316092   2.904   2.095   1.563
 3943SOL    MW416093   2.919   2.180   1.560
 3944SOL     OW16094   3.335   3.001   1.646
 3944SOL    HW216095   3.417   3.042   1.676
 3944SOL    HW316096   3.298   2.963   1.726
 3944SOL    MW416097   3.341   3.002   1.661
 3945SOL     OW16098   3.630   2.374   0.630
 3945SOL    HW216099   3.719   2.343   0.647
 3945SOL    HW316100   3.573   2.314   0.678
 3945SOL    MW416101   3.633   2.362   0.639
 3946SOL     OW16102   2.056   2.088   0.659
 3946SOL    HW216103   2.047   2.028   0.585
 3946SOL    HW316104   1.989   2.059   0.722
 3946SOL    MW416105   2.046   2.075   0.657
 3947SOL     OW16106   2.999   3.181   0.220
 3947SOL    HW216107   2.949   3.183   0.302
 3947SOL    HW316108   2.933   3.199   0.152
 3947SOL    MW416109   2.985   3.183   0.222
 3948SOL     OW16110   2.003   2.261   1.022
 3948SOL    HW216111   1.975   2.352   1.031
 3948SOL    HW316112   1.940   2.222   0.961
 3948SOL    MW416113   1.990   2.267   1.016
 3949SOL     OW16114   2.462   3.599   0.328
 3949SOL    HW216115   2.383   3.557   0.361
 3949SOL    HW316116   2.528   3.582   0.395
 3949SOL    MW416117   2.461   3.591   0.341
 3950SOL     OW16118   3.590   3.119   1.725
 3950SOL    HW216119   3.640   3.045   1.757
 3950SOL    HW316120   3.536   3.146   1.800
 3950SOL    MW416121   3.590   3.113   1.738
 3951SOL     OW16122   2.598   3.014   0.035
 3951SOL    HW216123   2.520   2.960   0.022
 3951SOL    HW316124   2.569   3.087   0.088
 3951SOL    MW416125   2.584   3.016   0.040
 3952SOL     OW16126   3.724   2.754   1.227
 3952SOL    HW216127   3.740   2.792   1.140
 3952SOL    HW316128   3.758   2.820   1.288
 3952SOL    MW416129   3.731   2.767   1.223
 3953SOL     OW16130   3.516   3.463   0.896
 3953SOL    HW216131   3.545   3.530   0.957
 3953SOL    HW316132   3.497   3.387   0.951
 3953SOL    MW416133   3.518   3.463   0.911
 3954SOL     OW16134   1.987   2.536   1.192
 3954SOL    HW216135   2.049   2.566   1.258
 3954SOL    HW316136   1.921   2.605   1.186
 3954SOL    MW416137   1.986   2.549   1.199
 3955SOL     OW16138   2.082   3.645   1.644
 3955SOL    HW216139   2.056   3.713   1.582
 3955SOL    HW316140   2.130   3.582   1.592
 3955SOL    MW416141   2.084   3.645   1.630
 3956SOL     OW16142   2.134   2.964   1.151
 3956SOL    HW216143   2.187   3.039   1.176
 3956SOL    HW316144   2.053   3.002   1.117
 3956SOL    MW416145   2.130   2.979   1.151
 3957SOL     OW16146   2.674   2.868   1.139
 3957SOL    HW216147   2.702   2.777   1.151
 3957SOL    HW316148   2.603   2.862   1.075
 3957SOL    MW416149   2.667   2.856   1.134
 3958SOL     OW16150   1.989   2.733   0.557
 3958SOL    HW216151   2.080   2.748   0.584
 3958SOL    HW316152   1.992   2.654   0.503
 3958SOL    MW416153   2.001   2.725   0.555
 3959SOL     OW16154   2.225   2.441   1.811
 3959SOL    HW216155   2.172   2.521   1.818
 3959SOL    HW316156   2.295   2.453   1.876
 3959SOL    MW416157   2.227   2.454   1.819
 3960SOL     OW16158   2.611   1.991   1.518
 3960SOL    HW216159   2.588   1.899   1.520
 3960SOL    HW316160   2.697   1.993   1.475
 3960SOL    MW416161   2.618   1.981   1.514
 3961SOL     OW16162   2.295   2.515   1.557
 3961SOL    HW216163   2.375   2.565   1.543
 3961SOL    HW316164   2.286   2.509   1.652
 3961SOL    MW416165   2.304   2.521   1.567
 3962SOL     OW16166   2.616   3.665   0.931
 3962SOL    HW216167   2.705   3.680   0.961
 3962SOL    HW316168   2.611   3.712   0.847
 3962SOL    MW416169   2.626   3.673   0.924
 3963SOL     OW16170   3.272   2.040   1.828
 3963SOL    HW216171   3.328   1.967   1.854
 3963SOL    HW316172   3.242   2.078   1.910
 3963SOL    MW416173   3.276   2.035   1.841
 3964SOL     OW16174   1.997   3.345   0.596
 3964SOL    HW216175   1.969   3.384   0.678
 3964SOL    HW316176   2.017   3.254   0.618
 3964SOL    MW416177   1.995   3.337   0.609
 3965SOL     OW16178   2.830   3.388   0.631
 3965SOL    HW216179   2.913   3.342   0.615
 3965SOL    HW316180   2.820   3.387   0.727
 3965SOL    MW416181   2.840   3.381   0.641
 3966SOL     OW16182   3.662   2.533   0.945
 3966SOL    HW216183   3.751   2.563   0.927
 3966SOL    HW316184   3.642   2.473   0.874
 3966SOL    MW416185   3.671   2.530   0.934
 3967SOL     OW16186   3.513   2.712   1.825
 3967SOL    HW216187   3.568   2.636   1.806
 3967SOL    HW316188   3.515   2.720   1.920
 3967SOL    MW416189   3.521   2.703   1.833
 3968SOL     OW16190   2.808   2.274   1.344
 3968SOL    HW216191   2.727   2.315   1.372
 3968SOL    HW316192   2.855   2.342   1.296
 3968SOL    MW416193   2.803   2.289   1.342
 3969SOL     OW16194   3.068   2.612   0.967
 3969SOL    HW216195   3.081   2.706   0.977
 3969SOL    HW316196   3.029   2.602   0.881
 3969SOL    MW416197   3.064   2.623   0.957
 3970SOL     OW16198   2.520   2.807   0.771
 3970SOL    HW216199   2.431   2.798   0.804
 3970SOL    HW316200   2.524   2.897   0.739
 3970SOL    MW416201   2.509   2.818   0.771
 3971SOL     OW16202   3.319   2.390   0.766
 3971SOL    HW216203   3.264   2.311   0.765
 3971SOL    HW316204   3.301   2.431   0.850
 3971SOL    MW416205   3.309   2.385   0.775
 3972SOL     OW16206   2.290   2.077   1.583
 3972SOL    HW216207   2.211   2.095   1.635
 3972SOL    HW316208   2.285   2.139   1.510
 3972SOL    MW416209   2.280   2.087   1.580
 3973SOL     OW16210   2.938   2.594   0.723
 3973SOL    HW216211   2.875   2.526   0.747
 3973SOL    HW316212   2.958   2.575   0.631
 3973SOL    MW416213   2.932   2.581   0.715
 3974SOL     OW16214   2.194   3.489   0.425
 3974SOL    HW216215   2.155   3.536   0.351
 3974SOL    HW316216   2.128   3.424   0.450
 3974SOL    MW416217   2.181   3.487   0.419
 3975SOL     OW16218   2.686   2.898   0.449
 3975SOL    HW216219   2.688   2.872   0.356
 3975SOL    HW316220   2.744   2.835   0.492
 3975SOL    MW416221   2.694   2.887   0.443
 3976SOL     OW16222   3.239   3.458   1.221
 3976SOL    HW216223   3.164   3.504   1.259
 3976SOL    HW316224   3.221   3.365   1.238
 3976SOL    MW416225   3.228   3.452   1.229
 3977SOL     OW16226   3.243   3.666   0.651
 3977SOL    HW216227   3.186   3.619   0.590
 3977SOL    HW316228   3.329   3.627   0.638
 3977SOL    MW416229   3.246   3.657   0.641
 3978SOL     OW16230   3.196   2.142   0.782
 3978SOL    HW216231   3.224   2.074   0.843
 3978SOL    HW316232   3.110   2.113   0.752
 3978SOL    MW416233   3.189   2.129   0.786
 3979SOL     OW16234   2.001   3.076   0.716
 3979SOL    HW216235   2.065   3.108   0.779
 3979SOL    HW316236   2.050   3.012   0.664
 3979SOL    MW416237   2.016   3.072   0.717
 3980SOL     OW16238   2.501   3.152   1.698
 3980SOL    HW216239   2.549   3.235   1.685
 3980SOL    HW316240   2.558   3.100   1.754
 3980SOL    MW416241   2.515   3.156   1.704
 3981SOL     OW16242   2.077   3.394   1.838
 3981SOL    HW216243   2.133   3.318   1.853
 3981SOL    HW316244   2.026   3.372   1.760
 3981SOL    MW416245   2.077   3.381   1.829
 3982SOL     OW16246   2.962   3.231   1.447
 3982SOL    HW216247   2.873   3.237   1.415
 3982SOL    HW316248   3.006   3.310   1.415
 3982SOL    MW416249   2.957   3.241   1.439
 3983SOL     OW16250   2.255   1.899   1.789
 3983SOL    HW216251   2.183   1.864   1.737
 3983SOL    HW316252   2.313   1.940   1.724
 3983SOL    MW416253   2.253   1.900   1.774
 3984SOL     OW16254   2.279   3.389   1.088
 3984SOL    HW216255   2.324   3.451   1.145
 3984SOL    HW316256   2.186   3.408   1.101
 3984SOL    MW416257   2.272   3.399   1.095
 3985SOL     OW16258   3.719   2.918   1.442
 3985SOL    HW216259   3.634   2.931   1.401
 3985SOL    HW316260   3.699   2.882   1.529
 3985SOL    MW416261   3.706   2.914   1.447
 3986SOL     OW16262   2.701   3.457   1.196
 3986SOL    HW216263   2.725   3.446   1.105
 3986SOL    HW316264   2.624   3.514   1.194
 3986SOL    MW416265   2.693   3.462   1.185
 3987SOL     OW16266   2.343   2.840   0.051
 3987SOL    HW216267   2.266   2.853   0.107
 3987SOL    HW316268   2.307   2.804  -0.030
 3987SOL    MW416269   2.329   2.836   0.048
 3988SOL     OW16270   2.496   3.162   0.986
 3988SOL    HW216271   2.489   3.141   1.080
 3988SOL    HW316272   2.414   3.130   0.949
 3988SOL    MW416273   2.484   3.156   0.993
 3989SOL     OW16274   3.360   2.172   1.388
 3989SOL    HW216275   3.307   2.174   1.468
 3989SOL    HW316276   3.345   2.085   1.351
 3989SOL    MW416277   3.352   2.162   1.393
 3990SOL     OW16278   3.696   2.096   1.261
 3990SOL    HW216279   3.677   2.163   1.196
 3990SOL    HW316280   3.753   2.034   1.216
 3990SOL    MW416281   3.700   2.097   1.247
 3991SOL     OW16282   1.942   3.254   1.649
 3991SOL    HW216283   1.986   3.187   1.595
 3991SOL    HW316284   1.857   3.216   1.669
 3991SOL    MW416285   1.937   3.240   1.645
 3992SOL     OW16286   2.625   1.929   0.701
 3992SOL    HW216287   2.554   1.990   0.683
 3992SOL    HW316288   2.676   1.926   0.620
 3992SOL    MW416289   2.621   1.935   0.688
 3993SOL     OW16290   2.383   3.169   0.450
 3993SOL    HW216291   2.376   3.201   0.540
 3993SOL    HW316292   2.293   3.153   0.422
 3993SOL    MW416293   2.371   3.171   0.457
 3994SOL     OW16294   2.978   3.562   1.359
 3994SOL    HW216295   2.898   3.547   1.309
 3994SOL    HW316296   2.985   3.657   1.366
 3994SOL    MW416297   2.969   3.573   1.353
 3995SOL     OW16298   3.092   3.527   0.849
 3995SOL    HW216299   3.139   3.600   0.808
 3995SOL    HW316300   3.013   3.566   0.885
 3995SOL    MW416301   3.087   3.542   0.848
 3996SOL     OW16302   3.500   3.622   1.124
 3996SOL    HW216303   3.543   3.592   1.204
 3996SOL    HW316304   3.419   3.570   1.121
 3996SOL    MW416305   3.495   3.611   1.134
 3997SOL     OW16306   2.585   2.586   1.831
 3997SOL    HW216307   2.655   2.528   1.803
 3997SOL    HW316308   2.528   2.531   1.886
 3997SOL    MW416309   2.587   2.573   1.835
 3998SOL     OW16310   3.372   2.798   1.464
 3998SOL    HW216311   3.377   2.851   1.544
 3998SOL    HW316312   3.334   2.715   1.492
 3998SOL    MW416313   3.368   2.793   1.479
 3999SOL     OW16314   3.012   1.933   1.710
 3999SOL    HW216315   3.007   1.840   1.691
 3999SOL    HW316316   3.095   1.944   1.756
 3999SOL    MW416317   3.020   1.922   1.714
 4000SOL     OW16318   2.386   2.453   0.164
 4000SOL    HW216319   2.352   2.509   0.234
 4000SOL    HW316320   2.457   2.403   0.204
 4000SOL    MW416321   2.392   2.454   0.178
 4001SOL     OW16322   3.482   3.204   0.986
 4001SOL    HW216323   3.517   3.186   0.899
 4001SOL    HW316324   3.387   3.205   0.973
 4001SOL    MW416325   3.474   3.201   0.973
 4002SOL     OW16326   2.911   2.852   1.355
 4002SOL    HW216327   2.954   2.887   1.433
 4002SOL    HW316328   2.894   2.929   1.301
 4002SOL    MW416329   2.914   2.867   1.358
 4003SOL     OW16330   2.302   1.994   0.657
 4003SOL    HW216331   2.352   2.037   0.588
 4003SOL    HW316332   2.217   2.038   0.657
 4003SOL    MW416333   2.299   2.007   0.648
 4004SOL     OW16334   2.061   3.056   1.517
 4004SOL    HW216335   2.089   3.009   1.595
 4004SOL    HW316336   1.982   3.011   1.488
 4004SOL    MW416337   2.054   3.045   1.523
 4005SOL     OW16338   2.569   2.383   1.484
 4005SOL    HW216339   2.541   2.471   1.508
 4005SOL    HW316340   2.538   2.327   1.555
 4005SOL    MW416341   2.561   2.386   1.496
 4006SOL     OW16342   3.111   2.601   0.203
 4006SOL    HW216343   3.158   2.619   0.122
 4006SOL    HW316344   3.077   2.685   0.231
 4006SOL    MW416345   3.113   2.615   0.196
 4007SOL     OW16346   2.224   2.779   0.697
 4007SOL    HW216347   2.282   2.835   0.645
 4007SOL    HW316348   2.268   2.694   0.699
 4007SOL    MW416349   2.237   2.776   0.690
 4008SOL     OW16350   3.364   2.131   0.534
 4008SOL    HW216351   3.286   2.081   0.559
 4008SOL    HW316352   3.335   2.222   0.534
 4008SOL    MW416353   3.350   2.135   0.537
 4009SOL     OW16354   2.950   2.093   0.693
 4009SOL    HW216355   2.970   2.168   0.637
 4009SOL    HW316356   2.930   2.132   0.778
 4009SOL    MW416357   2.951   2.109   0.697
 4010SOL     OW16358   3.710   2.866   1.712
 4010SOL    HW216359   3.623   2.846   1.748
 4010SOL    HW316360   3.764   2.792   1.737
 4010SOL    MW416361   3.705   2.855   1.720
 4011SOL     OW16362   1.931   3.379   0.869
 4011SOL    HW216363   1.963   3.383   0.960
 4011SOL    HW316364   1.836   3.387   0.877
 4011SOL    MW416365   1.923   3.382   0.882
 4012SOL     OW16366   1.886   2.505   0.416
 4012SOL    HW216367   1.826   2.477   0.486
 4012SOL    HW316368   1.960   2.445   0.422
 4012SOL    MW416369   1.888   2.494   0.425
 4013SOL     OW16370   3.454   3.717   1.850
 4013SOL    HW216371   3.499   3.641   1.815
 4013SOL    HW316372   3.492   3.730   1.937
 4013SOL    MW416373   3.464   3.710   1.856
 4014SOL     OW16374   3.054   3.236   0.576
 4014SOL    HW216375   3.077   3.187   0.654
 4014SOL    HW316376   3.135   3.278   0.548
 4014SOL    MW416377   3.067   3.236   0.583
 4015SOL     OW16378   2.312   2.244   1.305
 4015SOL    HW216379   2.345   2.325   1.345
 4015SOL    HW316380   2.285   2.270   1.217
 4015SOL    MW416381   2.311   2.258   1.299
 4016SOL     OW16382   2.266   2.211   1.041
 4016SOL    HW216383   2.296   2.125   1.012
 4016SOL    HW316384   2.171   2.204   1.044
 4016SOL    MW416385   2.258   2.200   1.039
 4017SOL     OW16386   3.095   2.420   1.732
 4017SOL    HW216387   3.147   2.355   1.685
 4017SOL    HW316388   3.053   2.471   1.662
 4017SOL    MW416389   3.096   2.417   1.715
 4018SOL     OW16390   3.194   2.215   1.593
 4018SOL    HW216391   3.101   2.199   1.580
 4018SOL    HW316392   3.220   2.153   1.661
 4018SOL    MW416393   3.184   2.205   1.600
 4019SOL     OW16394   2.409   1.989   0.932
 4019SOL    HW216395   2.419   1.898   0.958
 4019SOL    HW316396   2.365   1.985   0.847
 4019SOL    MW416397   2.405   1.977   0.924
 4020SOL     OW16398   2.503   3.604   1.478
 4020SOL    HW216399   2.420   3.589   1.523
 4020SOL    HW316400   2.562   3.537   1.513
 4020SOL    MW416401   2.501   3.594   1.488
 4021SOL     OW16402   3.560   2.311   1.103
 4021SOL    HW216403   3.493   2.344   1.163
 4021SOL    HW316404   3.603   2.389   1.069
 4021SOL    MW416405   3.558   2.326   1.107
 4022SOL     OW16406   3.738   3.031   1.073
 4022SOL    HW216407   3.731   2.971   0.998
 4022SOL    HW316408   3.664   3.091   1.062
 4022SOL    MW416409   3.728   3.031   1.062
 4023SOL     OW16410   3.120   2.893   0.991
 4023SOL    HW216411   3.134   2.865   1.082
 4023SOL    HW316412   3.206   2.924   0.963
 4023SOL    MW416413   3.133   2.894   1.000
 4024SOL     OW16414   3.203   2.388   1.270
 4024SOL    HW216415   3.224   2.389   1.177
 4024SOL    HW316416   3.248   2.310   1.303
 4024SOL    MW416417   3.210   2.378   1.262
 4025SOL     OW16418   3.696   2.519   1.812
 4025SOL    HW216419   3.733   2.464   1.881
 4025SOL    HW316420   3.721   2.476   1.730
 4025SOL    MW416421   3.703   2.507   1.811
 4026SOL     OW16422   3.243   2.817   1.863
 4026SOL    HW216423   3.309   2.765   1.817
 4026SOL    HW316424   3.263   2.804   1.956
 4026SOL    MW416425   3.254   2.808   1.870
 4027SOL     OW16426   3.194   1.903   0.212
 4027SOL    HW216427   3.268   1.947   0.255
 4027SOL    HW316428   3.118   1.957   0.234
 4027SOL    MW416429   3.194   1.915   0.220
 4028SOL     OW16430   3.254   2.678   0.490
 4028SOL    HW216431   3.169   2.648   0.460
 4028SOL    HW316432   3.246   2.685   0.585
 4028SOL    MW416433   3.242   2.676   0.499
 4029SOL     OW16434   2.330   3.141   1.221
 4029SOL    HW216435   2.342   3.168   1.312
 4029SOL    HW316436   2.311   3.222   1.174
 4029SOL    MW416437   2.329   3.156   1.226
 4030SOL     OW16438   2.614   2.121   1.044
 4030SOL    HW216439   2.587   2.123   1.135
 4030SOL    HW316440   2.544   2.073   0.999
 4030SOL    MW416441   2.602   2.117   1.051
 4031SOL     OW16442   2.468   3.613   1.206
 4031SOL    HW216443   2.520   3.690   1.183
 4031SOL    HW316444   2.477   3.605   1.301
 4031SOL    MW416445   2.477   3.620   1.217
 4032SOL     OW16446   3.370   3.198   1.438
 4032SOL    HW216447   3.355   3.127   1.501
 4032SOL    HW316448   3.416   3.156   1.366
 4032SOL    MW416449   3.376   3.182   1.438
 4033SOL     OW16450   2.444   2.929   1.555
 4033SOL    HW216451   2.481   2.934   1.467
 4033SOL    HW316452   2.483   3.002   1.602
 4033SOL    MW416453   2.454   2.939   1.550
 4034SOL     OW16454   2.624   2.972   1.367
 4034SOL    HW216455   2.683   2.918   1.420
 4034SOL    HW316456   2.639   2.944   1.277
 4034SOL    MW416457   2.634   2.961   1.363
 4035SOL     OW16458   3.435   3.461   1.539
 4035SOL    HW216459   3.477   3.446   1.624
 4035SOL    HW316460   3.426   3.374   1.501
 4035SOL    MW416461   3.439   3.449   1.546
 4036SOL     OW16462   3.095   1.940   1.130
 4036SOL    HW216463   3.150   1.949   1.052
 4036SOL    HW316464   3.150   1.974   1.201
 4036SOL    MW416465   3.109   1.945   1.129
 4037SOL     OW16466   2.102   2.853   0.314
 4037SOL    HW216467   2.039   2.869   0.243
 4037SOL    HW316468   2.049   2.816   0.385
 4037SOL    MW416469   2.087   2.850   0.314
 4038SOL     OW16470   2.458   3.207   0.173
 4038SOL    HW216471   2.473   3.183   0.265
 4038SOL    HW316472   2.366   3.185   0.157
 4038SOL    MW416473   2.448   3.200   0.183
 4039SOL     OW16474   2.256   3.596   0.894
 4039SOL    HW216475   2.260   3.507   0.929
 4039SOL    HW316476   2.282   3.587   0.803
 4039SOL    MW416477   2.259   3.584   0.886
 4040SOL     OW16478   2.873   3.074   1.137
 4040SOL    HW216479   2.805   3.008   1.153
 4040SOL    HW316480   2.891   3.068   1.044
 4040SOL    MW416481   2.866   3.065   1.128
 4041SOL     OW16482   1.962   3.349   1.388
 4041SOL    HW216483   1.952   3.307   1.474
 4041SOL    HW316484   1.883   3.402   1.378
 4041SOL    MW416485   1.951   3.350   1.399
 4042SOL     OW16486   2.866   2.213   0.958
 4042SOL    HW216487   2.796   2.165   1.003
 4042SOL    HW316488   2.898   2.276   1.022
 4042SOL    MW416489   2.861   2.215   0.972
 4043SOL     OW16490   2.517   2.649   1.578
 4043SOL    HW216491   2.510   2.744   1.566
 4043SOL    HW316492   2.526   2.638   1.673
 4043SOL    MW416493   2.518   2.661   1.588
 4044SOL     OW16494   2.238   3.164   1.836
 4044SOL    HW216495   2.310   3.166   1.773
 4044SOL    HW316496   2.208   3.073   1.835
 4044SOL    MW416497   2.243   3.153   1.828
 4045SOL     OW16498   3.322   1.927   1.303
 4045SOL    HW216499   3.393   1.873   1.267
 4045SOL    HW316500   3.321   1.906   1.396
 4045SOL    MW416501   3.331   1.918   1.311
 4046SOL     OW16502   3.522   3.457   1.787
 4046SOL    HW216503   3.495   3.454   1.878
 4046SOL    HW316504   3.618   3.461   1.790
 4046SOL    MW416505   3.532   3.457   1.799
 4047SOL     OW16506   2.333   2.319   0.771
 4047SOL    HW216507   2.404   2.267   0.734
 4047SOL    HW316508   2.319   2.284   0.858
 4047SOL    MW416509   2.341   2.308   0.778
 4048SOL     OW16510   1.888   3.654   1.843
 4048SOL    HW216511   1.938   3.632   1.765
 4048SOL    HW316512   1.896   3.749   1.851
 4048SOL    MW416513   1.896   3.663   1.834
 4049SOL     OW16514   2.649   3.412   0.847
 4049SOL    HW216515   2.577   3.349   0.860
 4049SOL    HW316516   2.610   3.497   0.865
 4049SOL    MW416517   2.633   3.415   0.850
 4050SOL     OW16518   2.969   2.260   0.495
 4050SOL    HW216519   2.991   2.197   0.427
 4050SOL    HW316520   2.874   2.252   0.506
 4050SOL    MW416521   2.959   2.251   0.487
 4051SOL     OW16522   2.054   1.950   0.427
 4051SOL    HW216523   2.125   1.971   0.366
 4051SOL    HW316524   2.008   1.878   0.385
 4051SOL    MW416525   2.058   1.944   0.413
 4052SOL     OW16526   1.885   2.417   1.570
 4052SOL    HW216527   1.949   2.483   1.545
 4052SOL    HW316528   1.804   2.444   1.527
 4052SOL    MW416529   1.883   2.429   1.562
 4053SOL     OW16530   3.623   3.324   0.527
 4053SOL    HW216531   3.593   3.257   0.588
 4053SOL    HW316532   3.717   3.330   0.541
 4053SOL    MW416533   3.631   3.316   0.537
 4054SOL     OW16534   3.179   3.001   0.457
 4054SOL    HW216535   3.151   3.087   0.490
 4054SOL    HW316536   3.207   3.017   0.367
 4054SOL    MW416537   3.179   3.015   0.449
 4055SOL     OW16538   2.841   1.921   0.510
 4055SOL    HW216539   2.878   1.980   0.575
 4055SOL    HW316540   2.818   1.977   0.436
 4055SOL    MW416541   2.842   1.936   0.509
 4056SOL     OW16542   3.694   2.803   0.932
 4056SOL    HW216543   3.685   2.835   0.843
 4056SOL    HW316544   3.647   2.719   0.932
 4056SOL    MW416545   3.687   2.796   0.922
 4057SOL     OW16546   2.070   2.643   1.511
 4057SOL    HW216547   2.091   2.712   1.449
 4057SOL    HW316548   2.150   2.590   1.516
 4057SOL    MW416549   2.083   2.644   1.505
 4058SOL     OW16550   3.606   2.734   0.633
 4058SOL    HW216551   3.700   2.723   0.621
 4058SOL    HW316552   3.582   2.806   0.574
 4058SOL    MW416553   3.616   2.742   0.624
 4059SOL     OW16554   2.055   2.658   1.778
 4059SOL    HW216555   1.981   2.602   1.804
 4059SOL    HW316556   2.050   2.661   1.683
 4059SOL    MW416557   2.044   2.651   1.768
 4060SOL     OW16558   2.221   1.945   1.228
 4060SOL    HW216559   2.264   2.029   1.248
 4060SOL    HW316560   2.294   1.883   1.221
 4060SOL    MW416561   2.236   1.948   1.229
 4061SOL     OW16562   2.262   2.612   0.406
 4061SOL    HW216563   2.262   2.707   0.391
 4061SOL    HW316564   2.339   2.596   0.460
 4061SOL    MW416565   2.272   2.623   0.411
 4062SOL     OW16566   3.038   2.471   1.470
 4062SOL    HW216567   3.074   2.444   1.386
 4062SOL    HW316568   2.951   2.505   1.449
 4062SOL    MW416569   3.032   2.472   1.457
 4063SOL     OW16570   2.021   2.343   0.695
 4063SOL    HW216571   2.083   2.350   0.768
 4063SOL    HW316572   2.021   2.250   0.672
 4063SOL    MW416573   2.029   2.332   0.702
 4064SOL     OW16574   3.568   3.683   0.227
 4064SOL    HW216575   3.635   3.716   0.167
 4064SOL    HW316576   3.525   3.762   0.261
 4064SOL    MW416577   3.570   3.698   0.223
 4065SOL     OW16578   2.703   2.604   1.179
 4065SOL    HW216579   2.661   2.522   1.155
 4065SOL    HW316580   2.704   2.603   1.275
 4065SOL    MW416581   2.696   2.593   1.188
 4066SOL     OW16582   3.374   3.737   1.578
 4066SOL    HW216583   3.377   3.643   1.561
 4066SOL    HW316584   3.397   3.745   1.670
 4066SOL    MW416585   3.377   3.725   1.588
 4067SOL     OW16586   2.507   2.074   1.284
 4067SOL    HW216587   2.438   2.137   1.305
 4067SOL    HW316588   2.534   2.038   1.369
 4067SOL    MW416589   2.501   2.077   1.297
 4068SOL     OW16590   1.890   2.915   0.153
 4068SOL    HW216591   1.859   2.980   0.216
 4068SOL    HW316592   1.839   2.837   0.172
 4068SOL    MW416593   1.880   2.912   0.163
 4069SOL     OW16594   3.302   1.927   0.901
 4069SOL    HW216595   3.390   1.936   0.938
 4069SOL    HW316596   3.312   1.868   0.827
 4069SOL    MW416597   3.316   1.921   0.895
 4070SOL     OW16598   3.334   2.666   0.745
 4070SOL    HW216599   3.414   2.681   0.694
 4070SOL    HW316600   3.327   2.571   0.751
 4070SOL    MW416601   3.343   2.655   0.740
 4071SOL     OW16602   2.474   3.715   0.095
 4071SOL    HW216603   2.379   3.715   0.087
 4071SOL    HW316604   2.490   3.661   0.173
 4071SOL    MW416605   2.464   3.709   0.104
 4072SOL     OW16606   2.784   2.592   1.442
 4072SOL    HW216607   2.853   2.659   1.439
 4072SOL    HW316608   2.717   2.630   1.498
 4072SOL    MW416609   2.785   2.605   1.449
 4073SOL     OW16610   2.202   2.892   1.690
 4073SOL    HW216611   2.156   2.808   1.692
 4073SOL    HW316612   2.259   2.886   1.614
 4073SOL    MW416613   2.204   2.880   1.682
 4074SOL     OW16614   3.319   2.535   0.011
 4074SOL    HW216615   3.247   2.511  -0.047
 4074SOL    HW316616   3.385   2.572  -0.047
 4074SOL    MW416617   3.318   2.537  -0.004
 4075SOL     OW16618   2.453   3.267   0.691
 4075SOL    HW216619   2.518   3.200   0.712
 4075SOL    HW316620   2.505   3.344   0.668
 4075SOL    MW416621   2.468   3.269   0.690
 4076SOL     OW16622   2.714   2.432   0.821
 4076SOL    HW216623   2.654   2.450   0.893
 4076SOL    HW316624   2.748   2.344   0.840
 4076SOL    MW416625   2.710   2.422   0.834
 4077SOL     OW16626   3.655   1.931   1.490
 4077SOL    HW216627   3.576   1.977   1.518
 4077SOL    HW316628   3.690   1.985   1.419
 4077SOL    MW416629   3.649   1.944   1.484
 4078SOL     OW16630   2.939   3.015   0.840
 4078SOL    HW216631   3.031   2.996   0.858
 4078SOL    HW316632   2.912   2.945   0.780
 4078SOL    MW416633   2.947   3.003   0.834
 4079SOL     OW16634   2.732   2.835   0.195
 4079SOL    HW216635   2.718   2.747   0.160
 4079SOL    HW316636   2.683   2.892   0.136
 4079SOL    MW416637   2.724   2.830   0.183
 4080SOL     OW16638   3.213   3.253   0.936
 4080SOL    HW216639   3.186   3.337   0.901
 4080SOL    HW316640   3.173   3.248   1.023
 4080SOL    MW416641   3.206   3.262   0.942
 4081SOL     OW16642   3.132   3.201   1.204
 4081SOL    HW216643   3.143   3.168   1.293
 4081SOL    HW316644   3.051   3.160   1.173
 4081SOL    MW416645   3.122   3.193   1.210
 4082SOL     OW16646   2.145   2.559   0.974
 4082SOL    HW216647   2.095   2.558   1.055
 4082SOL    HW316648   2.165   2.651   0.958
 4082SOL    MW416649   2.141   2.571   0.982
 4083SOL     OW16650   3.212   3.323   1.736
 4083SOL    HW216651   3.212   3.417   1.752
 4083SOL    HW316652   3.257   3.313   1.652
 4083SOL    MW416653   3.218   3.333   1.727
 4084SOL     OW16654   2.740   2.604   0.411
 4084SOL    HW216655   2.720   2.590   0.318
 4084SOL    HW316656   2.833   2.583   0.418
 4084SOL    MW416657   2.750   2.599   0.400
 4085SOL     OW16658   2.067   2.227   1.715
 4085SOL    HW216659   2.024   2.286   1.652
 4085SOL    HW316660   2.135   2.282   1.755
 4085SOL    MW416661   2.071   2.242   1.712
 4086SOL     OW16662   3.179   2.847   1.260
 4086SOL    HW216663   3.242   2.844   1.333
 4086SOL    HW316664   3.095   2.865   1.302
 4086SOL    MW416665   3.175   2.849   1.275
 4087SOL     OW16666   2.723   3.562   0.449
 4087SOL    HW216667   2.781   3.633   0.476
 4087SOL    HW316668   2.746   3.490   0.507
 4087SOL    MW416669   2.734   3.562   0.460
 4088SOL     OW16670   3.518   2.024   1.039
 4088SOL    HW216671   3.563   1.942   1.058
 4088SOL    HW316672   3.538   2.080   1.115
 4088SOL    MW416673   3.528   2.020   1.051
 4089SOL     OW16674   1.966   1.867   1.138
 4089SOL    HW216675   1.957   1.868   1.043
 4089SOL    HW316676   2.060   1.879   1.153
 4089SOL    MW416677   1.978   1.870   1.129
 4090SOL     OW16678   3.603   3.060   0.758
 4090SOL    HW216679   3.582   3.006   0.681
 4090SOL    HW316680   3.699   3.058   0.762
 4090SOL    MW416681   3.612   3.053   0.747
 4091SOL     OW16682   2.295   3.205   1.501
 4091SOL    HW216683   2.216   3.155   1.524
 4091SOL    HW316684   2.365   3.164   1.551
 4091SOL    MW416685   2.293   3.193   1.511
 4092SOL     OW16686   2.179   1.994   0.184
 4092SOL    HW216687   2.108   2.049   0.152
 4092SOL    HW316688   2.221   1.960   0.105
 4092SOL    MW416689   2.175   1.996   0.170
 4093SOL     OW16690   3.303   2.491   1.020
 4093SOL    HW216691   3.226   2.537   0.986
 4093SOL    HW316692   3.360   2.560   1.054
 4093SOL    MW416693   3.300   2.506   1.020
 4094SOL     OW16694   1.935   2.093   0.033
 4094SOL    HW216695   1.902   2.172   0.077
 4094SOL    HW316696   1.990   2.126  -0.038
 4094SOL    MW416697   1.938   2.107   0.030
 4095SOL     OW16698   1.969   3.350   0.222
 4095SOL    HW216699   1.986   3.434   0.264
 4095SOL    HW316700   2.004   3.359   0.134
 4095SOL    MW416701   1.974   3.363   0.216
 4096SOL     OW16702   3.241   3.439   0.439
 4096SOL    HW216703   3.304   3.429   0.368
 4096SOL    HW316704   3.158   3.459   0.394
 4096SOL    MW416705   3.238   3.440   0.424
 4097SOL     OW16706   3.604   2.707   2.125
 4097SOL    HW216707   3.645   2.649   2.190
 4097SOL    HW316708   3.511   2.699   2.142
 4097SOL    MW416709   3.598   2.699   2.135
 4098SOL     OW16710   3.470   2.639   3.120
 4098SOL    HW216711   3.425   2.706   3.171
 4098SOL    HW316712   3.558   2.675   3.106
 4098SOL    MW416713   3.476   2.652   3.124
 4099SOL     OW16714   2.398   2.890   2.354
 4099SOL    HW216715   2.488   2.865   2.338
 4099SOL    HW316716   2.394   2.983   2.331
 4099SOL    MW416717   2.410   2.899   2.349
 4100SOL     OW16718   3.514   3.593   2.496
 4100SOL    HW216719   3.526   3.539   2.574
 4100SOL    HW316720   3.551   3.541   2.425
 4100SOL    MW416721   3.520   3.578   2.497
 4101SOL     OW16722   2.893   3.478   3.497
 4101SOL    HW216723   2.934   3.514   3.418
 4101SOL    HW316724   2.928   3.389   3.504
 4101SOL    MW416725   2.904   3.471   3.488
 4102SOL     OW16726   3.450   3.033   3.101
 4102SOL    HW216727   3.371   2.998   3.059
 4102SOL    HW316728   3.477   3.105   3.045
 4102SOL    MW416729   3.443   3.038   3.088
 4103SOL     OW16730   2.682   2.346   2.367
 4103SOL    HW216731   2.657   2.434   2.395
 4103SOL    HW316732   2.679   2.349   2.271
 4103SOL    MW416733   2.678   2.358   2.359
 4104SOL     OW16734   2.124   2.374   2.295
 4104SOL    HW216735   2.156   2.462   2.277
 4104SOL    HW316736   2.112   2.372   2.390
 4104SOL    MW416737   2.127   2.386   2.307
 4105SOL     OW16738   2.202   2.787   3.196
 4105SOL    HW216739   2.265   2.734   3.147
 4105SOL    HW316740   2.183   2.861   3.139
 4105SOL    MW416741   2.208   2.789   3.183
 4106SOL     OW16742   2.523   2.129   2.382
 4106SOL    HW216743   2.581   2.205   2.384
 4106SOL    HW316744   2.458   2.150   2.315
 4106SOL    MW416745   2.522   2.141   2.373
 4107SOL     OW16746   2.610   3.056   2.557
 4107SOL    HW216747   2.690   3.059   2.609
 4107SOL    HW316748   2.638   3.023   2.471
 4107SOL    MW416749   2.624   3.052   2.552
 4108SOL     OW16750   2.635   3.397   3.460
 4108SOL    HW216751   2.719   3.423   3.499
 4108SOL    HW316752   2.659   3.341   3.386
 4108SOL    MW416753   2.649   3.393   3.455
 4109SOL     OW16754   2.387   2.560   2.548
 4109SOL    HW216755   2.372   2.480   2.599
 4109SOL    HW316756   2.469   2.595   2.582
 4109SOL    MW416757   2.395   2.552   2.560
 4110SOL     OW16758   2.724   3.246   3.233
 4110SOL    HW216759   2.688   3.312   3.173
 4110SOL    HW316760   2.652   3.184   3.246
 4110SOL    MW416761   2.710   3.246   3.227
 4111SOL     OW16762   2.529   2.386   2.925
 4111SOL    HW216763   2.435   2.382   2.943
 4111SOL    HW316764   2.559   2.295   2.934
 4111SOL    MW416765   2.520   2.374   2.928
 4112SOL     OW16766   2.275   2.800   2.829
 4112SOL    HW216767   2.230   2.807   2.745
 4112SOL    HW316768   2.255   2.883   2.873
 4112SOL    MW416769   2.267   2.812   2.823
 4113SOL     OW16770   1.972   3.646   2.704
 4113SOL    HW216771   2.061   3.638   2.739
 4113SOL    HW316772   1.936   3.558   2.709
 4113SOL    MW416773   1.979   3.633   2.709
 4114SOL     OW16774   3.237   3.038   2.073
 4114SOL    HW216775   3.155   3.074   2.039
 4114SOL    HW316776   3.305   3.081   2.022
 4114SOL    MW416777   3.235   3.048   2.061
 4115SOL     OW16778   2.236   3.173   2.739
 4115SOL    HW216779   2.212   3.226   2.815
 4115SOL    HW316780   2.292   3.231   2.687
 4115SOL    MW416781   2.240   3.188   2.742
 4116SOL     OW16782   2.798   2.817   2.549
 4116SOL    HW216783   2.712   2.804   2.589
 4116SOL    HW316784   2.851   2.744   2.581
 4116SOL    MW416785   2.794   2.806   2.558
 4117SOL     OW16786   2.206   3.469   3.334
 4117SOL    HW216787   2.114   3.445   3.319
 4117SOL    HW316788   2.250   3.386   3.351
 4117SOL    MW416789   2.200   3.454   3.333
 4118SOL     OW16790   2.789   3.179   2.266
 4118SOL    HW216791   2.766   3.241   2.334
 4118SOL    HW316792   2.746   3.097   2.292
 4118SOL    MW416793   2.781   3.175   2.277
 4119SOL     OW16794   3.662   2.180   2.722
 4119SOL    HW216795   3.599   2.160   2.791
 4119SOL    HW316796   3.652   2.109   2.659
 4119SOL    MW416797   3.652   2.167   2.723
 4120SOL     OW16798   2.286   2.152   2.234
 4120SOL    HW216799   2.260   2.114   2.150
 4120SOL    HW316800   2.223   2.222   2.250
 4120SOL    MW416801   2.275   2.155   2.225
 4121SOL     OW16802   2.121   3.113   2.271
 4121SOL    HW216803   2.069   3.181   2.227
 4121SOL    HW316804   2.118   3.039   2.211
 4121SOL    MW416805   2.113   3.112   2.258
 4122SOL     OW16806   2.783   3.576   2.049
 4122SOL    HW216807   2.738   3.592   2.132
 4122SOL    HW316808   2.714   3.541   1.991
 4122SOL    MW416809   2.769   3.573   2.051
 4123SOL     OW16810   3.718   2.349   2.024
 4123SOL    HW216811   3.627   2.351   2.052
 4123SOL    HW316812   3.763   2.411   2.082
 4123SOL    MW416813   3.711   2.357   2.034
 4124SOL     OW16814   3.463   2.952   2.374
 4124SOL    HW216815   3.373   2.952   2.409
 4124SOL    HW316816   3.456   2.998   2.291
 4124SOL    MW416817   3.450   2.958   2.368
 4125SOL     OW16818   3.263   2.587   3.446
 4125SOL    HW216819   3.332   2.525   3.423
 4125SOL    HW316820   3.188   2.561   3.393
 4125SOL    MW416821   3.263   2.574   3.437
 4126SOL     OW16822   2.004   3.467   2.998
 4126SOL    HW216823   1.987   3.413   3.075
 4126SOL    HW316824   1.992   3.557   3.028
 4126SOL    MW416825   2.001   3.471   3.012
 4127SOL     OW16826   2.999   2.974   3.438
 4127SOL    HW216827   2.984   3.067   3.423
 4127SOL    HW316828   3.094   2.964   3.438
 4127SOL    MW416829   3.008   2.984   3.435
 4128SOL     OW16830   2.795   2.398   3.639
 4128SOL    HW216831   2.885   2.399   3.606
 4128SOL    HW316832   2.754   2.323   3.597
 4128SOL    MW416833   2.801   2.388   3.630
 4129SOL     OW16834   3.370   2.930   2.766
 4129SOL    HW216835   3.373   2.864   2.697
 4129SOL    HW316836   3.455   2.973   2.762
 4129SOL    MW416837   3.382   2.926   2.757
 4130SOL     OW16838   2.990   2.533   2.335
 4130SOL    HW216839   3.016   2.557   2.246
 4130SOL    HW316840   2.972   2.440   2.331
 4130SOL    MW416841   2.992   2.525   2.322
 4131SOL     OW16842   3.655   3.153   2.186
 4131SOL    HW216843   3.611   3.194   2.261
 4131SOL    HW316844   3.712   3.221   2.151
 4131SOL    MW416845   3.657   3.167   2.191
 4132SOL     OW16846   2.575   2.202   3.589
 4132SOL    HW216847   2.585   2.128   3.529
 4132SOL    HW316848   2.611   2.171   3.672
 4132SOL    MW416849   2.581   2.188   3.591
 4133SOL     OW16850   2.311   3.569   2.504
 4133SOL    HW216851   2.343   3.657   2.482
 4133SOL    HW316852   2.264   3.541   2.426
 4133SOL    MW416853   2.310   3.577   2.491
 4134SOL     OW16854   3.695   1.931   2.553
 4134SOL    HW216855   3.749   1.882   2.615
 4134SOL    HW316856   3.638   1.865   2.514
 4134SOL    MW416857   3.695   1.915   2.555
 4135SOL     OW16858   2.027   3.629   2.081
 4135SOL    HW216859   2.056   3.719   2.073
 4135SOL    HW316860   1.977   3.612   2.002
 4135SOL    MW416861   2.025   3.637   2.070
 4136SOL     OW16862   2.814   1.884   2.966
 4136SOL    HW216863   2.773   1.962   2.928
 4136SOL    HW316864   2.908   1.902   2.961
 4136SOL    MW416865   2.820   1.896   2.961
 4137SOL     OW16866   3.431   3.437   2.052
 4137SOL    HW216867   3.479   3.506   2.098
 4137SOL    HW316868   3.352   3.481   2.021
 4137SOL    MW416869   3.426   3.451   2.055
 4138SOL     OW16870   2.829   2.562   1.996
 4138SOL    HW216871   2.831   2.509   1.917
 4138SOL    HW316872   2.917   2.599   2.002
 4138SOL    MW416873   2.841   2.561   1.985
 4139SOL     OW16874   3.443   2.488   2.332
 4139SOL    HW216875   3.482   2.488   2.419
 4139SOL    HW316876   3.384   2.564   2.332
 4139SOL    MW416877   3.440   2.499   2.343
 4140SOL     OW16878   2.760   2.855   3.461
 4140SOL    HW216879   2.737   2.835   3.551
 4140SOL    HW316880   2.845   2.899   3.466
 4140SOL    MW416881   2.767   2.858   3.473
 4141SOL     OW16882   2.840   1.992   3.221
 4141SOL    HW216883   2.846   1.954   3.134
 4141SOL    HW316884   2.829   2.086   3.206
 4141SOL    MW416885   2.841   2.000   3.209
 4142SOL     OW16886   2.929   2.481   3.055
 4142SOL    HW216887   3.004   2.510   3.002
 4142SOL    HW316888   2.861   2.546   3.039
 4142SOL    MW416889   2.930   2.493   3.045
 4143SOL     OW16890   3.479   2.449   3.332
 4143SOL    HW216891   3.460   2.358   3.311
 4143SOL    HW316892   3.457   2.498   3.253
 4143SOL    MW416893   3.474   2.442   3.319
 4144SOL     OW16894   3.621   3.543   3.236
 4144SOL    HW216895   3.549   3.505   3.287
 4144SOL    HW316896   3.638   3.628   3.277
 4144SOL    MW416897   3.615   3.548   3.248
 4145SOL     OW16898   2.926   2.187   3.438
 4145SOL    HW216899   2.892   2.226   3.357
 4145SOL    HW316900   2.904   2.095   3.431
 4145SOL    MW416901   2.919   2.180   3.428
 4146SOL     OW16902   3.335   3.001   3.514
 4146SOL    HW216903   3.417   3.042   3.544
 4146SOL    HW316904   3.298   2.963   3.594
 4146SOL    MW416905   3.341   3.002   3.529
 4147SOL     OW16906   3.630   2.374   2.498
 4147SOL    HW216907   3.719   2.343   2.515
 4147SOL    HW316908   3.573   2.314   2.546
 4147SOL    MW416909   3.633   2.362   2.507
 4148SOL     OW16910   2.056   2.088   2.527
 4148SOL    HW216911   2.047   2.028   2.453
 4148SOL    HW316912   1.989   2.059   2.590
 4148SOL    MW416913   2.046   2.075   2.525
 4149SOL     OW16914   2.999   3.181   2.088
 4149SOL    HW216915   2.949   3.183   2.170
 4149SOL    HW316916   2.933   3.199   2.020
 4149SOL    MW416917   2.985   3.183   2.090
 4150SOL     OW16918   2.003   2.261   2.890
 4150SOL    HW216919   1.975   2.352   2.899
 4150SOL    HW316920   1.940   2.222   2.829
 4150SOL    MW416921   1.990   2.267   2.884
 4151SOL     OW16922   2.462   3.599   2.196
 4151SOL    HW216923   2.383   3.557   2.229
 4151SOL    HW316924   2.528   3.582   2.263
 4151SOL    MW416925   2.461   3.591   2.209
 4152SOL     OW16926   3.590   3.119   3.593
 4152SOL    HW216927   3.640   3.045   3.625
 4152SOL    HW316928   3.536   3.146   3.668
 4152SOL    MW416929   3.590   3.113   3.606
 4153SOL     OW16930   2.598   3.014   1.903
 4153SOL    HW216931   2.520   2.960   1.890
 4153SOL    HW316932   2.569   3.087   1.956
 4153SOL    MW416933   2.584   3.016   1.908
 4154SOL     OW16934   3.724   2.754   3.095
 4154SOL    HW216935   3.740   2.792   3.008
 4154SOL    HW316936   3.758   2.820   3.156
 4154SOL    MW416937   3.731   2.767   3.091
 4155SOL     OW16938   3.516   3.463   2.764
 4155SOL    HW216939   3.545   3.530   2.825
 4155SOL    HW316940   3.497   3.387   2.819
 4155SOL    MW416941   3.518   3.463   2.779
 4156SOL     OW16942   3.179   3.530   1.971
 4156SOL    HW216943   3.105   3.493   2.021
 4156SOL    HW316944   3.187   3.620   2.004
 4156SOL    MW416945   3.170   3.537   1.983
 4157SOL     OW16946   1.987   2.536   3.060
 4157SOL    HW216947   2.049   2.566   3.126
 4157SOL    HW316948   1.921   2.605   3.054
 4157SOL    MW416949   1.986   2.549   3.067
 4158SOL     OW16950   3.403   3.204   1.913
 4158SOL    HW216951   3.350   3.253   1.849
 4158SOL    HW316952   3.434   3.270   1.974
 4158SOL    MW416953   3.401   3.218   1.911
 4159SOL     OW16954   2.628   2.093   1.968
 4159SOL    HW216955   2.576   2.013   1.956
 4159SOL    HW316956   2.715   2.070   1.936
 4159SOL    MW416957   2.631   2.079   1.962
 4160SOL     OW16958   2.082   3.645   3.512
 4160SOL    HW216959   2.056   3.713   3.450
 4160SOL    HW316960   2.130   3.582   3.460
 4160SOL    MW416961   2.084   3.645   3.498
 4161SOL     OW16962   2.134   2.964   3.019
 4161SOL    HW216963   2.187   3.039   3.044
 4161SOL    HW316964   2.053   3.002   2.985
 4161SOL    MW416965   2.130   2.979   3.019
 4162SOL     OW16966   2.674   2.868   3.007
 4162SOL    HW216967   2.702   2.777   3.019
 4162SOL    HW316968   2.603   2.862   2.943
 4162SOL    MW416969   2.667   2.856   3.002
 4163SOL     OW16970   1.989   2.733   2.425
 4163SOL    HW216971   2.080   2.748   2.452
 4163SOL    HW316972   1.992   2.654   2.371
 4163SOL    MW416973   2.001   2.725   2.423
 4164SOL     OW16974   2.225   2.441   3.679
 4164SOL    HW216975   2.172   2.521   3.686
 4164SOL    HW316976   2.295   2.453   3.744
 4164SOL    MW416977   2.227   2.454   3.687
 4165SOL     OW16978   2.611   1.991   3.386
 4165SOL    HW216979   2.588   1.899   3.388
 4165SOL    HW316980   2.697   1.993   3.343
 4165SOL    MW416981   2.618   1.981   3.382
 4166SOL     OW16982   2.295   2.515   3.425
 4166SOL    HW216983   2.375   2.565   3.411
 4166SOL    HW316984   2.286   2.509   3.520
 4166SOL    MW416985   2.304   2.521   3.435
 4167SOL     OW16986   2.616   3.665   2.799
 4167SOL    HW216987   2.705   3.680   2.829
 4167SOL    HW316988   2.611   3.712   2.715
 4167SOL    MW416989   2.626   3.673   2.792
 4168SOL     OW16990   3.272   2.040   3.696
 4168SOL    HW216991   3.328   1.967   3.722
 4168SOL    HW316992   3.242   2.078   3.778
 4168SOL    MW416993   3.276   2.035   3.709
 4169SOL     OW16994   1.997   3.345   2.464
 4169SOL    HW216995   1.969   3.384   2.546
 4169SOL    HW316996   2.017   3.254   2.486
 4169SOL    MW416997   1.995   3.337   2.477
 4170SOL     OW16998   2.830   3.388   2.499
 4170SOL    HW216999   2.913   3.342   2.483
 4170SOL    HW317000   2.820   3.387   2.595
 4170SOL    MW417001   2.840   3.381   2.509
 4171SOL     OW17002   3.662   2.533   2.813
 4171SOL    HW217003   3.751   2.563   2.795
 4171SOL    HW317004   3.642   2.473   2.742
 4171SOL    MW417005   3.671   2.530   2.802
 4172SOL     OW17006   3.513   2.712   3.693
 4172SOL    HW217007   3.568   2.636   3.674
 4172SOL    HW317008   3.515   2.720   3.788
 4172SOL    MW417009   3.521   2.703   3.701
 4173SOL     OW17010   2.563   3.445   1.904
 4173SOL    HW217011   2.503   3.514   1.874
 4173SOL    HW317012   2.508   3.387   1.957
 4173SOL    MW417013   2.547   3.447   1.906
 4174SOL     OW17014   3.001   2.090   2.127
 4174SOL    HW217015   2.934   2.066   2.064
 4174SOL    HW317016   3.066   2.139   2.076
 4174SOL    MW417017   3.001   2.092   2.112
 4175SOL     OW17018   2.808   2.274   3.212
 4175SOL    HW217019   2.727   2.315   3.240
 4175SOL    HW317020   2.855   2.342   3.164
 4175SOL    MW417021   2.803   2.289   3.210
 4176SOL     OW17022   3.068   2.612   2.835
 4176SOL    HW217023   3.081   2.706   2.845
 4176SOL    HW317024   3.029   2.602   2.749
 4176SOL    MW417025   3.064   2.623   2.825
 4177SOL     OW17026   2.520   2.807   2.639
 4177SOL    HW217027   2.431   2.798   2.672
 4177SOL    HW317028   2.524   2.897   2.607
 4177SOL    MW417029   2.509   2.818   2.639
 4178SOL     OW17030   3.319   2.390   2.634
 4178SOL    HW217031   3.264   2.311   2.633
 4178SOL    HW317032   3.301   2.431   2.718
 4178SOL    MW417033   3.309   2.385   2.643
 4179SOL     OW17034   2.290   2.077   3.451
 4179SOL    HW217035   2.211   2.095   3.503
 4179SOL    HW317036   2.285   2.139   3.378
 4179SOL    MW417037   2.280   2.087   3.448
 4180SOL     OW17038   2.938   2.594   2.591
 4180SOL    HW217039   2.875   2.526   2.615
 4180SOL    HW317040   2.958   2.575   2.499
 4180SOL    MW417041   2.932   2.581   2.583
 4181SOL     OW17042   2.194   3.489   2.293
 4181SOL    HW217043   2.155   3.536   2.219
 4181SOL    HW317044   2.128   3.424   2.318
 4181SOL    MW417045   2.181   3.487   2.287
 4182SOL     OW17046   2.686   2.898   2.317
 4182SOL    HW217047   2.688   2.872   2.224
 4182SOL    HW317048   2.744   2.835   2.360
 4182SOL    MW417049   2.694   2.887   2.311
 4183SOL     OW17050   3.239   3.458   3.089
 4183SOL    HW217051   3.164   3.504   3.127
 4183SOL    HW317052   3.221   3.365   3.106
 4183SOL    MW417053   3.228   3.452   3.097
 4184SOL     OW17054   3.243   3.666   2.519
 4184SOL    HW217055   3.186   3.619   2.458
 4184SOL    HW317056   3.329   3.627   2.506
 4184SOL    MW417057   3.246   3.657   2.509
 4185SOL     OW17058   3.196   2.142   2.650
 4185SOL    HW217059   3.224   2.074   2.711
 4185SOL    HW317060   3.110   2.113   2.620
 4185SOL    MW417061   3.189   2.129   2.654
 4186SOL     OW17062   2.001   3.076   2.584
 4186SOL    HW217063   2.065   3.108   2.647
 4186SOL    HW317064   2.050   3.012   2.532
 4186SOL    MW417065   2.016   3.072   2.585
 4187SOL     OW17066   2.501   3.152   3.566
 4187SOL    HW217067   2.549   3.235   3.553
 4187SOL    HW317068   2.558   3.100   3.622
 4187SOL    MW417069   2.515   3.156   3.572
 4188SOL     OW17070   2.077   3.394   3.706
 4188SOL    HW217071   2.133   3.318   3.721
 4188SOL    HW317072   2.026   3.372   3.628
 4188SOL    MW417073   2.077   3.381   3.697
 4189SOL     OW17074   3.176   2.246   1.985
 4189SOL    HW217075   3.149   2.312   1.921
 4189SOL    HW317076   3.246   2.289   2.035
 4189SOL    MW417077   3.181   2.259   1.982
 4190SOL     OW17078   2.844   1.951   1.922
 4190SOL    HW217079   2.900   1.943   1.844
 4190SOL    HW317080   2.821   1.861   1.944
 4190SOL    MW417081   2.849   1.938   1.915
 4191SOL     OW17082   3.349   2.802   2.127
 4191SOL    HW217083   3.316   2.891   2.117
 4191SOL    HW317084   3.314   2.773   2.212
 4191SOL    MW417085   3.339   2.811   2.138
 4192SOL     OW17086   2.962   3.231   3.315
 4192SOL    HW217087   2.873   3.237   3.283
 4192SOL    HW317088   3.006   3.310   3.283
 4192SOL    MW417089   2.957   3.241   3.307
 4193SOL     OW17090   2.255   1.899   3.657
 4193SOL    HW217091   2.183   1.864   3.605
 4193SOL    HW317092   2.313   1.940   3.592
 4193SOL    MW417093   2.253   1.900   3.642
 4194SOL     OW17094   2.279   3.389   2.956
 4194SOL    HW217095   2.324   3.451   3.013
 4194SOL    HW317096   2.186   3.408   2.969
 4194SOL    MW417097   2.272   3.399   2.963
 4195SOL     OW17098   3.719   2.918   3.310
 4195SOL    HW217099   3.634   2.931   3.269
 4195SOL    HW317100   3.699   2.882   3.397
 4195SOL    MW417101   3.706   2.914   3.315
 4196SOL     OW17102   2.701   3.457   3.064
 4196SOL    HW217103   2.725   3.446   2.973
 4196SOL    HW317104   2.624   3.514   3.062
 4196SOL    MW417105   2.693   3.462   3.053
 4197SOL     OW17106   2.343   2.840   1.919
 4197SOL    HW217107   2.266   2.853   1.975
 4197SOL    HW317108   2.307   2.804   1.838
 4197SOL    MW417109   2.329   2.836   1.916
 4198SOL     OW17110   2.996   2.813   2.162
 4198SOL    HW217111   2.906   2.834   2.137
 4198SOL    HW317112   3.023   2.886   2.218
 4198SOL    MW417113   2.988   2.825   2.165
 4199SOL     OW17114   2.496   3.162   2.854
 4199SOL    HW217115   2.489   3.141   2.948
 4199SOL    HW317116   2.414   3.130   2.817
 4199SOL    MW417117   2.484   3.156   2.861
 4200SOL     OW17118   3.360   2.172   3.256
 4200SOL    HW217119   3.307   2.174   3.336
 4200SOL    HW317120   3.345   2.085   3.219
 4200SOL    MW417121   3.352   2.162   3.261
 4201SOL     OW17122   3.696   2.096   3.129
 4201SOL    HW217123   3.677   2.163   3.064
 4201SOL    HW317124   3.753   2.034   3.084
 4201SOL    MW417125   3.700   2.097   3.115
 4202SOL     OW17126   1.942   3.254   3.517
 4202SOL    HW217127   1.986   3.187   3.463
 4202SOL    HW317128   1.857   3.216   3.537
 4202SOL    MW417129   1.937   3.240   3.513
 4203SOL     OW17130   2.625   1.929   2.569
 4203SOL    HW217131   2.554   1.990   2.551
 4203SOL    HW317132   2.676   1.926   2.488
 4203SOL    MW417133   2.621   1.935   2.556
 4204SOL     OW17134   2.383   3.169   2.318
 4204SOL    HW217135   2.376   3.201   2.408
 4204SOL    HW317136   2.293   3.153   2.290
 4204SOL    MW417137   2.371   3.171   2.325
 4205SOL     OW17138   2.978   3.562   3.227
 4205SOL    HW217139   2.898   3.547   3.177
 4205SOL    HW317140   2.985   3.657   3.234
 4205SOL    MW417141   2.969   3.573   3.221
 4206SOL     OW17142   3.092   3.527   2.717
 4206SOL    HW217143   3.139   3.600   2.676
 4206SOL    HW317144   3.013   3.566   2.753
 4206SOL    MW417145   3.087   3.542   2.716
 4207SOL     OW17146   3.500   3.622   2.992
 4207SOL    HW217147   3.543   3.592   3.072
 4207SOL    HW317148   3.419   3.570   2.989
 4207SOL    MW417149   3.495   3.611   3.002
 4208SOL     OW17150   2.585   2.586   3.699
 4208SOL    HW217151   2.655   2.528   3.671
 4208SOL    HW317152   2.528   2.531   3.754
 4208SOL    MW417153   2.587   2.573   3.703
 4209SOL     OW17154   3.372   2.798   3.332
 4209SOL    HW217155   3.377   2.851   3.412
 4209SOL    HW317156   3.334   2.715   3.360
 4209SOL    MW417157   3.368   2.793   3.347
 4210SOL     OW17158   3.012   1.933   3.578
 4210SOL    HW217159   3.007   1.840   3.559
 4210SOL    HW317160   3.095   1.944   3.624
 4210SOL    MW417161   3.020   1.922   3.582
 4211SOL     OW17162   2.386   2.453   2.032
 4211SOL    HW217163   2.352   2.509   2.102
 4211SOL    HW317164   2.457   2.403   2.072
 4211SOL    MW417165   2.392   2.454   2.046
 4212SOL     OW17166   3.482   3.204   2.854
 4212SOL    HW217167   3.517   3.186   2.767
 4212SOL    HW317168   3.387   3.205   2.841
 4212SOL    MW417169   3.474   3.201   2.841
 4213SOL     OW17170   2.911   2.852   3.223
 4213SOL    HW217171   2.954   2.887   3.301
 4213SOL    HW317172   2.894   2.929   3.169
 4213SOL    MW417173   2.914   2.867   3.226
 4214SOL     OW17174   3.442   2.339   2.096
 4214SOL    HW217175   3.434   2.410   2.033
 4214SOL    HW317176   3.460   2.383   2.179
 4214SOL    MW417177   3.443   2.353   2.098
 4215SOL     OW17178   2.302   1.994   2.525
 4215SOL    HW217179   2.352   2.037   2.456
 4215SOL    HW317180   2.217   2.038   2.525
 4215SOL    MW417181   2.299   2.007   2.516
 4216SOL     OW17182   2.061   3.056   3.385
 4216SOL    HW217183   2.089   3.009   3.463
 4216SOL    HW317184   1.982   3.011   3.356
 4216SOL    MW417185   2.054   3.045   3.391
 4217SOL     OW17186   2.569   2.383   3.352
 4217SOL    HW217187   2.541   2.471   3.376
 4217SOL    HW317188   2.538   2.327   3.423
 4217SOL    MW417189   2.561   2.386   3.364
 4218SOL     OW17190   3.111   2.601   2.071
 4218SOL    HW217191   3.158   2.619   1.990
 4218SOL    HW317192   3.077   2.685   2.099
 4218SOL    MW417193   3.113   2.615   2.064
 4219SOL     OW17194   2.224   2.779   2.565
 4219SOL    HW217195   2.282   2.835   2.513
 4219SOL    HW317196   2.268   2.694   2.567
 4219SOL    MW417197   2.237   2.776   2.558
 4220SOL     OW17198   3.364   2.131   2.402
 4220SOL    HW217199   3.286   2.081   2.427
 4220SOL    HW317200   3.335   2.222   2.402
 4220SOL    MW417201   3.350   2.135   2.405
 4221SOL     OW17202   2.950   2.093   2.561
 4221SOL    HW217203   2.970   2.168   2.505
 4221SOL    HW317204   2.930   2.132   2.646
 4221SOL    MW417205   2.951   2.109   2.565
 4222SOL     OW17206   2.846   3.343   1.893
 4222SOL    HW217207   2.873   3.421   1.845
 4222SOL    HW317208   2.753   3.358   1.912
 4222SOL    MW417209   2.837   3.356   1.889
 4223SOL     OW17210   3.710   2.866   3.580
 4223SOL    HW217211   3.623   2.846   3.616
 4223SOL    HW317212   3.764   2.792   3.605
 4223SOL    MW417213   3.705   2.855   3.588
 4224SOL     OW17214   1.931   3.379   2.737
 4224SOL    HW217215   1.963   3.383   2.828
 4224SOL    HW317216   1.836   3.387   2.745
 4224SOL    MW417217   1.923   3.382   2.750
 4225SOL     OW17218   1.886   2.505   2.284
 4225SOL    HW217219   1.826   2.477   2.354
 4225SOL    HW317220   1.960   2.445   2.290
 4225SOL    MW417221   1.888   2.494   2.293
 4226SOL     OW17222   3.454   3.717   3.718
 4226SOL    HW217223   3.499   3.641   3.683
 4226SOL    HW317224   3.492   3.730   3.805
 4226SOL    MW417225   3.464   3.710   3.724
 4227SOL     OW17226   3.054   3.236   2.444
 4227SOL    HW217227   3.077   3.187   2.522
 4227SOL    HW317228   3.135   3.278   2.416
 4227SOL    MW417229   3.067   3.236   2.451
 4228SOL     OW17230   2.312   2.244   3.173
 4228SOL    HW217231   2.345   2.325   3.213
 4228SOL    HW317232   2.285   2.270   3.085
 4228SOL    MW417233   2.311   2.258   3.167
 4229SOL     OW17234   2.266   2.211   2.909
 4229SOL    HW217235   2.296   2.125   2.880
 4229SOL    HW317236   2.171   2.204   2.912
 4229SOL    MW417237   2.258   2.200   2.907
 4230SOL     OW17238   3.095   2.420   3.600
 4230SOL    HW217239   3.147   2.355   3.553
 4230SOL    HW317240   3.053   2.471   3.530
 4230SOL    MW417241   3.096   2.417   3.583
 4231SOL     OW17242   3.194   2.215   3.461
 4231SOL    HW217243   3.101   2.199   3.448
 4231SOL    HW317244   3.220   2.153   3.529
 4231SOL    MW417245   3.184   2.205   3.468
 4232SOL     OW17246   2.409   1.989   2.800
 4232SOL    HW217247   2.419   1.898   2.826
 4232SOL    HW317248   2.365   1.985   2.715
 4232SOL    MW417249   2.405   1.977   2.792
 4233SOL     OW17250   2.503   3.604   3.346
 4233SOL    HW217251   2.420   3.589   3.391
 4233SOL    HW317252   2.562   3.537   3.381
 4233SOL    MW417253   2.501   3.594   3.356
 4234SOL     OW17254   3.560   2.311   2.971
 4234SOL    HW217255   3.493   2.344   3.031
 4234SOL    HW317256   3.603   2.389   2.937
 4234SOL    MW417257   3.558   2.326   2.975
 4235SOL     OW17258   3.738   3.031   2.941
 4235SOL    HW217259   3.731   2.971   2.866
 4235SOL    HW317260   3.664   3.091   2.930
 4235SOL    MW417261   3.728   3.031   2.930
 4236SOL     OW17262   3.120   2.893   2.859
 4236SOL    HW217263   3.134   2.865   2.950
 4236SOL    HW317264   3.206   2.924   2.831
 4236SOL    MW417265   3.133   2.894   2.868
 4237SOL     OW17266   3.203   2.388   3.138
 4237SOL    HW217267   3.224   2.389   3.045
 4237SOL    HW317268   3.248   2.310   3.171
 4237SOL    MW417269   3.210   2.378   3.130
 4238SOL     OW17270   3.696   2.519   3.680
 4238SOL    HW217271   3.733   2.464   3.749
 4238SOL    HW317272   3.721   2.476   3.598
 4238SOL    MW417273   3.703   2.507   3.679
 4239SOL     OW17274   3.243   2.817   3.731
 4239SOL    HW217275   3.309   2.765   3.685
 4239SOL    HW317276   3.263   2.804   3.824
 4239SOL    MW417277   3.254   2.808   3.738
 4240SOL     OW17278   3.194   1.903   2.080
 4240SOL    HW217279   3.268   1.947   2.123
 4240SOL    HW317280   3.118   1.957   2.102
 4240SOL    MW417281   3.194   1.915   2.088
 4241SOL     OW17282   3.254   2.678   2.358
 4241SOL    HW217283   3.169   2.648   2.328
 4241SOL    HW317284   3.246   2.685   2.453
 4241SOL    MW417285   3.242   2.676   2.367
 4242SOL     OW17286   2.330   3.141   3.089
 4242SOL    HW217287   2.342   3.168   3.180
 4242SOL    HW317288   2.311   3.222   3.042
 4242SOL    MW417289   2.329   3.156   3.094
 4243SOL     OW17290   2.614   2.121   2.912
 4243SOL    HW217291   2.587   2.123   3.003
 4243SOL    HW317292   2.544   2.073   2.867
 4243SOL    MW417293   2.602   2.117   2.919
 4244SOL     OW17294   2.468   3.613   3.074
 4244SOL    HW217295   2.520   3.690   3.051
 4244SOL    HW317296   2.477   3.605   3.169
 4244SOL    MW417297   2.477   3.620   3.085
 4245SOL     OW17298   3.370   3.198   3.306
 4245SOL    HW217299   3.355   3.127   3.369
 4245SOL    HW317300   3.416   3.156   3.234
 4245SOL    MW417301   3.376   3.182   3.306
 4246SOL     OW17302   2.444   2.929   3.423
 4246SOL    HW217303   2.481   2.934   3.335
 4246SOL    HW317304   2.483   3.002   3.470
 4246SOL    MW417305   2.454   2.939   3.418
 4247SOL     OW17306   2.624   2.972   3.235
 4247SOL    HW217307   2.683   2.918   3.288
 4247SOL    HW317308   2.639   2.944   3.145
 4247SOL    MW417309   2.634   2.961   3.231
 4248SOL     OW17310   2.627   2.344   2.084
 4248SOL    HW217311   2.700   2.393   2.047
 4248SOL    HW317312   2.643   2.253   2.058
 4248SOL    MW417313   2.639   2.339   2.077
 4249SOL     OW17314   3.435   3.461   3.407
 4249SOL    HW217315   3.477   3.446   3.492
 4249SOL    HW317316   3.426   3.374   3.369
 4249SOL    MW417317   3.439   3.449   3.414
 4250SOL     OW17318   3.095   1.940   2.998
 4250SOL    HW217319   3.150   1.949   2.920
 4250SOL    HW317320   3.150   1.974   3.069
 4250SOL    MW417321   3.109   1.945   2.997
 4251SOL     OW17322   2.102   2.853   2.182
 4251SOL    HW217323   2.039   2.869   2.111
 4251SOL    HW317324   2.049   2.816   2.253
 4251SOL    MW417325   2.087   2.850   2.182
 4252SOL     OW17326   2.458   3.207   2.041
 4252SOL    HW217327   2.473   3.183   2.133
 4252SOL    HW317328   2.366   3.185   2.025
 4252SOL    MW417329   2.448   3.200   2.051
 4253SOL     OW17330   2.997   3.438   2.193
 4253SOL    HW217331   3.005   3.356   2.144
 4253SOL    HW317332   2.916   3.477   2.160
 4253SOL    MW417333   2.987   3.433   2.183
 4254SOL     OW17334   2.256   3.596   2.762
 4254SOL    HW217335   2.260   3.507   2.797
 4254SOL    HW317336   2.282   3.587   2.671
 4254SOL    MW417337   2.259   3.584   2.754
 4255SOL     OW17338   2.873   3.074   3.005
 4255SOL    HW217339   2.805   3.008   3.021
 4255SOL    HW317340   2.891   3.068   2.912
 4255SOL    MW417341   2.866   3.065   2.996
 4256SOL     OW17342   1.962   3.349   3.256
 4256SOL    HW217343   1.952   3.307   3.342
 4256SOL    HW317344   1.883   3.402   3.246
 4256SOL    MW417345   1.951   3.350   3.267
 4257SOL     OW17346   2.866   2.213   2.826
 4257SOL    HW217347   2.796   2.165   2.871
 4257SOL    HW317348   2.898   2.276   2.890
 4257SOL    MW417349   2.861   2.215   2.840
 4258SOL     OW17350   2.517   2.649   3.446
 4258SOL    HW217351   2.510   2.744   3.434
 4258SOL    HW317352   2.526   2.638   3.541
 4258SOL    MW417353   2.518   2.661   3.456
 4259SOL     OW17354   2.238   3.164   3.704
 4259SOL    HW217355   2.310   3.166   3.641
 4259SOL    HW317356   2.208   3.073   3.703
 4259SOL    MW417357   2.243   3.153   3.696
 4260SOL     OW17358   3.322   1.927   3.171
 4260SOL    HW217359   3.393   1.873   3.135
 4260SOL    HW317360   3.321   1.906   3.264
 4260SOL    MW417361   3.331   1.918   3.179
 4261SOL     OW17362   3.522   3.457   3.655
 4261SOL    HW217363   3.495   3.454   3.746
 4261SOL    HW317364   3.618   3.461   3.658
 4261SOL    MW417365   3.532   3.457   3.667
 4262SOL     OW17366   2.333   2.319   2.639
 4262SOL    HW217367   2.404   2.267   2.602
 4262SOL    HW317368   2.319   2.284   2.726
 4262SOL    MW417369   2.341   2.308   2.646
 4263SOL     OW17370   1.888   3.654   3.711
 4263SOL    HW217371   1.938   3.632   3.633
 4263SOL    HW317372   1.896   3.749   3.719
 4263SOL    MW417373   1.896   3.663   3.702
 4264SOL     OW17374   2.649   3.412   2.715
 4264SOL    HW217375   2.577   3.349   2.728
 4264SOL    HW317376   2.610   3.497   2.733
 4264SOL    MW417377   2.633   3.415   2.718
 4265SOL     OW17378   2.969   2.260   2.363
 4265SOL    HW217379   2.991   2.197   2.295
 4265SOL    HW317380   2.874   2.252   2.374
 4265SOL    MW417381   2.959   2.251   2.355
 4266SOL     OW17382   2.054   1.950   2.295
 4266SOL    HW217383   2.125   1.971   2.234
 4266SOL    HW317384   2.008   1.878   2.253
 4266SOL    MW417385   2.058   1.944   2.281
 4267SOL     OW17386   1.885   2.417   3.438
 4267SOL    HW217387   1.949   2.483   3.413
 4267SOL    HW317388   1.804   2.444   3.395
 4267SOL    MW417389   1.883   2.429   3.430
 4268SOL     OW17390   3.623   3.324   2.395
 4268SOL    HW217391   3.593   3.257   2.456
 4268SOL    HW317392   3.717   3.330   2.409
 4268SOL    MW417393   3.631   3.316   2.405
 4269SOL     OW17394   3.179   3.001   2.325
 4269SOL    HW217395   3.151   3.087   2.358
 4269SOL    HW317396   3.207   3.017   2.235
 4269SOL    MW417397   3.179   3.015   2.317
 4270SOL     OW17398   2.841   1.921   2.378
 4270SOL    HW217399   2.878   1.980   2.443
 4270SOL    HW317400   2.818   1.977   2.304
 4270SOL    MW417401   2.842   1.936   2.377
 4271SOL     OW17402   3.694   2.803   2.800
 4271SOL    HW217403   3.685   2.835   2.711
 4271SOL    HW317404   3.647   2.719   2.800
 4271SOL    MW417405   3.687   2.796   2.790
 4272SOL     OW17406   2.070   2.643   3.379
 4272SOL    HW217407   2.091   2.712   3.317
 4272SOL    HW317408   2.150   2.590   3.384
 4272SOL    MW417409   2.083   2.644   3.373
 4273SOL     OW17410   3.606   2.734   2.501
 4273SOL    HW217411   3.700   2.723   2.489
 4273SOL    HW317412   3.582   2.806   2.442
 4273SOL    MW417413   3.616   2.742   2.492
 4274SOL     OW17414   2.055   2.658   3.646
 4274SOL    HW217415   1.981   2.602   3.672
 4274SOL    HW317416   2.050   2.661   3.551
 4274SOL    MW417417   2.044   2.651   3.636
 4275SOL     OW17418   2.221   1.945   3.096
 4275SOL    HW217419   2.264   2.029   3.116
 4275SOL    HW317420   2.294   1.883   3.089
 4275SOL    MW417421   2.236   1.948   3.097
 4276SOL     OW17422   2.262   2.612   2.274
 4276SOL    HW217423   2.262   2.707   2.259
 4276SOL    HW317424   2.339   2.596   2.328
 4276SOL    MW417425   2.272   2.623   2.279
 4277SOL     OW17426   3.038   2.471   3.338
 4277SOL    HW217427   3.074   2.444   3.254
 4277SOL    HW317428   2.951   2.505   3.317
 4277SOL    MW417429   3.032   2.472   3.325
 4278SOL     OW17430   2.021   2.343   2.563
 4278SOL    HW217431   2.083   2.350   2.636
 4278SOL    HW317432   2.021   2.250   2.540
 4278SOL    MW417433   2.029   2.332   2.570
 4279SOL     OW17434   3.568   3.683   2.095
 4279SOL    HW217435   3.635   3.716   2.035
 4279SOL    HW317436   3.525   3.762   2.129
 4279SOL    MW417437   3.570   3.698   2.091
 4280SOL     OW17438   2.703   2.604   3.047
 4280SOL    HW217439   2.661   2.522   3.023
 4280SOL    HW317440   2.704   2.603   3.143
 4280SOL    MW417441   2.696   2.593   3.056
 4281SOL     OW17442   3.374   3.737   3.446
 4281SOL    HW217443   3.377   3.643   3.429
 4281SOL    HW317444   3.397   3.745   3.538
 4281SOL    MW417445   3.377   3.725   3.456
 4282SOL     OW17446   2.507   2.074   3.152
 4282SOL    HW217447   2.438   2.137   3.173
 4282SOL    HW317448   2.534   2.038   3.237
 4282SOL    MW417449   2.501   2.077   3.165
 4283SOL     OW17450   1.890   2.915   2.021
 4283SOL    HW217451   1.859   2.980   2.084
 4283SOL    HW317452   1.839   2.837   2.040
 4283SOL    MW417453   1.880   2.912   2.031
 4284SOL     OW17454   3.302   1.927   2.769
 4284SOL    HW217455   3.390   1.936   2.806
 4284SOL    HW317456   3.312   1.868   2.695
 4284SOL    MW417457   3.316   1.921   2.763
 4285SOL     OW17458   3.334   2.666   2.613
 4285SOL    HW217459   3.414   2.681   2.562
 4285SOL    HW317460   3.327   2.571   2.619
 4285SOL    MW417461   3.343   2.655   2.608
 4286SOL     OW17462   2.474   3.715   1.963
 4286SOL    HW217463   2.379   3.715   1.955
 4286SOL    HW317464   2.490   3.661   2.041
 4286SOL    MW417465   2.464   3.709   1.972
 4287SOL     OW17466   2.784   2.592   3.310
 4287SOL    HW217467   2.853   2.659   3.307
 4287SOL    HW317468   2.717   2.630   3.366
 4287SOL    MW417469   2.785   2.605   3.317
 4288SOL     OW17470   2.202   2.892   3.558
 4288SOL    HW217471   2.156   2.808   3.560
 4288SOL    HW317472   2.259   2.886   3.482
 4288SOL    MW417473   2.204   2.880   3.550
 4289SOL     OW17474   3.319   2.535   1.879
 4289SOL    HW217475   3.247   2.511   1.821
 4289SOL    HW317476   3.385   2.572   1.821
 4289SOL    MW417477   3.318   2.537   1.864
 4290SOL     OW17478   2.453   3.267   2.559
 4290SOL    HW217479   2.518   3.200   2.580
 4290SOL    HW317480   2.505   3.344   2.536
 4290SOL    MW417481   2.468   3.269   2.558
 4291SOL     OW17482   2.714   2.432   2.689
 4291SOL    HW217483   2.654   2.450   2.761
 4291SOL    HW317484   2.748   2.344   2.708
 4291SOL    MW417485   2.710   2.422   2.702
 4292SOL     OW17486   3.655   1.931   3.358
 4292SOL    HW217487   3.576   1.977   3.386
 4292SOL    HW317488   3.690   1.985   3.287
 4292SOL    MW417489   3.649   1.944   3.352
 4293SOL     OW17490   2.939   3.015   2.708
 4293SOL    HW217491   3.031   2.996   2.726
 4293SOL    HW317492   2.912   2.945   2.648
 4293SOL    MW417493   2.947   3.003   2.702
 4294SOL     OW17494   2.732   2.835   2.063
 4294SOL    HW217495   2.718   2.747   2.028
 4294SOL    HW317496   2.683   2.892   2.004
 4294SOL    MW417497   2.724   2.830   2.051
 4295SOL     OW17498   3.213   3.253   2.804
 4295SOL    HW217499   3.186   3.337   2.769
 4295SOL    HW317500   3.173   3.248   2.891
 4295SOL    MW417501   3.206   3.262   2.810
 4296SOL     OW17502   3.132   3.201   3.072
 4296SOL    HW217503   3.143   3.168   3.161
 4296SOL    HW317504   3.051   3.160   3.041
 4296SOL    MW417505   3.122   3.193   3.078
 4297SOL     OW17506   2.145   2.559   2.842
 4297SOL    HW217507   2.095   2.558   2.923
 4297SOL    HW317508   2.165   2.651   2.826
 4297SOL    MW417509   2.141   2.571   2.850
 4298SOL     OW17510   3.212   3.323   3.604
 4298SOL    HW217511   3.212   3.417   3.620
 4298SOL    HW317512   3.257   3.313   3.520
 4298SOL    MW417513   3.218   3.333   3.595
 4299SOL     OW17514   3.451   2.041   2.165
 4299SOL    HW217515   3.444   2.045   2.260
 4299SOL    HW317516   3.463   2.132   2.138
 4299SOL    MW417517   3.452   2.054   2.173
 4300SOL     OW17518   2.740   2.604   2.279
 4300SOL    HW217519   2.720   2.590   2.186
 4300SOL    HW317520   2.833   2.583   2.286
 4300SOL    MW417521   2.750   2.599   2.268
 4301SOL     OW17522   2.067   2.227   3.583
 4301SOL    HW217523   2.024   2.286   3.520
 4301SOL    HW317524   2.135   2.282   3.623
 4301SOL    MW417525   2.071   2.242   3.580
 4302SOL     OW17526   3.179   2.847   3.128
 4302SOL    HW217527   3.242   2.844   3.201
 4302SOL    HW317528   3.095   2.865   3.170
 4302SOL    MW417529   3.175   2.849   3.143
 4303SOL     OW17530   2.723   3.562   2.317
 4303SOL    HW217531   2.781   3.633   2.344
 4303SOL    HW317532   2.746   3.490   2.375
 4303SOL    MW417533   2.734   3.562   2.328
 4304SOL     OW17534   3.518   2.024   2.907
 4304SOL    HW217535   3.563   1.942   2.926
 4304SOL    HW317536   3.538   2.080   2.983
 4304SOL    MW417537   3.528   2.020   2.919
 4305SOL     OW17538   1.966   1.867   3.006
 4305SOL    HW217539   1.957   1.868   2.911
 4305SOL    HW317540   2.060   1.879   3.021
 4305SOL    MW417541   1.978   1.870   2.997
 4306SOL     OW17542   3.603   3.060   2.626
 4306SOL    HW217543   3.582   3.006   2.549
 4306SOL    HW317544   3.699   3.058   2.630
 4306SOL    MW417545   3.612   3.053   2.615
 4307SOL     OW17546   2.295   3.205   3.369
 4307SOL    HW217547   2.216   3.155   3.392
 4307SOL    HW317548   2.365   3.164   3.419
 4307SOL    MW417549   2.293   3.193   3.379
 4308SOL     OW17550   2.179   1.994   2.052
 4308SOL    HW217551   2.108   2.049   2.020
 4308SOL    HW317552   2.221   1.960   1.973
 4308SOL    MW417553   2.175   1.996   2.038
 4309SOL     OW17554   3.303   2.491   2.888
 4309SOL    HW217555   3.226   2.537   2.854
 4309SOL    HW317556   3.360   2.560   2.922
 4309SOL    MW417557   3.300   2.506   2.888
 4310SOL     OW17558   1.935   2.093   1.901
 4310SOL    HW217559   1.902   2.172   1.945
 4310SOL    HW317560   1.990   2.126   1.830
 4310SOL    MW417561   1.938   2.107   1.898
 4311SOL     OW17562   1.969   3.350   2.090
 4311SOL    HW217563   1.986   3.434   2.132
 4311SOL    HW317564   2.004   3.359   2.002
 4311SOL    MW417565   1.974   3.363   2.084
 4312SOL     OW17566   3.241   3.439   2.307
 4312SOL    HW217567   3.304   3.429   2.236
 4312SOL    HW317568   3.158   3.459   2.262
 4312SOL    MW417569   3.238   3.440   2.292
 4313SOL     OW17570   3.604   2.707   3.993
 4313SOL    HW217571   3.645   2.649   4.058
 4313SOL    HW317572   3.511   2.699   4.010
 4313SOL    MW417573   3.598   2.699   4.003
 4314SOL     OW17574   3.470   2.639   4.988
 4314SOL    HW217575   3.425   2.706   5.039
 4314SOL    HW317576   3.558   2.675   4.974
 4314SOL    MW417577   3.476   2.652   4.992
 4315SOL     OW17578   2.398   2.890   4.222
 4315SOL    HW217579   2.488   2.865   4.206
 4315SOL    HW317580   2.394   2.983   4.199
 4315SOL    MW417581   2.410   2.899   4.217
 4316SOL     OW17582   3.514   3.593   4.364
 4316SOL    HW217583   3.526   3.539   4.442
 4316SOL    HW317584   3.551   3.541   4.293
 4316SOL    MW417585   3.520   3.578   4.365
 4317SOL     OW17586   2.893   3.478   5.365
 4317SOL    HW217587   2.934   3.514   5.286
 4317SOL    HW317588   2.928   3.389   5.372
 4317SOL    MW417589   2.904   3.471   5.356
 4318SOL     OW17590   3.450   3.033   4.969
 4318SOL    HW217591   3.371   2.998   4.927
 4318SOL    HW317592   3.477   3.105   4.913
 4318SOL    MW417593   3.443   3.038   4.956
 4319SOL     OW17594   2.682   2.346   4.235
 4319SOL    HW217595   2.657   2.434   4.263
 4319SOL    HW317596   2.679   2.349   4.139
 4319SOL    MW417597   2.678   2.358   4.227
 4320SOL     OW17598   2.124   2.374   4.163
 4320SOL    HW217599   2.156   2.462   4.145
 4320SOL    HW317600   2.112   2.372   4.258
 4320SOL    MW417601   2.127   2.386   4.175
 4321SOL     OW17602   2.202   2.787   5.064
 4321SOL    HW217603   2.265   2.734   5.015
 4321SOL    HW317604   2.183   2.861   5.007
 4321SOL    MW417605   2.208   2.789   5.051
 4322SOL     OW17606   2.523   2.129   4.250
 4322SOL    HW217607   2.581   2.205   4.252
 4322SOL    HW317608   2.458   2.150   4.183
 4322SOL    MW417609   2.522   2.141   4.241
 4323SOL     OW17610   2.610   3.056   4.425
 4323SOL    HW217611   2.690   3.059   4.477
 4323SOL    HW317612   2.638   3.023   4.339
 4323SOL    MW417613   2.624   3.052   4.420
 4324SOL     OW17614   2.635   3.397   5.328
 4324SOL    HW217615   2.719   3.423   5.367
 4324SOL    HW317616   2.659   3.341   5.254
 4324SOL    MW417617   2.649   3.393   5.323
 4325SOL     OW17618   2.387   2.560   4.416
 4325SOL    HW217619   2.372   2.480   4.467
 4325SOL    HW317620   2.469   2.595   4.450
 4325SOL    MW417621   2.395   2.552   4.428
 4326SOL     OW17622   2.724   3.246   5.101
 4326SOL    HW217623   2.688   3.312   5.041
 4326SOL    HW317624   2.652   3.184   5.114
 4326SOL    MW417625   2.710   3.246   5.095
 4327SOL     OW17626   2.529   2.386   4.793
 4327SOL    HW217627   2.435   2.382   4.811
 4327SOL    HW317628   2.559   2.295   4.802
 4327SOL    MW417629   2.520   2.374   4.796
 4328SOL     OW17630   2.275   2.800   4.697
 4328SOL    HW217631   2.230   2.807   4.613
 4328SOL    HW317632   2.255   2.883   4.741
 4328SOL    MW417633   2.267   2.812   4.691
 4329SOL     OW17634   1.972   3.646   4.572
 4329SOL    HW217635   2.061   3.638   4.607
 4329SOL    HW317636   1.936   3.558   4.577
 4329SOL    MW417637   1.979   3.633   4.577
 4330SOL     OW17638   3.237   3.038   3.941
 4330SOL    HW217639   3.155   3.074   3.907
 4330SOL    HW317640   3.305   3.081   3.890
 4330SOL    MW417641   3.235   3.048   3.929
 4331SOL     OW17642   2.236   3.173   4.607
 4331SOL    HW217643   2.212   3.226   4.683
 4331SOL    HW317644   2.292   3.231   4.555
 4331SOL    MW417645   2.240   3.188   4.610
 4332SOL     OW17646   2.798   2.817   4.417
 4332SOL    HW217647   2.712   2.804   4.457
 4332SOL    HW317648   2.851   2.744   4.449
 4332SOL    MW417649   2.794   2.806   4.426
 4333SOL     OW17650   2.206   3.469   5.202
 4333SOL    HW217651   2.114   3.445   5.187
 4333SOL    HW317652   2.250   3.386   5.219
 4333SOL    MW417653   2.200   3.454   5.201
 4334SOL     OW17654   2.789   3.179   4.134
 4334SOL    HW217655   2.766   3.241   4.202
 4334SOL    HW317656   2.746   3.097   4.160
 4334SOL    MW417657   2.781   3.175   4.145
 4335SOL     OW17658   3.662   2.180   4.590
 4335SOL    HW217659   3.599   2.160   4.659
 4335SOL    HW317660   3.652   2.109   4.527
 4335SOL    MW417661   3.652   2.167   4.591
 4336SOL     OW17662   2.286   2.152   4.102
 4336SOL    HW217663   2.260   2.114   4.018
 4336SOL    HW317664   2.223   2.222   4.118
 4336SOL    MW417665   2.275   2.155   4.093
 4337SOL     OW17666   2.121   3.113   4.139
 4337SOL    HW217667   2.069   3.181   4.095
 4337SOL    HW317668   2.118   3.039   4.079
 4337SOL    MW417669   2.113   3.112   4.126
 4338SOL     OW17670   2.783   3.576   3.917
 4338SOL    HW217671   2.738   3.592   4.000
 4338SOL    HW317672   2.714   3.541   3.859
 4338SOL    MW417673   2.769   3.573   3.919
 4339SOL     OW17674   3.718   2.349   3.892
 4339SOL    HW217675   3.627   2.351   3.920
 4339SOL    HW317676   3.763   2.411   3.950
 4339SOL    MW417677   3.711   2.357   3.902
 4340SOL     OW17678   3.463   2.952   4.242
 4340SOL    HW217679   3.373   2.952   4.277
 4340SOL    HW317680   3.456   2.998   4.159
 4340SOL    MW417681   3.450   2.958   4.236
 4341SOL     OW17682   3.263   2.587   5.314
 4341SOL    HW217683   3.332   2.525   5.291
 4341SOL    HW317684   3.188   2.561   5.261
 4341SOL    MW417685   3.263   2.574   5.305
 4342SOL     OW17686   2.004   3.467   4.866
 4342SOL    HW217687   1.987   3.413   4.943
 4342SOL    HW317688   1.992   3.557   4.896
 4342SOL    MW417689   2.001   3.471   4.880
 4343SOL     OW17690   2.999   2.974   5.306
 4343SOL    HW217691   2.984   3.067   5.291
 4343SOL    HW317692   3.094   2.964   5.306
 4343SOL    MW417693   3.008   2.984   5.303
 4344SOL     OW17694   2.795   2.398   5.507
 4344SOL    HW217695   2.885   2.399   5.474
 4344SOL    HW317696   2.754   2.323   5.465
 4344SOL    MW417697   2.801   2.388   5.498
 4345SOL     OW17698   3.370   2.930   4.634
 4345SOL    HW217699   3.373   2.864   4.565
 4345SOL    HW317700   3.455   2.973   4.630
 4345SOL    MW417701   3.382   2.926   4.625
 4346SOL     OW17702   2.990   2.533   4.203
 4346SOL    HW217703   3.016   2.557   4.114
 4346SOL    HW317704   2.972   2.440   4.199
 4346SOL    MW417705   2.992   2.525   4.190
 4347SOL     OW17706   3.655   3.153   4.054
 4347SOL    HW217707   3.611   3.194   4.129
 4347SOL    HW317708   3.712   3.221   4.019
 4347SOL    MW417709   3.657   3.167   4.059
 4348SOL     OW17710   2.575   2.202   5.457
 4348SOL    HW217711   2.585   2.128   5.397
 4348SOL    HW317712   2.611   2.171   5.540
 4348SOL    MW417713   2.581   2.188   5.459
 4349SOL     OW17714   2.311   3.569   4.372
 4349SOL    HW217715   2.343   3.657   4.350
 4349SOL    HW317716   2.264   3.541   4.294
 4349SOL    MW417717   2.310   3.577   4.359
 4350SOL     OW17718   3.695   1.931   4.421
 4350SOL    HW217719   3.749   1.882   4.483
 4350SOL    HW317720   3.638   1.865   4.382
 4350SOL    MW417721   3.695   1.915   4.423
 4351SOL     OW17722   2.027   3.629   3.949
 4351SOL    HW217723   2.056   3.719   3.941
 4351SOL    HW317724   1.977   3.612   3.870
 4351SOL    MW417725   2.025   3.637   3.938
 4352SOL     OW17726   2.814   1.884   4.834
 4352SOL    HW217727   2.773   1.962   4.796
 4352SOL    HW317728   2.908   1.902   4.829
 4352SOL    MW417729   2.820   1.896   4.829
 4353SOL     OW17730   3.431   3.437   3.920
 4353SOL    HW217731   3.479   3.506   3.966
 4353SOL    HW317732   3.352   3.481   3.889
 4353SOL    MW417733   3.426   3.451   3.923
 4354SOL     OW17734   2.829   2.562   3.864
 4354SOL    HW217735   2.831   2.509   3.785
 4354SOL    HW317736   2.917   2.599   3.870
 4354SOL    MW417737   2.841   2.561   3.853
 4355SOL     OW17738   3.443   2.488   4.200
 4355SOL    HW217739   3.482   2.488   4.287
 4355SOL    HW317740   3.384   2.564   4.200
 4355SOL    MW417741   3.440   2.499   4.211
 4356SOL     OW17742   2.760   2.855   5.329
 4356SOL    HW217743   2.737   2.835   5.419
 4356SOL    HW317744   2.845   2.899   5.334
 4356SOL    MW417745   2.767   2.858   5.341
 4357SOL     OW17746   2.840   1.992   5.089
 4357SOL    HW217747   2.846   1.954   5.002
 4357SOL    HW317748   2.829   2.086   5.074
 4357SOL    MW417749   2.841   2.000   5.077
 4358SOL     OW17750   2.929   2.481   4.923
 4358SOL    HW217751   3.004   2.510   4.870
 4358SOL    HW317752   2.861   2.546   4.907
 4358SOL    MW417753   2.930   2.493   4.913
 4359SOL     OW17754   3.479   2.449   5.200
 4359SOL    HW217755   3.460   2.358   5.179
 4359SOL    HW317756   3.457   2.498   5.121
 4359SOL    MW417757   3.474   2.442   5.187
 4360SOL     OW17758   3.621   3.543   5.104
 4360SOL    HW217759   3.549   3.505   5.155
 4360SOL    HW317760   3.638   3.628   5.145
 4360SOL    MW417761   3.615   3.548   5.116
 4361SOL     OW17762   2.926   2.187   5.306
 4361SOL    HW217763   2.892   2.226   5.225
 4361SOL    HW317764   2.904   2.095   5.299
 4361SOL    MW417765   2.919   2.180   5.296
 4362SOL     OW17766   3.335   3.001   5.382
 4362SOL    HW217767   3.417   3.042   5.412
 4362SOL    HW317768   3.298   2.963   5.462
 4362SOL    MW417769   3.341   3.002   5.397
 4363SOL     OW17770   3.630   2.374   4.366
 4363SOL    HW217771   3.719   2.343   4.383
 4363SOL    HW317772   3.573   2.314   4.414
 4363SOL    MW417773   3.633   2.362   4.375
 4364SOL     OW17774   2.056   2.088   4.395
 4364SOL    HW217775   2.047   2.028   4.321
 4364SOL    HW317776   1.989   2.059   4.458
 4364SOL    MW417777   2.046   2.075   4.393
 4365SOL     OW17778   2.999   3.181   3.956
 4365SOL    HW217779   2.949   3.183   4.038
 4365SOL    HW317780   2.933   3.199   3.888
 4365SOL    MW417781   2.985   3.183   3.958
 4366SOL     OW17782   2.003   2.261   4.758
 4366SOL    HW217783   1.975   2.352   4.767
 4366SOL    HW317784   1.940   2.222   4.697
 4366SOL    MW417785   1.990   2.267   4.752
 4367SOL     OW17786   2.462   3.599   4.064
 4367SOL    HW217787   2.383   3.557   4.097
 4367SOL    HW317788   2.528   3.582   4.131
 4367SOL    MW417789   2.461   3.591   4.077
 4368SOL     OW17790   3.590   3.119   5.461
 4368SOL    HW217791   3.640   3.045   5.493
 4368SOL    HW317792   3.536   3.146   5.536
 4368SOL    MW417793   3.590   3.113   5.474
 4369SOL     OW17794   2.598   3.014   3.771
 4369SOL    HW217795   2.520   2.960   3.758
 4369SOL    HW317796   2.569   3.087   3.824
 4369SOL    MW417797   2.584   3.016   3.776
 4370SOL     OW17798   3.724   2.754   4.963
 4370SOL    HW217799   3.740   2.792   4.876
 4370SOL    HW317800   3.758   2.820   5.024
 4370SOL    MW417801   3.731   2.767   4.959
 4371SOL     OW17802   3.516   3.463   4.632
 4371SOL    HW217803   3.545   3.530   4.693
 4371SOL    HW317804   3.497   3.387   4.687
 4371SOL    MW417805   3.518   3.463   4.647
 4372SOL     OW17806   3.179   3.530   3.839
 4372SOL    HW217807   3.105   3.493   3.889
 4372SOL    HW317808   3.187   3.620   3.872
 4372SOL    MW417809   3.170   3.537   3.851
 4373SOL     OW17810   1.987   2.536   4.928
 4373SOL    HW217811   2.049   2.566   4.994
 4373SOL    HW317812   1.921   2.605   4.922
 4373SOL    MW417813   1.986   2.549   4.935
 4374SOL     OW17814   3.403   3.204   3.781
 4374SOL    HW217815   3.350   3.253   3.717
 4374SOL    HW317816   3.434   3.270   3.842
 4374SOL    MW417817   3.401   3.218   3.779
 4375SOL     OW17818   2.628   2.093   3.836
 4375SOL    HW217819   2.576   2.013   3.824
 4375SOL    HW317820   2.715   2.070   3.804
 4375SOL    MW417821   2.631   2.079   3.830
 4376SOL     OW17822   2.082   3.645   5.380
 4376SOL    HW217823   2.056   3.713   5.318
 4376SOL    HW317824   2.130   3.582   5.328
 4376SOL    MW417825   2.084   3.645   5.366
 4377SOL     OW17826   2.134   2.964   4.887
 4377SOL    HW217827   2.187   3.039   4.912
 4377SOL    HW317828   2.053   3.002   4.853
 4377SOL    MW417829   2.130   2.979   4.887
 4378SOL     OW17830   2.674   2.868   4.875
 4378SOL    HW217831   2.702   2.777   4.887
 4378SOL    HW317832   2.603   2.862   4.811
 4378SOL    MW417833   2.667   2.856   4.870
 4379SOL     OW17834   1.989   2.733   4.293
 4379SOL    HW217835   2.080   2.748   4.320
 4379SOL    HW317836   1.992   2.654   4.239
 4379SOL    MW417837   2.001   2.725   4.291
 4380SOL     OW17838   2.225   2.441   5.547
 4380SOL    HW217839   2.172   2.521   5.554
 4380SOL    HW317840   2.295   2.453   5.612
 4380SOL    MW417841   2.227   2.454   5.555
 4381SOL     OW17842   2.611   1.991   5.254
 4381SOL    HW217843   2.588   1.899   5.256
 4381SOL    HW317844   2.697   1.993   5.211
 4381SOL    MW417845   2.618   1.981   5.250
 4382SOL     OW17846   2.295   2.515   5.293
 4382SOL    HW217847   2.375   2.565   5.279
 4382SOL    HW317848   2.286   2.509   5.388
 4382SOL    MW417849   2.304   2.521   5.303
 4383SOL     OW17850   2.616   3.665   4.667
 4383SOL    HW217851   2.705   3.680   4.697
 4383SOL    HW317852   2.611   3.712   4.583
 4383SOL    MW417853   2.626   3.673   4.660
 4384SOL     OW17854   3.272   2.040   5.564
 4384SOL    HW217855   3.328   1.967   5.590
 4384SOL    HW317856   3.242   2.078   5.646
 4384SOL    MW417857   3.276   2.035   5.577
 4385SOL     OW17858   1.997   3.345   4.332
 4385SOL    HW217859   1.969   3.384   4.414
 4385SOL    HW317860   2.017   3.254   4.354
 4385SOL    MW417861   1.995   3.337   4.345
 4386SOL     OW17862   2.830   3.388   4.367
 4386SOL    HW217863   2.913   3.342   4.351
 4386SOL    HW317864   2.820   3.387   4.463
 4386SOL    MW417865   2.840   3.381   4.377
 4387SOL     OW17866   3.662   2.533   4.681
 4387SOL    HW217867   3.751   2.563   4.663
 4387SOL    HW317868   3.642   2.473   4.610
 4387SOL    MW417869   3.671   2.530   4.670
 4388SOL     OW17870   3.513   2.712   5.561
 4388SOL    HW217871   3.568   2.636   5.542
 4388SOL    HW317872   3.515   2.720   5.656
 4388SOL    MW417873   3.521   2.703   5.569
 4389SOL     OW17874   2.563   3.445   3.772
 4389SOL    HW217875   2.503   3.514   3.742
 4389SOL    HW317876   2.508   3.387   3.825
 4389SOL    MW417877   2.547   3.447   3.774
 4390SOL     OW17878   3.001   2.090   3.995
 4390SOL    HW217879   2.934   2.066   3.932
 4390SOL    HW317880   3.066   2.139   3.944
 4390SOL    MW417881   3.001   2.092   3.980
 4391SOL     OW17882   2.808   2.274   5.080
 4391SOL    HW217883   2.727   2.315   5.108
 4391SOL    HW317884   2.855   2.342   5.032
 4391SOL    MW417885   2.803   2.289   5.078
 4392SOL     OW17886   3.068   2.612   4.703
 4392SOL    HW217887   3.081   2.706   4.713
 4392SOL    HW317888   3.029   2.602   4.617
 4392SOL    MW417889   3.064   2.623   4.693
 4393SOL     OW17890   2.520   2.807   4.507
 4393SOL    HW217891   2.431   2.798   4.540
 4393SOL    HW317892   2.524   2.897   4.475
 4393SOL    MW417893   2.509   2.818   4.507
 4394SOL     OW17894   3.319   2.390   4.502
 4394SOL    HW217895   3.264   2.311   4.501
 4394SOL    HW317896   3.301   2.431   4.586
 4394SOL    MW417897   3.309   2.385   4.511
 4395SOL     OW17898   2.290   2.077   5.319
 4395SOL    HW217899   2.211   2.095   5.371
 4395SOL    HW317900   2.285   2.139   5.246
 4395SOL    MW417901   2.280   2.087   5.316
 4396SOL     OW17902   2.938   2.594   4.459
 4396SOL    HW217903   2.875   2.526   4.483
 4396SOL    HW317904   2.958   2.575   4.367
 4396SOL    MW417905   2.932   2.581   4.451
 4397SOL     OW17906   2.194   3.489   4.161
 4397SOL    HW217907   2.155   3.536   4.087
 4397SOL    HW317908   2.128   3.424   4.186
 4397SOL    MW417909   2.181   3.487   4.155
 4398SOL     OW17910   2.686   2.898   4.185
 4398SOL    HW217911   2.688   2.872   4.092
 4398SOL    HW317912   2.744   2.835   4.228
 4398SOL    MW417913   2.694   2.887   4.179
 4399SOL     OW17914   3.239   3.458   4.957
 4399SOL    HW217915   3.164   3.504   4.995
 4399SOL    HW317916   3.221   3.365   4.974
 4399SOL    MW417917   3.228   3.452   4.965
 4400SOL     OW17918   3.243   3.666   4.387
 4400SOL    HW217919   3.186   3.619   4.326
 4400SOL    HW317920   3.329   3.627   4.374
 4400SOL    MW417921   3.246   3.657   4.377
 4401SOL     OW17922   3.196   2.142   4.518
 4401SOL    HW217923   3.224   2.074   4.579
 4401SOL    HW317924   3.110   2.113   4.488
 4401SOL    MW417925   3.189   2.129   4.522
 4402SOL     OW17926   2.001   3.076   4.452
 4402SOL    HW217927   2.065   3.108   4.515
 4402SOL    HW317928   2.050   3.012   4.400
 4402SOL    MW417929   2.016   3.072   4.453
 4403SOL     OW17930   2.501   3.152   5.434
 4403SOL    HW217931   2.549   3.235   5.421
 4403SOL    HW317932   2.558   3.100   5.490
 4403SOL    MW417933   2.515   3.156   5.440
 4404SOL     OW17934   2.077   3.394   5.574
 4404SOL    HW217935   2.133   3.318   5.589
 4404SOL    HW317936   2.026   3.372   5.496
 4404SOL    MW417937   2.077   3.381   5.565
 4405SOL     OW17938   3.176   2.246   3.853
 4405SOL    HW217939   3.149   2.312   3.789
 4405SOL    HW317940   3.246   2.289   3.903
 4405SOL    MW417941   3.181   2.259   3.850
 4406SOL     OW17942   2.844   1.951   3.790
 4406SOL    HW217943   2.900   1.943   3.712
 4406SOL    HW317944   2.821   1.861   3.812
 4406SOL    MW417945   2.849   1.938   3.783
 4407SOL     OW17946   3.349   2.802   3.995
 4407SOL    HW217947   3.316   2.891   3.985
 4407SOL    HW317948   3.314   2.773   4.080
 4407SOL    MW417949   3.339   2.811   4.006
 4408SOL     OW17950   2.962   3.231   5.183
 4408SOL    HW217951   2.873   3.237   5.151
 4408SOL    HW317952   3.006   3.310   5.151
 4408SOL    MW417953   2.957   3.241   5.175
 4409SOL     OW17954   2.255   1.899   5.525
 4409SOL    HW217955   2.183   1.864   5.473
 4409SOL    HW317956   2.313   1.940   5.460
 4409SOL    MW417957   2.253   1.900   5.510
 4410SOL     OW17958   2.279   3.389   4.824
 4410SOL    HW217959   2.324   3.451   4.881
 4410SOL    HW317960   2.186   3.408   4.837
 4410SOL    MW417961   2.272   3.399   4.831
 4411SOL     OW17962   3.719   2.918   5.178
 4411SOL    HW217963   3.634   2.931   5.137
 4411SOL    HW317964   3.699   2.882   5.265
 4411SOL    MW417965   3.706   2.914   5.183
 4412SOL     OW17966   2.701   3.457   4.932
 4412SOL    HW217967   2.725   3.446   4.841
 4412SOL    HW317968   2.624   3.514   4.930
 4412SOL    MW417969   2.693   3.462   4.921
 4413SOL     OW17970   2.343   2.840   3.787
 4413SOL    HW217971   2.266   2.853   3.843
 4413SOL    HW317972   2.307   2.804   3.706
 4413SOL    MW417973   2.329   2.836   3.784
 4414SOL     OW17974   2.996   2.813   4.030
 4414SOL    HW217975   2.906   2.834   4.005
 4414SOL    HW317976   3.023   2.886   4.086
 4414SOL    MW417977   2.988   2.825   4.033
 4415SOL     OW17978   2.496   3.162   4.722
 4415SOL    HW217979   2.489   3.141   4.816
 4415SOL    HW317980   2.414   3.130   4.685
 4415SOL    MW417981   2.484   3.156   4.729
 4416SOL     OW17982   3.360   2.172   5.124
 4416SOL    HW217983   3.307   2.174   5.204
 4416SOL    HW317984   3.345   2.085   5.087
 4416SOL    MW417985   3.352   2.162   5.129
 4417SOL     OW17986   3.696   2.096   4.997
 4417SOL    HW217987   3.677   2.163   4.932
 4417SOL    HW317988   3.753   2.034   4.952
 4417SOL    MW417989   3.700   2.097   4.983
 4418SOL     OW17990   1.942   3.254   5.385
 4418SOL    HW217991   1.986   3.187   5.331
 4418SOL    HW317992   1.857   3.216   5.405
 4418SOL    MW417993   1.937   3.240   5.381
 4419SOL     OW17994   2.625   1.929   4.437
 4419SOL    HW217995   2.554   1.990   4.419
 4419SOL    HW317996   2.676   1.926   4.356
 4419SOL    MW417997   2.621   1.935   4.424
 4420SOL     OW17998   2.383   3.169   4.186
 4420SOL    HW217999   2.376   3.201   4.276
 4420SOL    HW318000   2.293   3.153   4.158
 4420SOL    MW418001   2.371   3.171   4.193
 4421SOL     OW18002   2.978   3.562   5.095
 4421SOL    HW218003   2.898   3.547   5.045
 4421SOL    HW318004   2.985   3.657   5.102
 4421SOL    MW418005   2.969   3.573   5.089
 4422SOL     OW18006   3.092   3.527   4.585
 4422SOL    HW218007   3.139   3.600   4.544
 4422SOL    HW318008   3.013   3.566   4.621
 4422SOL    MW418009   3.087   3.542   4.584
 4423SOL     OW18010   3.500   3.622   4.860
 4423SOL    HW218011   3.543   3.592   4.940
 4423SOL    HW318012   3.419   3.570   4.857
 4423SOL    MW418013   3.495   3.611   4.870
 4424SOL     OW18014   2.585   2.586   5.567
 4424SOL    HW218015   2.655   2.528   5.539
 4424SOL    HW318016   2.528   2.531   5.622
 4424SOL    MW418017   2.587   2.573   5.571
 4425SOL     OW18018   3.372   2.798   5.200
 4425SOL    HW218019   3.377   2.851   5.280
 4425SOL    HW318020   3.334   2.715   5.228
 4425SOL    MW418021   3.368   2.793   5.215
 4426SOL     OW18022   3.012   1.933   5.446
 4426SOL    HW218023   3.007   1.840   5.427
 4426SOL    HW318024   3.095   1.944   5.492
 4426SOL    MW418025   3.020   1.922   5.450
 4427SOL     OW18026   2.386   2.453   3.900
 4427SOL    HW218027   2.352   2.509   3.970
 4427SOL    HW318028   2.457   2.403   3.940
 4427SOL    MW418029   2.392   2.454   3.914
 4428SOL     OW18030   3.482   3.204   4.722
 4428SOL    HW218031   3.517   3.186   4.635
 4428SOL    HW318032   3.387   3.205   4.709
 4428SOL    MW418033   3.474   3.201   4.709
 4429SOL     OW18034   2.911   2.852   5.091
 4429SOL    HW218035   2.954   2.887   5.169
 4429SOL    HW318036   2.894   2.929   5.037
 4429SOL    MW418037   2.914   2.867   5.094
 4430SOL     OW18038   3.442   2.339   3.964
 4430SOL    HW218039   3.434   2.410   3.901
 4430SOL    HW318040   3.460   2.383   4.047
 4430SOL    MW418041   3.443   2.353   3.966
 4431SOL     OW18042   2.302   1.994   4.393
 4431SOL    HW218043   2.352   2.037   4.324
 4431SOL    HW318044   2.217   2.038   4.393
 4431SOL    MW418045   2.299   2.007   4.384
 4432SOL     OW18046   2.061   3.056   5.253
 4432SOL    HW218047   2.089   3.009   5.331
 4432SOL    HW318048   1.982   3.011   5.224
 4432SOL    MW418049   2.054   3.045   5.259
 4433SOL     OW18050   2.569   2.383   5.220
 4433SOL    HW218051   2.541   2.471   5.244
 4433SOL    HW318052   2.538   2.327   5.291
 4433SOL    MW418053   2.561   2.386   5.232
 4434SOL     OW18054   3.111   2.601   3.939
 4434SOL    HW218055   3.158   2.619   3.858
 4434SOL    HW318056   3.077   2.685   3.967
 4434SOL    MW418057   3.113   2.615   3.932
 4435SOL     OW18058   2.224   2.779   4.433
 4435SOL    HW218059   2.282   2.835   4.381
 4435SOL    HW318060   2.268   2.694   4.435
 4435SOL    MW418061   2.237   2.776   4.426
 4436SOL     OW18062   3.364   2.131   4.270
 4436SOL    HW218063   3.286   2.081   4.295
 4436SOL    HW318064   3.335   2.222   4.270
 4436SOL    MW418065   3.350   2.135   4.273
 4437SOL     OW18066   2.950   2.093   4.429
 4437SOL    HW218067   2.970   2.168   4.373
 4437SOL    HW318068   2.930   2.132   4.514
 4437SOL    MW418069   2.951   2.109   4.433
 4438SOL     OW18070   2.846   3.343   3.761
 4438SOL    HW218071   2.873   3.421   3.713
 4438SOL    HW318072   2.753   3.358   3.780
 4438SOL    MW418073   2.837   3.356   3.757
 4439SOL     OW18074   3.710   2.866   5.448
 4439SOL    HW218075   3.623   2.846   5.484
 4439SOL    HW318076   3.764   2.792   5.473
 4439SOL    MW418077   3.705   2.855   5.456
 4440SOL     OW18078   1.931   3.379   4.605
 4440SOL    HW218079   1.963   3.383   4.696
 4440SOL    HW318080   1.836   3.387   4.613
 4440SOL    MW418081   1.923   3.382   4.618
 4441SOL     OW18082   1.886   2.505   4.152
 4441SOL    HW218083   1.826   2.477   4.222
 4441SOL    HW318084   1.960   2.445   4.158
 4441SOL    MW418085   1.888   2.494   4.161
 4442SOL     OW18086   3.454   3.717   5.586
 4442SOL    HW218087   3.499   3.641   5.551
 4442SOL    HW318088   3.492   3.730   5.673
 4442SOL    MW418089   3.464   3.710   5.592
 4443SOL     OW18090   3.054   3.236   4.312
 4443SOL    HW218091   3.077   3.187   4.390
 4443SOL    HW318092   3.135   3.278   4.284
 4443SOL    MW418093   3.067   3.236   4.319
 4444SOL     OW18094   2.312   2.244   5.041
 4444SOL    HW218095   2.345   2.325   5.081
 4444SOL    HW318096   2.285   2.270   4.953
 4444SOL    MW418097   2.311   2.258   5.035
 4445SOL     OW18098   2.266   2.211   4.777
 4445SOL    HW218099   2.296   2.125   4.748
 4445SOL    HW318100   2.171   2.204   4.780
 4445SOL    MW418101   2.258   2.200   4.775
 4446SOL     OW18102   3.095   2.420   5.468
 4446SOL    HW218103   3.147   2.355   5.421
 4446SOL    HW318104   3.053   2.471   5.398
 4446SOL    MW418105   3.096   2.417   5.451
 4447SOL     OW18106   3.194   2.215   5.329
 4447SOL    HW218107   3.101   2.199   5.316
 4447SOL    HW318108   3.220   2.153   5.397
 4447SOL    MW418109   3.184   2.205   5.336
 4448SOL     OW18110   2.409   1.989   4.668
 4448SOL    HW218111   2.419   1.898   4.694
 4448SOL    HW318112   2.365   1.985   4.583
 4448SOL    MW418113   2.405   1.977   4.660
 4449SOL     OW18114   2.503   3.604   5.214
 4449SOL    HW218115   2.420   3.589   5.259
 4449SOL    HW318116   2.562   3.537   5.249
 4449SOL    MW418117   2.501   3.594   5.224
 4450SOL     OW18118   3.560   2.311   4.839
 4450SOL    HW218119   3.493   2.344   4.899
 4450SOL    HW318120   3.603   2.389   4.805
 4450SOL    MW418121   3.558   2.326   4.843
 4451SOL     OW18122   3.738   3.031   4.809
 4451SOL    HW218123   3.731   2.971   4.734
 4451SOL    HW318124   3.664   3.091   4.798
 4451SOL    MW418125   3.728   3.031   4.798
 4452SOL     OW18126   3.120   2.893   4.727
 4452SOL    HW218127   3.134   2.865   4.818
 4452SOL    HW318128   3.206   2.924   4.699
 4452SOL    MW418129   3.133   2.894   4.736
 4453SOL     OW18130   3.203   2.388   5.006
 4453SOL    HW218131   3.224   2.389   4.913
 4453SOL    HW318132   3.248   2.310   5.039
 4453SOL    MW418133   3.210   2.378   4.998
 4454SOL     OW18134   3.696   2.519   5.548
 4454SOL    HW218135   3.733   2.464   5.617
 4454SOL    HW318136   3.721   2.476   5.466
 4454SOL    MW418137   3.703   2.507   5.547
 4455SOL     OW18138   3.243   2.817   5.600
 4455SOL    HW218139   3.309   2.765   5.554
 4455SOL    HW318140   3.263   2.804   5.693
 4455SOL    MW418141   3.254   2.808   5.607
 4456SOL     OW18142   3.194   1.903   3.948
 4456SOL    HW218143   3.268   1.947   3.991
 4456SOL    HW318144   3.118   1.957   3.970
 4456SOL    MW418145   3.194   1.915   3.956
 4457SOL     OW18146   3.254   2.678   4.226
 4457SOL    HW218147   3.169   2.648   4.196
 4457SOL    HW318148   3.246   2.685   4.321
 4457SOL    MW418149   3.242   2.676   4.235
 4458SOL     OW18150   2.330   3.141   4.957
 4458SOL    HW218151   2.342   3.168   5.048
 4458SOL    HW318152   2.311   3.222   4.910
 4458SOL    MW418153   2.329   3.156   4.962
 4459SOL     OW18154   2.614   2.121   4.780
 4459SOL    HW218155   2.587   2.123   4.871
 4459SOL    HW318156   2.544   2.073   4.735
 4459SOL    MW418157   2.602   2.117   4.787
 4460SOL     OW18158   2.468   3.613   4.942
 4460SOL    HW218159   2.520   3.690   4.919
 4460SOL    HW318160   2.477   3.605   5.037
 4460SOL    MW418161   2.477   3.620   4.953
 4461SOL     OW18162   3.370   3.198   5.174
 4461SOL    HW218163   3.355   3.127   5.237
 4461SOL    HW318164   3.416   3.156   5.102
 4461SOL    MW418165   3.376   3.182   5.174
 4462SOL     OW18166   2.444   2.929   5.291
 4462SOL    HW218167   2.481   2.934   5.203
 4462SOL    HW318168   2.483   3.002   5.338
 4462SOL    MW418169   2.454   2.939   5.286
 4463SOL     OW18170   2.624   2.972   5.103
 4463SOL    HW218171   2.683   2.918   5.156
 4463SOL    HW318172   2.639   2.944   5.013
 4463SOL    MW418173   2.634   2.961   5.099
 4464SOL     OW18174   2.627   2.344   3.952
 4464SOL    HW218175   2.700   2.393   3.915
 4464SOL    HW318176   2.643   2.253   3.926
 4464SOL    MW418177   2.639   2.339   3.945
 4465SOL     OW18178   3.435   3.461   5.275
 4465SOL    HW218179   3.477   3.446   5.360
 4465SOL    HW318180   3.426   3.374   5.237
 4465SOL    MW418181   3.439   3.449   5.282
 4466SOL     OW18182   3.095   1.940   4.866
 4466SOL    HW218183   3.150   1.949   4.788
 4466SOL    HW318184   3.150   1.974   4.937
 4466SOL    MW418185   3.109   1.945   4.865
 4467SOL     OW18186   2.102   2.853   4.050
 4467SOL    HW218187   2.039   2.869   3.979
 4467SOL    HW318188   2.049   2.816   4.121
 4467SOL    MW418189   2.087   2.850   4.050
 4468SOL     OW18190   2.458   3.207   3.909
 4468SOL    HW218191   2.473   3.183   4.001
 4468SOL    HW318192   2.366   3.185   3.893
 4468SOL    MW418193   2.448   3.200   3.919
 4469SOL     OW18194   2.997   3.438   4.061
 4469SOL    HW218195   3.005   3.356   4.012
 4469SOL    HW318196   2.916   3.477   4.028
 4469SOL    MW418197   2.987   3.433   4.051
 4470SOL     OW18198   2.256   3.596   4.630
 4470SOL    HW218199   2.260   3.507   4.665
 4470SOL    HW318200   2.282   3.587   4.539
 4470SOL    MW418201   2.259   3.584   4.622
 4471SOL     OW18202   2.873   3.074   4.873
 4471SOL    HW218203   2.805   3.008   4.889
 4471SOL    HW318204   2.891   3.068   4.780
 4471SOL    MW418205   2.866   3.065   4.864
 4472SOL     OW18206   1.962   3.349   5.124
 4472SOL    HW218207   1.952   3.307   5.210
 4472SOL    HW318208   1.883   3.402   5.114
 4472SOL    MW418209   1.951   3.350   5.135
 4473SOL     OW18210   2.866   2.213   4.694
 4473SOL    HW218211   2.796   2.165   4.739
 4473SOL    HW318212   2.898   2.276   4.758
 4473SOL    MW418213   2.861   2.215   4.708
 4474SOL     OW18214   2.517   2.649   5.314
 4474SOL    HW218215   2.510   2.744   5.302
 4474SOL    HW318216   2.526   2.638   5.409
 4474SOL    MW418217   2.518   2.661   5.324
 4475SOL     OW18218   2.238   3.164   5.572
 4475SOL    HW218219   2.310   3.166   5.509
 4475SOL    HW318220   2.208   3.073   5.571
 4475SOL    MW418221   2.243   3.153   5.564
 4476SOL     OW18222   3.322   1.927   5.039
 4476SOL    HW218223   3.393   1.873   5.003
 4476SOL    HW318224   3.321   1.906   5.132
 4476SOL    MW418225   3.331   1.918   5.047
 4477SOL     OW18226   3.522   3.457   5.523
 4477SOL    HW218227   3.495   3.454   5.614
 4477SOL    HW318228   3.618   3.461   5.526
 4477SOL    MW418229   3.532   3.457   5.535
 4478SOL     OW18230   2.333   2.319   4.507
 4478SOL    HW218231   2.404   2.267   4.470
 4478SOL    HW318232   2.319   2.284   4.594
 4478SOL    MW418233   2.341   2.308   4.514
 4479SOL     OW18234   1.888   3.654   5.579
 4479SOL    HW218235   1.938   3.632   5.501
 4479SOL    HW318236   1.896   3.749   5.587
 4479SOL    MW418237   1.896   3.663   5.570
 4480SOL     OW18238   2.649   3.412   4.583
 4480SOL    HW218239   2.577   3.349   4.596
 4480SOL    HW318240   2.610   3.497   4.601
 4480SOL    MW418241   2.633   3.415   4.586
 4481SOL     OW18242   2.969   2.260   4.231
 4481SOL    HW218243   2.991   2.197   4.163
 4481SOL    HW318244   2.874   2.252   4.242
 4481SOL    MW418245   2.959   2.251   4.223
 4482SOL     OW18246   2.054   1.950   4.163
 4482SOL    HW218247   2.125   1.971   4.102
 4482SOL    HW318248   2.008   1.878   4.121
 4482SOL    MW418249   2.058   1.944   4.149
 4483SOL     OW18250   1.885   2.417   5.306
 4483SOL    HW218251   1.949   2.483   5.281
 4483SOL    HW318252   1.804   2.444   5.263
 4483SOL    MW418253   1.883   2.429   5.298
 4484SOL     OW18254   3.623   3.324   4.263
 4484SOL    HW218255   3.593   3.257   4.324
 4484SOL    HW318256   3.717   3.330   4.277
 4484SOL    MW418257   3.631   3.316   4.273
 4485SOL     OW18258   3.179   3.001   4.193
 4485SOL    HW218259   3.151   3.087   4.226
 4485SOL    HW318260   3.207   3.017   4.103
 4485SOL    MW418261   3.179   3.015   4.185
 4486SOL     OW18262   2.841   1.921   4.246
 4486SOL    HW218263   2.878   1.980   4.311
 4486SOL    HW318264   2.818   1.977   4.172
 4486SOL    MW418265   2.842   1.936   4.245
 4487SOL     OW18266   3.694   2.803   4.668
 4487SOL    HW218267   3.685   2.835   4.579
 4487SOL    HW318268   3.647   2.719   4.668
 4487SOL    MW418269   3.687   2.796   4.658
 4488SOL     OW18270   2.070   2.643   5.247
 4488SOL    HW218271   2.091   2.712   5.185
 4488SOL    HW318272   2.150   2.590   5.252
 4488SOL    MW418273   2.083   2.644   5.241
 4489SOL     OW18274   3.606   2.734   4.369
 4489SOL    HW218275   3.700   2.723   4.357
 4489SOL    HW318276   3.582   2.806   4.310
 4489SOL    MW418277   3.616   2.742   4.360
 4490SOL     OW18278   2.055   2.658   5.514
 4490SOL    HW218279   1.981   2.602   5.540
 4490SOL    HW318280   2.050   2.661   5.419
 4490SOL    MW418281   2.044   2.651   5.504
 4491SOL     OW18282   2.221   1.945   4.964
 4491SOL    HW218283   2.264   2.029   4.984
 4491SOL    HW318284   2.294   1.883   4.957
 4491SOL    MW418285   2.236   1.948   4.965
 4492SOL     OW18286   2.262   2.612   4.142
 4492SOL    HW218287   2.262   2.707   4.127
 4492SOL    HW318288   2.339   2.596   4.196
 4492SOL    MW418289   2.272   2.623   4.147
 4493SOL     OW18290   3.038   2.471   5.206
 4493SOL    HW218291   3.074   2.444   5.122
 4493SOL    HW318292   2.951   2.505   5.185
 4493SOL    MW418293   3.032   2.472   5.193
 4494SOL     OW18294   2.021   2.343   4.431
 4494SOL    HW218295   2.083   2.350   4.504
 4494SOL    HW318296   2.021   2.250   4.408
 4494SOL    MW418297   2.029   2.332   4.438
 4495SOL     OW18298   3.568   3.683   3.963
 4495SOL    HW218299   3.635   3.716   3.903
 4495SOL    HW318300   3.525   3.762   3.997
 4495SOL    MW418301   3.570   3.698   3.959
 4496SOL     OW18302   2.703   2.604   4.915
 4496SOL    HW218303   2.661   2.522   4.891
 4496SOL    HW318304   2.704   2.603   5.011
 4496SOL    MW418305   2.696   2.593   4.924
 4497SOL     OW18306   3.374   3.737   5.314
 4497SOL    HW218307   3.377   3.643   5.297
 4497SOL    HW318308   3.397   3.745   5.406
 4497SOL    MW418309   3.377   3.725   5.324
 4498SOL     OW18310   2.507   2.074   5.020
 4498SOL    HW218311   2.438   2.137   5.041
 4498SOL    HW318312   2.534   2.038   5.105
 4498SOL    MW418313   2.501   2.077   5.033
 4499SOL     OW18314   1.890   2.915   3.889
 4499SOL    HW218315   1.859   2.980   3.952
 4499SOL    HW318316   1.839   2.837   3.908
 4499SOL    MW418317   1.880   2.912   3.899
 4500SOL     OW18318   3.302   1.927   4.637
 4500SOL    HW218319   3.390   1.936   4.674
 4500SOL    HW318320   3.312   1.868   4.563
 4500SOL    MW418321   3.316   1.921   4.631
 4501SOL     OW18322   3.334   2.666   4.481
 4501SOL    HW218323   3.414   2.681   4.430
 4501SOL    HW318324   3.327   2.571   4.487
 4501SOL    MW418325   3.343   2.655   4.476
 4502SOL     OW18326   2.474   3.715   3.831
 4502SOL    HW218327   2.379   3.715   3.823
 4502SOL    HW318328   2.490   3.661   3.909
 4502SOL    MW418329   2.464   3.709   3.840
 4503SOL     OW18330   2.784   2.592   5.178
 4503SOL    HW218331   2.853   2.659   5.175
 4503SOL    HW318332   2.717   2.630   5.234
 4503SOL    MW418333   2.785   2.605   5.185
 4504SOL     OW18334   2.202   2.892   5.426
 4504SOL    HW218335   2.156   2.808   5.428
 4504SOL    HW318336   2.259   2.886   5.350
 4504SOL    MW418337   2.204   2.880   5.418
 4505SOL     OW18338   3.319   2.535   3.747
 4505SOL    HW218339   3.247   2.511   3.689
 4505SOL    HW318340   3.385   2.572   3.689
 4505SOL    MW418341   3.318   2.537   3.732
 4506SOL     OW18342   2.453   3.267   4.427
 4506SOL    HW218343   2.518   3.200   4.448
 4506SOL    HW318344   2.505   3.344   4.404
 4506SOL    MW418345   2.468   3.269   4.426
 4507SOL     OW18346   2.714   2.432   4.557
 4507SOL    HW218347   2.654   2.450   4.629
 4507SOL    HW318348   2.748   2.344   4.576
 4507SOL    MW418349   2.710   2.422   4.570
 4508SOL     OW18350   3.655   1.931   5.226
 4508SOL    HW218351   3.576   1.977   5.254
 4508SOL    HW318352   3.690   1.985   5.155
 4508SOL    MW418353   3.649   1.944   5.220
 4509SOL     OW18354   2.939   3.015   4.576
 4509SOL    HW218355   3.031   2.996   4.594
 4509SOL    HW318356   2.912   2.945   4.516
 4509SOL    MW418357   2.947   3.003   4.570
 4510SOL     OW18358   2.732   2.835   3.931
 4510SOL    HW218359   2.718   2.747   3.896
 4510SOL    HW318360   2.683   2.892   3.872
 4510SOL    MW418361   2.724   2.830   3.919
 4511SOL     OW18362   3.213   3.253   4.672
 4511SOL    HW218363   3.186   3.337   4.637
 4511SOL    HW318364   3.173   3.248   4.759
 4511SOL    MW418365   3.206   3.262   4.678
 4512SOL     OW18366   3.132   3.201   4.940
 4512SOL    HW218367   3.143   3.168   5.029
 4512SOL    HW318368   3.051   3.160   4.909
 4512SOL    MW418369   3.122   3.193   4.946
 4513SOL     OW18370   2.145   2.559   4.710
 4513SOL    HW218371   2.095   2.558   4.791
 4513SOL    HW318372   2.165   2.651   4.694
 4513SOL    MW418373   2.141   2.571   4.718
 4514SOL     OW18374   3.212   3.323   5.472
 4514SOL    HW218375   3.212   3.417   5.488
 4514SOL    HW318376   3.257   3.313   5.388
 4514SOL    MW418377   3.218   3.333   5.463
 4515SOL     OW18378   3.451   2.041   4.033
 4515SOL    HW218379   3.444   2.045   4.128
 4515SOL    HW318380   3.463   2.132   4.006
 4515SOL    MW418381   3.452   2.054   4.041
 4516SOL     OW18382   2.740   2.604   4.147
 4516SOL    HW218383   2.720   2.590   4.054
 4516SOL    HW318384   2.833   2.583   4.154
 4516SOL    MW418385   2.750   2.599   4.136
 4517SOL     OW18386   2.067   2.227   5.451
 4517SOL    HW218387   2.024   2.286   5.388
 4517SOL    HW318388   2.135   2.282   5.491
 4517SOL    MW418389   2.071   2.242   5.448
 4518SOL     OW18390   3.179   2.847   4.996
 4518SOL    HW218391   3.242   2.844   5.069
 4518SOL    HW318392   3.095   2.865   5.038
 4518SOL    MW418393   3.175   2.849   5.011
 4519SOL     OW18394   2.723   3.562   4.185
 4519SOL    HW218395   2.781   3.633   4.212
 4519SOL    HW318396   2.746   3.490   4.243
 4519SOL    MW418397   2.734   3.562   4.196
 4520SOL     OW18398   3.518   2.024   4.775
 4520SOL    HW218399   3.563   1.942   4.794
 4520SOL    HW318400   3.538   2.080   4.851
 4520SOL    MW418401   3.528   2.020   4.787
 4521SOL     OW18402   1.966   1.867   4.874
 4521SOL    HW218403   1.957   1.868   4.779
 4521SOL    HW318404   2.060   1.879   4.889
 4521SOL    MW418405   1.978   1.870   4.865
 4522SOL     OW18406   3.603   3.060   4.494
 4522SOL    HW218407   3.582   3.006   4.417
 4522SOL    HW318408   3.699   3.058   4.498
 4522SOL    MW418409   3.612   3.053   4.483
 4523SOL     OW18410   2.295   3.205   5.237
 4523SOL    HW218411   2.216   3.155   5.260
 4523SOL    HW318412   2.365   3.164   5.287
 4523SOL    MW418413   2.293   3.193   5.247
 4524SOL     OW18414   2.179   1.994   3.920
 4524SOL    HW218415   2.108   2.049   3.888
 4524SOL    HW318416   2.221   1.960   3.841
 4524SOL    MW418417   2.175   1.996   3.906
 4525SOL     OW18418   3.303   2.491   4.756
 4525SOL    HW218419   3.226   2.537   4.722
 4525SOL    HW318420   3.360   2.560   4.790
 4525SOL    MW418421   3.300   2.506   4.756
 4526SOL     OW18422   1.935   2.093   3.769
 4526SOL    HW218423   1.902   2.172   3.813
 4526SOL    HW318424   1.990   2.126   3.698
 4526SOL    MW418425   1.938   2.107   3.766
 4527SOL     OW18426   1.969   3.350   3.958
 4527SOL    HW218427   1.986   3.434   4.000
 4527SOL    HW318428   2.004   3.359   3.870
 4527SOL    MW418429   1.974   3.363   3.952
 4528SOL     OW18430   3.241   3.439   4.175
 4528SOL    HW218431   3.304   3.429   4.104
 4528SOL    HW318432   3.158   3.459   4.130
 4528SOL    MW418433   3.238   3.440   4.160
 4529SOL     OW18434   3.604   2.707   5.862
 4529SOL    HW218435   3.645   2.649   5.927
 4529SOL    HW318436   3.511   2.699   5.879
 4529SOL    MW418437   3.598   2.699   5.872
 4530SOL     OW18438   2.398   2.890   6.091
 4530SOL    HW218439   2.488   2.865   6.075
 4530SOL    HW318440   2.394   2.983   6.068
 4530SOL    MW418441   2.410   2.899   6.086
 4531SOL     OW18442   3.514   3.593   6.233
 4531SOL    HW218443   3.526   3.539   6.311
 4531SOL    HW318444   3.551   3.541   6.162
 4531SOL    MW418445   3.520   3.578   6.234
 4532SOL     OW18446   2.682   2.346   6.104
 4532SOL    HW218447   2.657   2.434   6.132
 4532SOL    HW318448   2.679   2.349   6.008
 4532SOL    MW418449   2.678   2.358   6.096
 4533SOL     OW18450   2.124   2.374   6.032
 4533SOL    HW218451   2.156   2.462   6.014
 4533SOL    HW318452   2.112   2.372   6.127
 4533SOL    MW418453   2.127   2.386   6.044
 4534SOL     OW18454   2.523   2.129   6.119
 4534SOL    HW218455   2.581   2.205   6.121
 4534SOL    HW318456   2.458   2.150   6.052
 4534SOL    MW418457   2.522   2.141   6.110
 4535SOL     OW18458   2.610   3.056   6.294
 4535SOL    HW218459   2.690   3.059   6.346
 4535SOL    HW318460   2.638   3.023   6.208
 4535SOL    MW418461   2.624   3.052   6.289
 4536SOL     OW18462   2.387   2.560   6.285
 4536SOL    HW218463   2.372   2.480   6.336
 4536SOL    HW318464   2.469   2.595   6.319
 4536SOL    MW418465   2.395   2.552   6.297
 4537SOL     OW18466   2.529   2.386   6.662
 4537SOL    HW218467   2.435   2.382   6.680
 4537SOL    HW318468   2.559   2.295   6.671
 4537SOL    MW418469   2.520   2.374   6.665
 4538SOL     OW18470   2.275   2.800   6.566
 4538SOL    HW218471   2.230   2.807   6.482
 4538SOL    HW318472   2.255   2.883   6.610
 4538SOL    MW418473   2.267   2.812   6.560
 4539SOL     OW18474   1.972   3.646   6.441
 4539SOL    HW218475   2.061   3.638   6.476
 4539SOL    HW318476   1.936   3.558   6.446
 4539SOL    MW418477   1.979   3.633   6.446
 4540SOL     OW18478   3.237   3.038   5.810
 4540SOL    HW218479   3.155   3.074   5.776
 4540SOL    HW318480   3.305   3.081   5.759
 4540SOL    MW418481   3.235   3.048   5.798
 4541SOL     OW18482   2.236   3.173   6.476
 4541SOL    HW218483   2.212   3.226   6.552
 4541SOL    HW318484   2.292   3.231   6.424
 4541SOL    MW418485   2.240   3.188   6.479
 4542SOL     OW18486   2.798   2.817   6.286
 4542SOL    HW218487   2.712   2.804   6.326
 4542SOL    HW318488   2.851   2.744   6.318
 4542SOL    MW418489   2.794   2.806   6.295
 4543SOL     OW18490   2.789   3.179   6.003
 4543SOL    HW218491   2.766   3.241   6.071
 4543SOL    HW318492   2.746   3.097   6.029
 4543SOL    MW418493   2.781   3.175   6.014
 4544SOL     OW18494   3.662   2.180   6.459
 4544SOL    HW218495   3.599   2.160   6.528
 4544SOL    HW318496   3.652   2.109   6.396
 4544SOL    MW418497   3.652   2.167   6.460
 4545SOL     OW18498   2.286   2.152   5.971
 4545SOL    HW218499   2.260   2.114   5.887
 4545SOL    HW318500   2.223   2.222   5.987
 4545SOL    MW418501   2.275   2.155   5.962
 4546SOL     OW18502   2.121   3.113   6.008
 4546SOL    HW218503   2.069   3.181   5.964
 4546SOL    HW318504   2.118   3.039   5.948
 4546SOL    MW418505   2.113   3.112   5.995
 4547SOL     OW18506   2.783   3.576   5.786
 4547SOL    HW218507   2.738   3.592   5.869
 4547SOL    HW318508   2.714   3.541   5.728
 4547SOL    MW418509   2.769   3.573   5.788
 4548SOL     OW18510   3.718   2.349   5.761
 4548SOL    HW218511   3.627   2.351   5.789
 4548SOL    HW318512   3.763   2.411   5.819
 4548SOL    MW418513   3.711   2.357   5.771
 4549SOL     OW18514   3.463   2.952   6.111
 4549SOL    HW218515   3.373   2.952   6.146
 4549SOL    HW318516   3.456   2.998   6.028
 4549SOL    MW418517   3.450   2.958   6.105
 4550SOL     OW18518   2.004   3.467   6.735
 4550SOL    HW218519   1.987   3.413   6.812
 4550SOL    HW318520   1.992   3.557   6.765
 4550SOL    MW418521   2.001   3.471   6.749
 4551SOL     OW18522   2.990   2.533   6.072
 4551SOL    HW218523   3.016   2.557   5.983
 4551SOL    HW318524   2.972   2.440   6.068
 4551SOL    MW418525   2.992   2.525   6.059
 4552SOL     OW18526   3.655   3.153   5.923
 4552SOL    HW218527   3.611   3.194   5.998
 4552SOL    HW318528   3.712   3.221   5.888
 4552SOL    MW418529   3.657   3.167   5.928
 4553SOL     OW18530   2.311   3.569   6.241
 4553SOL    HW218531   2.343   3.657   6.219
 4553SOL    HW318532   2.264   3.541   6.163
 4553SOL    MW418533   2.310   3.577   6.228
 4554SOL     OW18534   3.695   1.931   6.290
 4554SOL    HW218535   3.749   1.882   6.352
 4554SOL    HW318536   3.638   1.865   6.251
 4554SOL    MW418537   3.695   1.915   6.292
 4555SOL     OW18538   2.027   3.629   5.818
 4555SOL    HW218539   2.056   3.719   5.810
 4555SOL    HW318540   1.977   3.612   5.739
 4555SOL    MW418541   2.025   3.637   5.807
 4556SOL     OW18542   3.431   3.437   5.789
 4556SOL    HW218543   3.479   3.506   5.835
 4556SOL    HW318544   3.352   3.481   5.758
 4556SOL    MW418545   3.426   3.451   5.792
 4557SOL     OW18546   2.829   2.562   5.733
 4557SOL    HW218547   2.831   2.509   5.654
 4557SOL    HW318548   2.917   2.599   5.739
 4557SOL    MW418549   2.841   2.561   5.722
 4558SOL     OW18550   3.443   2.488   6.069
 4558SOL    HW218551   3.482   2.488   6.156
 4558SOL    HW318552   3.384   2.564   6.069
 4558SOL    MW418553   3.440   2.499   6.080
 4559SOL     OW18554   3.630   2.374   6.235
 4559SOL    HW218555   3.719   2.343   6.252
 4559SOL    HW318556   3.573   2.314   6.283
 4559SOL    MW418557   3.633   2.362   6.244
 4560SOL     OW18558   2.056   2.088   6.264
 4560SOL    HW218559   2.047   2.028   6.190
 4560SOL    HW318560   1.989   2.059   6.327
 4560SOL    MW418561   2.046   2.075   6.262
 4561SOL     OW18562   2.999   3.181   5.825
 4561SOL    HW218563   2.949   3.183   5.907
 4561SOL    HW318564   2.933   3.199   5.757
 4561SOL    MW418565   2.985   3.183   5.827
 4562SOL     OW18566   2.003   2.261   6.627
 4562SOL    HW218567   1.975   2.352   6.636
 4562SOL    HW318568   1.940   2.222   6.566
 4562SOL    MW418569   1.990   2.267   6.621
 4563SOL     OW18570   2.462   3.599   5.933
 4563SOL    HW218571   2.383   3.557   5.966
 4563SOL    HW318572   2.528   3.582   6.000
 4563SOL    MW418573   2.461   3.591   5.946
 4564SOL     OW18574   2.598   3.014   5.640
 4564SOL    HW218575   2.520   2.960   5.627
 4564SOL    HW318576   2.569   3.087   5.693
 4564SOL    MW418577   2.584   3.016   5.645
 4565SOL     OW18578   3.179   3.530   5.708
 4565SOL    HW218579   3.105   3.493   5.758
 4565SOL    HW318580   3.187   3.620   5.741
 4565SOL    MW418581   3.170   3.537   5.720
 4566SOL     OW18582   3.403   3.204   5.650
 4566SOL    HW218583   3.350   3.253   5.586
 4566SOL    HW318584   3.434   3.270   5.711
 4566SOL    MW418585   3.401   3.218   5.648
 4567SOL     OW18586   2.628   2.093   5.705
 4567SOL    HW218587   2.576   2.013   5.693
 4567SOL    HW318588   2.715   2.070   5.673
 4567SOL    MW418589   2.631   2.079   5.699
 4568SOL     OW18590   2.134   2.964   6.756
 4568SOL    HW218591   2.187   3.039   6.781
 4568SOL    HW318592   2.053   3.002   6.722
 4568SOL    MW418593   2.130   2.979   6.756
 4569SOL     OW18594   1.989   2.733   6.162
 4569SOL    HW218595   2.080   2.748   6.189
 4569SOL    HW318596   1.992   2.654   6.108
 4569SOL    MW418597   2.001   2.725   6.160
 4570SOL     OW18598   2.616   3.665   6.536
 4570SOL    HW218599   2.705   3.680   6.566
 4570SOL    HW318600   2.611   3.712   6.452
 4570SOL    MW418601   2.626   3.673   6.529
 4571SOL     OW18602   1.997   3.345   6.201
 4571SOL    HW218603   1.969   3.384   6.283
 4571SOL    HW318604   2.017   3.254   6.223
 4571SOL    MW418605   1.995   3.337   6.214
 4572SOL     OW18606   2.830   3.388   6.236
 4572SOL    HW218607   2.913   3.342   6.220
 4572SOL    HW318608   2.820   3.387   6.332
 4572SOL    MW418609   2.840   3.381   6.246
 4573SOL     OW18610   2.563   3.445   5.641
 4573SOL    HW218611   2.503   3.514   5.611
 4573SOL    HW318612   2.508   3.387   5.694
 4573SOL    MW418613   2.547   3.447   5.643
 4574SOL     OW18614   3.001   2.090   5.864
 4574SOL    HW218615   2.934   2.066   5.801
 4574SOL    HW318616   3.066   2.139   5.813
 4574SOL    MW418617   3.001   2.092   5.849
 4575SOL     OW18618   2.520   2.807   6.376
 4575SOL    HW218619   2.431   2.798   6.409
 4575SOL    HW318620   2.524   2.897   6.344
 4575SOL    MW418621   2.509   2.818   6.376
 4576SOL     OW18622   3.319   2.390   6.371
 4576SOL    HW218623   3.264   2.311   6.370
 4576SOL    HW318624   3.301   2.431   6.455
 4576SOL    MW418625   3.309   2.385   6.380
 4577SOL     OW18626   2.938   2.594   6.328
 4577SOL    HW218627   2.875   2.526   6.352
 4577SOL    HW318628   2.958   2.575   6.236
 4577SOL    MW418629   2.932   2.581   6.320
 4578SOL     OW18630   2.194   3.489   6.030
 4578SOL    HW218631   2.155   3.536   5.956
 4578SOL    HW318632   2.128   3.424   6.055
 4578SOL    MW418633   2.181   3.487   6.024
 4579SOL     OW18634   2.686   2.898   6.054
 4579SOL    HW218635   2.688   2.872   5.961
 4579SOL    HW318636   2.744   2.835   6.097
 4579SOL    MW418637   2.694   2.887   6.048
 4580SOL     OW18638   3.243   3.666   6.256
 4580SOL    HW218639   3.186   3.619   6.195
 4580SOL    HW318640   3.329   3.627   6.243
 4580SOL    MW418641   3.246   3.657   6.246
 4581SOL     OW18642   3.196   2.142   6.387
 4581SOL    HW218643   3.224   2.074   6.448
 4581SOL    HW318644   3.110   2.113   6.357
 4581SOL    MW418645   3.189   2.129   6.391
 4582SOL     OW18646   2.001   3.076   6.321
 4582SOL    HW218647   2.065   3.108   6.384
 4582SOL    HW318648   2.050   3.012   6.269
 4582SOL    MW418649   2.016   3.072   6.322
 4583SOL     OW18650   3.176   2.246   5.722
 4583SOL    HW218651   3.149   2.312   5.658
 4583SOL    HW318652   3.246   2.289   5.772
 4583SOL    MW418653   3.181   2.259   5.719
 4584SOL     OW18654   2.844   1.951   5.659
 4584SOL    HW218655   2.900   1.943   5.581
 4584SOL    HW318656   2.821   1.861   5.681
 4584SOL    MW418657   2.849   1.938   5.652
 4585SOL     OW18658   3.349   2.802   5.864
 4585SOL    HW218659   3.316   2.891   5.854
 4585SOL    HW318660   3.314   2.773   5.949
 4585SOL    MW418661   3.339   2.811   5.875
 4586SOL     OW18662   2.279   3.389   6.693
 4586SOL    HW218663   2.324   3.451   6.750
 4586SOL    HW318664   2.186   3.408   6.706
 4586SOL    MW418665   2.272   3.399   6.700
 4587SOL     OW18666   2.343   2.840   5.656
 4587SOL    HW218667   2.266   2.853   5.712
 4587SOL    HW318668   2.307   2.804   5.575
 4587SOL    MW418669   2.329   2.836   5.653
 4588SOL     OW18670   2.996   2.813   5.899
 4588SOL    HW218671   2.906   2.834   5.874
 4588SOL    HW318672   3.023   2.886   5.955
 4588SOL    MW418673   2.988   2.825   5.902
 4589SOL     OW18674   2.496   3.162   6.591
 4589SOL    HW218675   2.489   3.141   6.685
 4589SOL    HW318676   2.414   3.130   6.554
 4589SOL    MW418677   2.484   3.156   6.598
 4590SOL     OW18678   2.625   1.929   6.306
 4590SOL    HW218679   2.554   1.990   6.288
 4590SOL    HW318680   2.676   1.926   6.225
 4590SOL    MW418681   2.621   1.935   6.293
 4591SOL     OW18682   2.383   3.169   6.055
 4591SOL    HW218683   2.376   3.201   6.145
 4591SOL    HW318684   2.293   3.153   6.027
 4591SOL    MW418685   2.371   3.171   6.062
 4592SOL     OW18686   3.092   3.527   6.454
 4592SOL    HW218687   3.139   3.600   6.413
 4592SOL    HW318688   3.013   3.566   6.490
 4592SOL    MW418689   3.087   3.542   6.453
 4593SOL     OW18690   2.386   2.453   5.769
 4593SOL    HW218691   2.352   2.509   5.839
 4593SOL    HW318692   2.457   2.403   5.809
 4593SOL    MW418693   2.392   2.454   5.783
 4594SOL     OW18694   3.442   2.339   5.833
 4594SOL    HW218695   3.434   2.410   5.770
 4594SOL    HW318696   3.460   2.383   5.916
 4594SOL    MW418697   3.443   2.353   5.835
 4595SOL     OW18698   2.302   1.994   6.262
 4595SOL    HW218699   2.352   2.037   6.193
 4595SOL    HW318700   2.217   2.038   6.262
 4595SOL    MW418701   2.299   2.007   6.253
 4596SOL     OW18702   3.111   2.601   5.808
 4596SOL    HW218703   3.158   2.619   5.727
 4596SOL    HW318704   3.077   2.685   5.836
 4596SOL    MW418705   3.113   2.615   5.801
 4597SOL     OW18706   2.224   2.779   6.302
 4597SOL    HW218707   2.282   2.835   6.250
 4597SOL    HW318708   2.268   2.694   6.304
 4597SOL    MW418709   2.237   2.776   6.295
 4598SOL     OW18710   3.364   2.131   6.139
 4598SOL    HW218711   3.286   2.081   6.164
 4598SOL    HW318712   3.335   2.222   6.139
 4598SOL    MW418713   3.350   2.135   6.142
 4599SOL     OW18714   2.950   2.093   6.298
 4599SOL    HW218715   2.970   2.168   6.242
 4599SOL    HW318716   2.930   2.132   6.383
 4599SOL    MW418717   2.951   2.109   6.302
 4600SOL     OW18718   2.846   3.343   5.630
 4600SOL    HW218719   2.873   3.421   5.582
 4600SOL    HW318720   2.753   3.358   5.649
 4600SOL    MW418721   2.837   3.356   5.626
 4601SOL     OW18722   1.931   3.379   6.474
 4601SOL    HW218723   1.963   3.383   6.565
 4601SOL    HW318724   1.836   3.387   6.482
 4601SOL    MW418725   1.923   3.382   6.487
 4602SOL     OW18726   1.886   2.505   6.021
 4602SOL    HW218727   1.826   2.477   6.091
 4602SOL    HW318728   1.960   2.445   6.027
 4602SOL    MW418729   1.888   2.494   6.030
 4603SOL     OW18730   3.054   3.236   6.181
 4603SOL    HW218731   3.077   3.187   6.259
 4603SOL    HW318732   3.135   3.278   6.153
 4603SOL    MW418733   3.067   3.236   6.188
 4604SOL     OW18734   2.266   2.211   6.646
 4604SOL    HW218735   2.296   2.125   6.617
 4604SOL    HW318736   2.171   2.204   6.649
 4604SOL    MW418737   2.258   2.200   6.644
 4605SOL     OW18738   2.409   1.989   6.537
 4605SOL    HW218739   2.419   1.898   6.563
 4605SOL    HW318740   2.365   1.985   6.452
 4605SOL    MW418741   2.405   1.977   6.529
 4606SOL     OW18742   3.194   1.903   5.817
 4606SOL    HW218743   3.268   1.947   5.860
 4606SOL    HW318744   3.118   1.957   5.839
 4606SOL    MW418745   3.194   1.915   5.825
 4607SOL     OW18746   3.254   2.678   6.095
 4607SOL    HW218747   3.169   2.648   6.065
 4607SOL    HW318748   3.246   2.685   6.190
 4607SOL    MW418749   3.242   2.676   6.104
 4608SOL     OW18750   2.627   2.344   5.821
 4608SOL    HW218751   2.700   2.393   5.784
 4608SOL    HW318752   2.643   2.253   5.795
 4608SOL    MW418753   2.639   2.339   5.814
 4609SOL     OW18754   2.102   2.853   5.919
 4609SOL    HW218755   2.039   2.869   5.848
 4609SOL    HW318756   2.049   2.816   5.990
 4609SOL    MW418757   2.087   2.850   5.919
 4610SOL     OW18758   2.458   3.207   5.778
 4610SOL    HW218759   2.473   3.183   5.870
 4610SOL    HW318760   2.366   3.185   5.762
 4610SOL    MW418761   2.448   3.200   5.788
 4611SOL     OW18762   2.997   3.438   5.930
 4611SOL    HW218763   3.005   3.356   5.881
 4611SOL    HW318764   2.916   3.477   5.897
 4611SOL    MW418765   2.987   3.433   5.920
 4612SOL     OW18766   2.256   3.596   6.499
 4612SOL    HW218767   2.260   3.507   6.534
 4612SOL    HW318768   2.282   3.587   6.408
 4612SOL    MW418769   2.259   3.584   6.491
 4613SOL     OW18770   2.333   2.319   6.376
 4613SOL    HW218771   2.404   2.267   6.339
 4613SOL    HW318772   2.319   2.284   6.463
 4613SOL    MW418773   2.341   2.308   6.383
 4614SOL     OW18774   2.649   3.412   6.452
 4614SOL    HW218775   2.577   3.349   6.465
 4614SOL    HW318776   2.610   3.497   6.470
 4614SOL    MW418777   2.633   3.415   6.455
 4615SOL     OW18778   2.969   2.260   6.100
 4615SOL    HW218779   2.991   2.197   6.032
 4615SOL    HW318780   2.874   2.252   6.111
 4615SOL    MW418781   2.959   2.251   6.092
 4616SOL     OW18782   2.054   1.950   6.032
 4616SOL    HW218783   2.125   1.971   5.971
 4616SOL    HW318784   2.008   1.878   5.990
 4616SOL    MW418785   2.058   1.944   6.018
 4617SOL     OW18786   3.623   3.324   6.132
 4617SOL    HW218787   3.593   3.257   6.193
 4617SOL    HW318788   3.717   3.330   6.146
 4617SOL    MW418789   3.631   3.316   6.142
 4618SOL     OW18790   3.179   3.001   6.062
 4618SOL    HW218791   3.151   3.087   6.095
 4618SOL    HW318792   3.207   3.017   5.972
 4618SOL    MW418793   3.179   3.015   6.054
 4619SOL     OW18794   2.841   1.921   6.115
 4619SOL    HW218795   2.878   1.980   6.180
 4619SOL    HW318796   2.818   1.977   6.041
 4619SOL    MW418797   2.842   1.936   6.114
 4620SOL     OW18798   3.694   2.803   6.537
 4620SOL    HW218799   3.685   2.835   6.448
 4620SOL    HW318800   3.647   2.719   6.537
 4620SOL    MW418801   3.687   2.796   6.527
 4621SOL     OW18802   3.606   2.734   6.238
 4621SOL    HW218803   3.700   2.723   6.226
 4621SOL    HW318804   3.582   2.806   6.179
 4621SOL    MW418805   3.616   2.742   6.229
 4622SOL     OW18806   2.262   2.612   6.011
 4622SOL    HW218807   2.262   2.707   5.996
 4622SOL    HW318808   2.339   2.596   6.065
 4622SOL    MW418809   2.272   2.623   6.016
 4623SOL     OW18810   2.021   2.343   6.300
 4623SOL    HW218811   2.083   2.350   6.373
 4623SOL    HW318812   2.021   2.250   6.277
 4623SOL    MW418813   2.029   2.332   6.307
 4624SOL     OW18814   3.568   3.683   5.832
 4624SOL    HW218815   3.635   3.716   5.772
 4624SOL    HW318816   3.525   3.762   5.866
 4624SOL    MW418817   3.570   3.698   5.828
 4625SOL     OW18818   1.890   2.915   5.758
 4625SOL    HW218819   1.859   2.980   5.821
 4625SOL    HW318820   1.839   2.837   5.777
 4625SOL    MW418821   1.880   2.912   5.768
 4626SOL     OW18822   3.334   2.666   6.350
 4626SOL    HW218823   3.414   2.681   6.299
 4626SOL    HW318824   3.327   2.571   6.356
 4626SOL    MW418825   3.343   2.655   6.345
 4627SOL     OW18826   2.474   3.715   5.700
 4627SOL    HW218827   2.379   3.715   5.692
 4627SOL    HW318828   2.490   3.661   5.778
 4627SOL    MW418829   2.464   3.709   5.709
 4628SOL     OW18830   3.319   2.535   5.615
 4628SOL    HW218831   3.247   2.511   5.557
 4628SOL    HW318832   3.385   2.572   5.557
 4628SOL    MW418833   3.318   2.537   5.600
 4629SOL     OW18834   2.453   3.267   6.296
 4629SOL    HW218835   2.518   3.200   6.317
 4629SOL    HW318836   2.505   3.344   6.273
 4629SOL    MW418837   2.468   3.269   6.295
 4630SOL     OW18838   2.714   2.432   6.426
 4630SOL    HW218839   2.654   2.450   6.498
 4630SOL    HW318840   2.748   2.344   6.445
 4630SOL    MW418841   2.710   2.422   6.439
 4631SOL     OW18842   2.939   3.015   6.445
 4631SOL    HW218843   3.031   2.996   6.463
 4631SOL    HW318844   2.912   2.945   6.385
 4631SOL    MW418845   2.947   3.003   6.439
 4632SOL     OW18846   2.732   2.835   5.800
 4632SOL    HW218847   2.718   2.747   5.765
 4632SOL    HW318848   2.683   2.892   5.741
 4632SOL    MW418849   2.724   2.830   5.788
 4633SOL     OW18850   2.145   2.559   6.579
 4633SOL    HW218851   2.095   2.558   6.660
 4633SOL    HW318852   2.165   2.651   6.563
 4633SOL    MW418853   2.141   2.571   6.587
 4634SOL     OW18854   3.451   2.041   5.902
 4634SOL    HW218855   3.444   2.045   5.997
 4634SOL    HW318856   3.463   2.132   5.875
 4634SOL    MW418857   3.452   2.054   5.910
 4635SOL     OW18858   2.740   2.604   6.016
 4635SOL    HW218859   2.720   2.590   5.923
 4635SOL    HW318860   2.833   2.583   6.023
 4635SOL    MW418861   2.750   2.599   6.005
 4636SOL     OW18862   2.723   3.562   6.054
 4636SOL    HW218863   2.781   3.633   6.081
 4636SOL    HW318864   2.746   3.490   6.112
 4636SOL    MW418865   2.734   3.562   6.065
 4637SOL     OW18866   1.966   1.867   6.743
 4637SOL    HW218867   1.957   1.868   6.648
 4637SOL    HW318868   2.060   1.879   6.758
 4637SOL    MW418869   1.978   1.870   6.734
 4638SOL     OW18870   3.603   3.060   6.363
 4638SOL    HW218871   3.582   3.006   6.286
 4638SOL    HW318872   3.699   3.058   6.367
 4638SOL    MW418873   3.612   3.053   6.352
 4639SOL     OW18874   2.179   1.994   5.789
 4639SOL    HW218875   2.108   2.049   5.757
 4639SOL    HW318876   2.221   1.960   5.710
 4639SOL    MW418877   2.175   1.996   5.775
 4640SOL     OW18878   1.935   2.093   5.638
 4640SOL    HW218879   1.902   2.172   5.682
 4640SOL    HW318880   1.990   2.126   5.567
 4640SOL    MW418881   1.938   2.107   5.635
 4641SOL     OW18882   1.969   3.350   5.827
 4641SOL    HW218883   1.986   3.434   5.869
 4641SOL    HW318884   2.004   3.359   5.739
 4641SOL    MW418885   1.974   3.363   5.821
 4642SOL     OW18886   3.241   3.439   6.044
 4642SOL    HW218887   3.304   3.429   5.973
 4642SOL    HW318888   3.158   3.459   5.999
 4642SOL    MW418889   3.238   3.440   6.029
 4643SOL     OW18890   3.604   4.575   0.257
 4643SOL    HW218891   3.645   4.517   0.322
 4643SOL    HW318892   3.511   4.567   0.274
 4643SOL    MW418893   3.598   4.567   0.267
 4644SOL     OW18894   3.470   4.507   1.252
 4644SOL    HW218895   3.425   4.574   1.303
 4644SOL    HW318896   3.558   4.543   1.238
 4644SOL    MW418897   3.476   4.520   1.256
 4645SOL     OW18898   2.398   4.758   0.486
 4645SOL    HW218899   2.488   4.733   0.470
 4645SOL    HW318900   2.394   4.851   0.463
 4645SOL    MW418901   2.410   4.767   0.481
 4646SOL     OW18902   3.514   5.461   0.628
 4646SOL    HW218903   3.526   5.407   0.706
 4646SOL    HW318904   3.551   5.409   0.557
 4646SOL    MW418905   3.520   5.446   0.629
 4647SOL     OW18906   2.893   5.346   1.629
 4647SOL    HW218907   2.934   5.382   1.550
 4647SOL    HW318908   2.928   5.257   1.636
 4647SOL    MW418909   2.904   5.339   1.620
 4648SOL     OW18910   3.450   4.901   1.233
 4648SOL    HW218911   3.371   4.866   1.191
 4648SOL    HW318912   3.477   4.973   1.177
 4648SOL    MW418913   3.443   4.906   1.220
 4649SOL     OW18914   2.682   4.214   0.499
 4649SOL    HW218915   2.657   4.302   0.527
 4649SOL    HW318916   2.679   4.217   0.403
 4649SOL    MW418917   2.678   4.226   0.491
 4650SOL     OW18918   2.124   4.242   0.427
 4650SOL    HW218919   2.156   4.330   0.409
 4650SOL    HW318920   2.112   4.240   0.522
 4650SOL    MW418921   2.127   4.254   0.439
 4651SOL     OW18922   2.202   4.655   1.328
 4651SOL    HW218923   2.265   4.602   1.279
 4651SOL    HW318924   2.183   4.729   1.271
 4651SOL    MW418925   2.208   4.657   1.315
 4652SOL     OW18926   2.523   3.997   0.514
 4652SOL    HW218927   2.581   4.073   0.516
 4652SOL    HW318928   2.458   4.018   0.447
 4652SOL    MW418929   2.522   4.009   0.505
 4653SOL     OW18930   2.610   4.924   0.689
 4653SOL    HW218931   2.690   4.927   0.741
 4653SOL    HW318932   2.638   4.891   0.603
 4653SOL    MW418933   2.624   4.920   0.684
 4654SOL     OW18934   2.635   5.265   1.592
 4654SOL    HW218935   2.719   5.291   1.631
 4654SOL    HW318936   2.659   5.209   1.518
 4654SOL    MW418937   2.649   5.261   1.587
 4655SOL     OW18938   2.387   4.428   0.680
 4655SOL    HW218939   2.372   4.348   0.731
 4655SOL    HW318940   2.469   4.463   0.714
 4655SOL    MW418941   2.395   4.420   0.692
 4656SOL     OW18942   2.724   5.114   1.365
 4656SOL    HW218943   2.688   5.180   1.305
 4656SOL    HW318944   2.652   5.052   1.378
 4656SOL    MW418945   2.710   5.114   1.359
 4657SOL     OW18946   2.529   4.254   1.057
 4657SOL    HW218947   2.435   4.250   1.075
 4657SOL    HW318948   2.559   4.163   1.066
 4657SOL    MW418949   2.520   4.242   1.060
 4658SOL     OW18950   2.275   4.668   0.961
 4658SOL    HW218951   2.230   4.675   0.877
 4658SOL    HW318952   2.255   4.751   1.005
 4658SOL    MW418953   2.267   4.680   0.955
 4659SOL     OW18954   1.972   5.514   0.836
 4659SOL    HW218955   2.061   5.506   0.871
 4659SOL    HW318956   1.936   5.426   0.841
 4659SOL    MW418957   1.979   5.501   0.841
 4660SOL     OW18958   3.237   4.906   0.205
 4660SOL    HW218959   3.155   4.942   0.171
 4660SOL    HW318960   3.305   4.949   0.154
 4660SOL    MW418961   3.235   4.916   0.193
 4661SOL     OW18962   2.236   5.041   0.871
 4661SOL    HW218963   2.212   5.094   0.947
 4661SOL    HW318964   2.292   5.099   0.819
 4661SOL    MW418965   2.240   5.056   0.874
 4662SOL     OW18966   2.798   4.685   0.681
 4662SOL    HW218967   2.712   4.672   0.721
 4662SOL    HW318968   2.851   4.612   0.713
 4662SOL    MW418969   2.794   4.674   0.690
 4663SOL     OW18970   2.206   5.337   1.466
 4663SOL    HW218971   2.114   5.313   1.451
 4663SOL    HW318972   2.250   5.254   1.483
 4663SOL    MW418973   2.200   5.322   1.465
 4664SOL     OW18974   2.789   5.047   0.398
 4664SOL    HW218975   2.766   5.109   0.466
 4664SOL    HW318976   2.746   4.965   0.424
 4664SOL    MW418977   2.781   5.043   0.409
 4665SOL     OW18978   3.662   4.048   0.854
 4665SOL    HW218979   3.599   4.028   0.923
 4665SOL    HW318980   3.652   3.977   0.791
 4665SOL    MW418981   3.652   4.035   0.855
 4666SOL     OW18982   2.286   4.020   0.366
 4666SOL    HW218983   2.260   3.982   0.282
 4666SOL    HW318984   2.223   4.090   0.382
 4666SOL    MW418985   2.275   4.023   0.357
 4667SOL     OW18986   2.121   4.981   0.403
 4667SOL    HW218987   2.069   5.049   0.359
 4667SOL    HW318988   2.118   4.907   0.343
 4667SOL    MW418989   2.113   4.980   0.390
 4668SOL     OW18990   2.783   5.444   0.181
 4668SOL    HW218991   2.738   5.460   0.264
 4668SOL    HW318992   2.714   5.409   0.123
 4668SOL    MW418993   2.769   5.441   0.183
 4669SOL     OW18994   3.718   4.217   0.156
 4669SOL    HW218995   3.627   4.219   0.184
 4669SOL    HW318996   3.763   4.279   0.214
 4669SOL    MW418997   3.711   4.225   0.166
 4670SOL     OW18998   3.463   4.820   0.506
 4670SOL    HW218999   3.373   4.820   0.541
 4670SOL    HW319000   3.456   4.866   0.423
 4670SOL    MW419001   3.450   4.826   0.500
 4671SOL     OW19002   3.263   4.455   1.578
 4671SOL    HW219003   3.332   4.393   1.555
 4671SOL    HW319004   3.188   4.429   1.525
 4671SOL    MW419005   3.263   4.442   1.569
 4672SOL     OW19006   2.004   5.335   1.130
 4672SOL    HW219007   1.987   5.281   1.207
 4672SOL    HW319008   1.992   5.425   1.160
 4672SOL    MW419009   2.001   5.339   1.144
 4673SOL     OW19010   2.999   4.842   1.570
 4673SOL    HW219011   2.984   4.935   1.555
 4673SOL    HW319012   3.094   4.832   1.570
 4673SOL    MW419013   3.008   4.852   1.567
 4674SOL     OW19014   2.795   4.266   1.771
 4674SOL    HW219015   2.885   4.267   1.738
 4674SOL    HW319016   2.754   4.191   1.729
 4674SOL    MW419017   2.801   4.256   1.762
 4675SOL     OW19018   3.370   4.798   0.898
 4675SOL    HW219019   3.373   4.732   0.829
 4675SOL    HW319020   3.455   4.841   0.894
 4675SOL    MW419021   3.382   4.794   0.889
 4676SOL     OW19022   2.990   4.401   0.467
 4676SOL    HW219023   3.016   4.425   0.378
 4676SOL    HW319024   2.972   4.308   0.463
 4676SOL    MW419025   2.992   4.393   0.454
 4677SOL     OW19026   3.655   5.021   0.318
 4677SOL    HW219027   3.611   5.062   0.393
 4677SOL    HW319028   3.712   5.089   0.283
 4677SOL    MW419029   3.657   5.035   0.323
 4678SOL     OW19030   2.575   4.070   1.721
 4678SOL    HW219031   2.585   3.996   1.661
 4678SOL    HW319032   2.611   4.039   1.804
 4678SOL    MW419033   2.581   4.056   1.723
 4679SOL     OW19034   2.311   5.437   0.636
 4679SOL    HW219035   2.343   5.525   0.614
 4679SOL    HW319036   2.264   5.409   0.558
 4679SOL    MW419037   2.310   5.445   0.623
 4680SOL     OW19038   3.695   3.799   0.685
 4680SOL    HW219039   3.749   3.750   0.747
 4680SOL    HW319040   3.638   3.733   0.646
 4680SOL    MW419041   3.695   3.783   0.687
 4681SOL     OW19042   2.027   5.497   0.213
 4681SOL    HW219043   2.056   5.587   0.205
 4681SOL    HW319044   1.977   5.480   0.134
 4681SOL    MW419045   2.025   5.505   0.202
 4682SOL     OW19046   2.814   3.752   1.098
 4682SOL    HW219047   2.773   3.830   1.060
 4682SOL    HW319048   2.908   3.770   1.093
 4682SOL    MW419049   2.820   3.764   1.093
 4683SOL     OW19050   3.431   5.305   0.184
 4683SOL    HW219051   3.479   5.374   0.230
 4683SOL    HW319052   3.352   5.349   0.153
 4683SOL    MW419053   3.426   5.319   0.187
 4684SOL     OW19054   2.829   4.430   0.128
 4684SOL    HW219055   2.831   4.377   0.049
 4684SOL    HW319056   2.917   4.467   0.134
 4684SOL    MW419057   2.841   4.429   0.117
 4685SOL     OW19058   3.443   4.356   0.464
 4685SOL    HW219059   3.482   4.356   0.551
 4685SOL    HW319060   3.384   4.432   0.464
 4685SOL    MW419061   3.440   4.367   0.475
 4686SOL     OW19062   2.760   4.723   1.593
 4686SOL    HW219063   2.737   4.703   1.683
 4686SOL    HW319064   2.845   4.767   1.598
 4686SOL    MW419065   2.767   4.726   1.605
 4687SOL     OW19066   2.840   3.860   1.353
 4687SOL    HW219067   2.846   3.822   1.266
 4687SOL    HW319068   2.829   3.954   1.338
 4687SOL    MW419069   2.841   3.868   1.341
 4688SOL     OW19070   2.929   4.349   1.187
 4688SOL    HW219071   3.004   4.378   1.134
 4688SOL    HW319072   2.861   4.414   1.171
 4688SOL    MW419073   2.930   4.361   1.177
 4689SOL     OW19074   3.479   4.317   1.464
 4689SOL    HW219075   3.460   4.226   1.443
 4689SOL    HW319076   3.457   4.366   1.385
 4689SOL    MW419077   3.474   4.310   1.451
 4690SOL     OW19078   3.621   5.411   1.368
 4690SOL    HW219079   3.549   5.373   1.419
 4690SOL    HW319080   3.638   5.496   1.409
 4690SOL    MW419081   3.615   5.416   1.380
 4691SOL     OW19082   2.926   4.055   1.570
 4691SOL    HW219083   2.892   4.094   1.489
 4691SOL    HW319084   2.904   3.963   1.563
 4691SOL    MW419085   2.919   4.048   1.560
 4692SOL     OW19086   3.335   4.869   1.646
 4692SOL    HW219087   3.417   4.910   1.676
 4692SOL    HW319088   3.298   4.831   1.726
 4692SOL    MW419089   3.341   4.870   1.661
 4693SOL     OW19090   3.630   4.242   0.630
 4693SOL    HW219091   3.719   4.211   0.647
 4693SOL    HW319092   3.573   4.182   0.678
 4693SOL    MW419093   3.633   4.230   0.639
 4694SOL     OW19094   2.056   3.956   0.659
 4694SOL    HW219095   2.047   3.896   0.585
 4694SOL    HW319096   1.989   3.927   0.722
 4694SOL    MW419097   2.046   3.943   0.657
 4695SOL     OW19098   2.999   5.049   0.220
 4695SOL    HW219099   2.949   5.051   0.302
 4695SOL    HW319100   2.933   5.067   0.152
 4695SOL    MW419101   2.985   5.051   0.222
 4696SOL     OW19102   2.003   4.129   1.022
 4696SOL    HW219103   1.975   4.220   1.031
 4696SOL    HW319104   1.940   4.090   0.961
 4696SOL    MW419105   1.990   4.135   1.016
 4697SOL     OW19106   2.462   5.467   0.328
 4697SOL    HW219107   2.383   5.425   0.361
 4697SOL    HW319108   2.528   5.450   0.395
 4697SOL    MW419109   2.461   5.459   0.341
 4698SOL     OW19110   3.590   4.987   1.725
 4698SOL    HW219111   3.640   4.913   1.757
 4698SOL    HW319112   3.536   5.014   1.800
 4698SOL    MW419113   3.590   4.981   1.738
 4699SOL     OW19114   2.598   4.882   0.035
 4699SOL    HW219115   2.520   4.828   0.022
 4699SOL    HW319116   2.569   4.955   0.088
 4699SOL    MW419117   2.584   4.884   0.040
 4700SOL     OW19118   3.724   4.622   1.227
 4700SOL    HW219119   3.740   4.660   1.140
 4700SOL    HW319120   3.758   4.688   1.288
 4700SOL    MW419121   3.731   4.635   1.223
 4701SOL     OW19122   3.516   5.331   0.896
 4701SOL    HW219123   3.545   5.398   0.957
 4701SOL    HW319124   3.497   5.255   0.951
 4701SOL    MW419125   3.518   5.331   0.911
 4702SOL     OW19126   3.179   5.398   0.103
 4702SOL    HW219127   3.105   5.361   0.153
 4702SOL    HW319128   3.187   5.488   0.136
 4702SOL    MW419129   3.170   5.405   0.115
 4703SOL     OW19130   1.987   4.404   1.192
 4703SOL    HW219131   2.049   4.434   1.258
 4703SOL    HW319132   1.921   4.473   1.186
 4703SOL    MW419133   1.986   4.417   1.199
 4704SOL     OW19134   3.403   5.072   0.045
 4704SOL    HW219135   3.350   5.121  -0.019
 4704SOL    HW319136   3.434   5.138   0.106
 4704SOL    MW419137   3.401   5.086   0.043
 4705SOL     OW19138   2.628   3.961   0.100
 4705SOL    HW219139   2.576   3.881   0.088
 4705SOL    HW319140   2.715   3.938   0.068
 4705SOL    MW419141   2.631   3.947   0.094
 4706SOL     OW19142   2.082   5.513   1.644
 4706SOL    HW219143   2.056   5.581   1.582
 4706SOL    HW319144   2.130   5.450   1.592
 4706SOL    MW419145   2.084   5.513   1.630
 4707SOL     OW19146   2.134   4.832   1.151
 4707SOL    HW219147   2.187   4.907   1.176
 4707SOL    HW319148   2.053   4.870   1.117
 4707SOL    MW419149   2.130   4.847   1.151
 4708SOL     OW19150   2.674   4.736   1.139
 4708SOL    HW219151   2.702   4.645   1.151
 4708SOL    HW319152   2.603   4.730   1.075
 4708SOL    MW419153   2.667   4.724   1.134
 4709SOL     OW19154   1.989   4.601   0.557
 4709SOL    HW219155   2.080   4.616   0.584
 4709SOL    HW319156   1.992   4.522   0.503
 4709SOL    MW419157   2.001   4.593   0.555
 4710SOL     OW19158   2.225   4.309   1.811
 4710SOL    HW219159   2.172   4.389   1.818
 4710SOL    HW319160   2.295   4.321   1.876
 4710SOL    MW419161   2.227   4.322   1.819
 4711SOL     OW19162   2.611   3.859   1.518
 4711SOL    HW219163   2.588   3.767   1.520
 4711SOL    HW319164   2.697   3.861   1.475
 4711SOL    MW419165   2.618   3.849   1.514
 4712SOL     OW19166   2.295   4.383   1.557
 4712SOL    HW219167   2.375   4.433   1.543
 4712SOL    HW319168   2.286   4.377   1.652
 4712SOL    MW419169   2.304   4.389   1.567
 4713SOL     OW19170   2.616   5.533   0.931
 4713SOL    HW219171   2.705   5.548   0.961
 4713SOL    HW319172   2.611   5.580   0.847
 4713SOL    MW419173   2.626   5.541   0.924
 4714SOL     OW19174   3.272   3.908   1.828
 4714SOL    HW219175   3.328   3.835   1.854
 4714SOL    HW319176   3.242   3.946   1.910
 4714SOL    MW419177   3.276   3.903   1.841
 4715SOL     OW19178   1.997   5.213   0.596
 4715SOL    HW219179   1.969   5.252   0.678
 4715SOL    HW319180   2.017   5.122   0.618
 4715SOL    MW419181   1.995   5.205   0.609
 4716SOL     OW19182   2.830   5.256   0.631
 4716SOL    HW219183   2.913   5.210   0.615
 4716SOL    HW319184   2.820   5.255   0.727
 4716SOL    MW419185   2.840   5.249   0.641
 4717SOL     OW19186   3.662   4.401   0.945
 4717SOL    HW219187   3.751   4.431   0.927
 4717SOL    HW319188   3.642   4.341   0.874
 4717SOL    MW419189   3.671   4.398   0.934
 4718SOL     OW19190   3.513   4.580   1.825
 4718SOL    HW219191   3.568   4.504   1.806
 4718SOL    HW319192   3.515   4.588   1.920
 4718SOL    MW419193   3.521   4.571   1.833
 4719SOL     OW19194   2.563   5.313   0.036
 4719SOL    HW219195   2.503   5.382   0.006
 4719SOL    HW319196   2.508   5.255   0.089
 4719SOL    MW419197   2.547   5.315   0.038
 4720SOL     OW19198   3.001   3.958   0.259
 4720SOL    HW219199   2.934   3.934   0.196
 4720SOL    HW319200   3.066   4.007   0.208
 4720SOL    MW419201   3.001   3.960   0.244
 4721SOL     OW19202   2.808   4.142   1.344
 4721SOL    HW219203   2.727   4.183   1.372
 4721SOL    HW319204   2.855   4.210   1.296
 4721SOL    MW419205   2.803   4.157   1.342
 4722SOL     OW19206   3.068   4.480   0.967
 4722SOL    HW219207   3.081   4.574   0.977
 4722SOL    HW319208   3.029   4.470   0.881
 4722SOL    MW419209   3.064   4.491   0.957
 4723SOL     OW19210   2.520   4.675   0.771
 4723SOL    HW219211   2.431   4.666   0.804
 4723SOL    HW319212   2.524   4.765   0.739
 4723SOL    MW419213   2.509   4.686   0.771
 4724SOL     OW19214   3.319   4.258   0.766
 4724SOL    HW219215   3.264   4.179   0.765
 4724SOL    HW319216   3.301   4.299   0.850
 4724SOL    MW419217   3.309   4.253   0.775
 4725SOL     OW19218   2.290   3.945   1.583
 4725SOL    HW219219   2.211   3.963   1.635
 4725SOL    HW319220   2.285   4.007   1.510
 4725SOL    MW419221   2.280   3.955   1.580
 4726SOL     OW19222   2.938   4.462   0.723
 4726SOL    HW219223   2.875   4.394   0.747
 4726SOL    HW319224   2.958   4.443   0.631
 4726SOL    MW419225   2.932   4.449   0.715
 4727SOL     OW19226   2.194   5.357   0.425
 4727SOL    HW219227   2.155   5.404   0.351
 4727SOL    HW319228   2.128   5.292   0.450
 4727SOL    MW419229   2.181   5.355   0.419
 4728SOL     OW19230   2.686   4.766   0.449
 4728SOL    HW219231   2.688   4.740   0.356
 4728SOL    HW319232   2.744   4.703   0.492
 4728SOL    MW419233   2.694   4.755   0.443
 4729SOL     OW19234   3.239   5.326   1.221
 4729SOL    HW219235   3.164   5.372   1.259
 4729SOL    HW319236   3.221   5.233   1.238
 4729SOL    MW419237   3.228   5.320   1.229
 4730SOL     OW19238   3.243   5.534   0.651
 4730SOL    HW219239   3.186   5.487   0.590
 4730SOL    HW319240   3.329   5.495   0.638
 4730SOL    MW419241   3.246   5.525   0.641
 4731SOL     OW19242   3.196   4.010   0.782
 4731SOL    HW219243   3.224   3.942   0.843
 4731SOL    HW319244   3.110   3.981   0.752
 4731SOL    MW419245   3.189   3.997   0.786
 4732SOL     OW19246   2.001   4.944   0.716
 4732SOL    HW219247   2.065   4.976   0.779
 4732SOL    HW319248   2.050   4.880   0.664
 4732SOL    MW419249   2.016   4.940   0.717
 4733SOL     OW19250   2.501   5.020   1.698
 4733SOL    HW219251   2.549   5.103   1.685
 4733SOL    HW319252   2.558   4.968   1.754
 4733SOL    MW419253   2.515   5.024   1.704
 4734SOL     OW19254   2.077   5.262   1.838
 4734SOL    HW219255   2.133   5.186   1.853
 4734SOL    HW319256   2.026   5.240   1.760
 4734SOL    MW419257   2.077   5.249   1.829
 4735SOL     OW19258   3.176   4.114   0.117
 4735SOL    HW219259   3.149   4.180   0.053
 4735SOL    HW319260   3.246   4.157   0.167
 4735SOL    MW419261   3.181   4.127   0.114
 4736SOL     OW19262   2.844   3.819   0.054
 4736SOL    HW219263   2.900   3.811  -0.024
 4736SOL    HW319264   2.821   3.729   0.076
 4736SOL    MW419265   2.849   3.806   0.047
 4737SOL     OW19266   3.349   4.670   0.259
 4737SOL    HW219267   3.316   4.759   0.249
 4737SOL    HW319268   3.314   4.641   0.344
 4737SOL    MW419269   3.339   4.679   0.270
 4738SOL     OW19270   2.962   5.099   1.447
 4738SOL    HW219271   2.873   5.105   1.415
 4738SOL    HW319272   3.006   5.178   1.415
 4738SOL    MW419273   2.957   5.109   1.439
 4739SOL     OW19274   2.255   3.767   1.789
 4739SOL    HW219275   2.183   3.732   1.737
 4739SOL    HW319276   2.313   3.808   1.724
 4739SOL    MW419277   2.253   3.768   1.774
 4740SOL     OW19278   2.279   5.257   1.088
 4740SOL    HW219279   2.324   5.319   1.145
 4740SOL    HW319280   2.186   5.276   1.101
 4740SOL    MW419281   2.272   5.267   1.095
 4741SOL     OW19282   3.719   4.786   1.442
 4741SOL    HW219283   3.634   4.799   1.401
 4741SOL    HW319284   3.699   4.750   1.529
 4741SOL    MW419285   3.706   4.782   1.447
 4742SOL     OW19286   2.701   5.325   1.196
 4742SOL    HW219287   2.725   5.314   1.105
 4742SOL    HW319288   2.624   5.382   1.194
 4742SOL    MW419289   2.693   5.330   1.185
 4743SOL     OW19290   2.343   4.708   0.051
 4743SOL    HW219291   2.266   4.721   0.107
 4743SOL    HW319292   2.307   4.672  -0.030
 4743SOL    MW419293   2.329   4.704   0.048
 4744SOL     OW19294   2.996   4.681   0.294
 4744SOL    HW219295   2.906   4.702   0.269
 4744SOL    HW319296   3.023   4.754   0.350
 4744SOL    MW419297   2.988   4.693   0.297
 4745SOL     OW19298   2.496   5.030   0.986
 4745SOL    HW219299   2.489   5.009   1.080
 4745SOL    HW319300   2.414   4.998   0.949
 4745SOL    MW419301   2.484   5.024   0.993
 4746SOL     OW19302   3.360   4.040   1.388
 4746SOL    HW219303   3.307   4.042   1.468
 4746SOL    HW319304   3.345   3.953   1.351
 4746SOL    MW419305   3.352   4.030   1.393
 4747SOL     OW19306   3.696   3.964   1.261
 4747SOL    HW219307   3.677   4.031   1.196
 4747SOL    HW319308   3.753   3.902   1.216
 4747SOL    MW419309   3.700   3.965   1.247
 4748SOL     OW19310   1.942   5.122   1.649
 4748SOL    HW219311   1.986   5.055   1.595
 4748SOL    HW319312   1.857   5.084   1.669
 4748SOL    MW419313   1.937   5.108   1.645
 4749SOL     OW19314   2.625   3.797   0.701
 4749SOL    HW219315   2.554   3.858   0.683
 4749SOL    HW319316   2.676   3.794   0.620
 4749SOL    MW419317   2.621   3.803   0.688
 4750SOL     OW19318   2.383   5.037   0.450
 4750SOL    HW219319   2.376   5.069   0.540
 4750SOL    HW319320   2.293   5.021   0.422
 4750SOL    MW419321   2.371   5.039   0.457
 4751SOL     OW19322   2.978   5.430   1.359
 4751SOL    HW219323   2.898   5.415   1.309
 4751SOL    HW319324   2.985   5.525   1.366
 4751SOL    MW419325   2.969   5.441   1.353
 4752SOL     OW19326   3.092   5.395   0.849
 4752SOL    HW219327   3.139   5.468   0.808
 4752SOL    HW319328   3.013   5.434   0.885
 4752SOL    MW419329   3.087   5.410   0.848
 4753SOL     OW19330   3.500   5.490   1.124
 4753SOL    HW219331   3.543   5.460   1.204
 4753SOL    HW319332   3.419   5.438   1.121
 4753SOL    MW419333   3.495   5.479   1.134
 4754SOL     OW19334   2.585   4.454   1.831
 4754SOL    HW219335   2.655   4.396   1.803
 4754SOL    HW319336   2.528   4.399   1.886
 4754SOL    MW419337   2.587   4.441   1.835
 4755SOL     OW19338   3.372   4.666   1.464
 4755SOL    HW219339   3.377   4.719   1.544
 4755SOL    HW319340   3.334   4.583   1.492
 4755SOL    MW419341   3.368   4.661   1.479
 4756SOL     OW19342   3.012   3.801   1.710
 4756SOL    HW219343   3.007   3.708   1.691
 4756SOL    HW319344   3.095   3.812   1.756
 4756SOL    MW419345   3.020   3.790   1.714
 4757SOL     OW19346   2.386   4.321   0.164
 4757SOL    HW219347   2.352   4.377   0.234
 4757SOL    HW319348   2.457   4.271   0.204
 4757SOL    MW419349   2.392   4.322   0.178
 4758SOL     OW19350   3.482   5.072   0.986
 4758SOL    HW219351   3.517   5.054   0.899
 4758SOL    HW319352   3.387   5.073   0.973
 4758SOL    MW419353   3.474   5.069   0.973
 4759SOL     OW19354   2.911   4.720   1.355
 4759SOL    HW219355   2.954   4.755   1.433
 4759SOL    HW319356   2.894   4.797   1.301
 4759SOL    MW419357   2.914   4.735   1.358
 4760SOL     OW19358   3.442   4.207   0.228
 4760SOL    HW219359   3.434   4.278   0.165
 4760SOL    HW319360   3.460   4.251   0.311
 4760SOL    MW419361   3.443   4.221   0.230
 4761SOL     OW19362   2.302   3.862   0.657
 4761SOL    HW219363   2.352   3.905   0.588
 4761SOL    HW319364   2.217   3.906   0.657
 4761SOL    MW419365   2.299   3.875   0.648
 4762SOL     OW19366   2.061   4.924   1.517
 4762SOL    HW219367   2.089   4.877   1.595
 4762SOL    HW319368   1.982   4.879   1.488
 4762SOL    MW419369   2.054   4.913   1.523
 4763SOL     OW19370   2.569   4.251   1.484
 4763SOL    HW219371   2.541   4.339   1.508
 4763SOL    HW319372   2.538   4.195   1.555
 4763SOL    MW419373   2.561   4.254   1.496
 4764SOL     OW19374   3.111   4.469   0.203
 4764SOL    HW219375   3.158   4.487   0.122
 4764SOL    HW319376   3.077   4.553   0.231
 4764SOL    MW419377   3.113   4.483   0.196
 4765SOL     OW19378   2.224   4.647   0.697
 4765SOL    HW219379   2.282   4.703   0.645
 4765SOL    HW319380   2.268   4.562   0.699
 4765SOL    MW419381   2.237   4.644   0.690
 4766SOL     OW19382   3.364   3.999   0.534
 4766SOL    HW219383   3.286   3.949   0.559
 4766SOL    HW319384   3.335   4.090   0.534
 4766SOL    MW419385   3.350   4.003   0.537
 4767SOL     OW19386   2.950   3.961   0.693
 4767SOL    HW219387   2.970   4.036   0.637
 4767SOL    HW319388   2.930   4.000   0.778
 4767SOL    MW419389   2.951   3.977   0.697
 4768SOL     OW19390   2.846   5.211   0.025
 4768SOL    HW219391   2.873   5.289  -0.023
 4768SOL    HW319392   2.753   5.226   0.044
 4768SOL    MW419393   2.837   5.224   0.021
 4769SOL     OW19394   3.710   4.734   1.712
 4769SOL    HW219395   3.623   4.714   1.748
 4769SOL    HW319396   3.764   4.660   1.737
 4769SOL    MW419397   3.705   4.723   1.720
 4770SOL     OW19398   1.931   5.247   0.869
 4770SOL    HW219399   1.963   5.251   0.960
 4770SOL    HW319400   1.836   5.255   0.877
 4770SOL    MW419401   1.923   5.250   0.882
 4771SOL     OW19402   1.886   4.373   0.416
 4771SOL    HW219403   1.826   4.345   0.486
 4771SOL    HW319404   1.960   4.313   0.422
 4771SOL    MW419405   1.888   4.362   0.425
 4772SOL     OW19406   3.454   5.585   1.850
 4772SOL    HW219407   3.499   5.509   1.815
 4772SOL    HW319408   3.492   5.598   1.937
 4772SOL    MW419409   3.464   5.578   1.856
 4773SOL     OW19410   3.054   5.104   0.576
 4773SOL    HW219411   3.077   5.055   0.654
 4773SOL    HW319412   3.135   5.146   0.548
 4773SOL    MW419413   3.067   5.104   0.583
 4774SOL     OW19414   2.312   4.112   1.305
 4774SOL    HW219415   2.345   4.193   1.345
 4774SOL    HW319416   2.285   4.138   1.217
 4774SOL    MW419417   2.311   4.126   1.299
 4775SOL     OW19418   2.266   4.079   1.041
 4775SOL    HW219419   2.296   3.993   1.012
 4775SOL    HW319420   2.171   4.072   1.044
 4775SOL    MW419421   2.258   4.068   1.039
 4776SOL     OW19422   3.095   4.288   1.732
 4776SOL    HW219423   3.147   4.223   1.685
 4776SOL    HW319424   3.053   4.339   1.662
 4776SOL    MW419425   3.096   4.285   1.715
 4777SOL     OW19426   3.194   4.083   1.593
 4777SOL    HW219427   3.101   4.067   1.580
 4777SOL    HW319428   3.220   4.021   1.661
 4777SOL    MW419429   3.184   4.073   1.600
 4778SOL     OW19430   2.409   3.857   0.932
 4778SOL    HW219431   2.419   3.766   0.958
 4778SOL    HW319432   2.365   3.853   0.847
 4778SOL    MW419433   2.405   3.845   0.924
 4779SOL     OW19434   2.503   5.472   1.478
 4779SOL    HW219435   2.420   5.457   1.523
 4779SOL    HW319436   2.562   5.405   1.513
 4779SOL    MW419437   2.501   5.462   1.488
 4780SOL     OW19438   3.560   4.179   1.103
 4780SOL    HW219439   3.493   4.212   1.163
 4780SOL    HW319440   3.603   4.257   1.069
 4780SOL    MW419441   3.558   4.194   1.107
 4781SOL     OW19442   3.738   4.899   1.073
 4781SOL    HW219443   3.731   4.839   0.998
 4781SOL    HW319444   3.664   4.959   1.062
 4781SOL    MW419445   3.728   4.899   1.062
 4782SOL     OW19446   3.120   4.761   0.991
 4782SOL    HW219447   3.134   4.733   1.082
 4782SOL    HW319448   3.206   4.792   0.963
 4782SOL    MW419449   3.133   4.762   1.000
 4783SOL     OW19450   3.203   4.256   1.270
 4783SOL    HW219451   3.224   4.257   1.177
 4783SOL    HW319452   3.248   4.178   1.303
 4783SOL    MW419453   3.210   4.246   1.262
 4784SOL     OW19454   3.696   4.387   1.812
 4784SOL    HW219455   3.733   4.332   1.881
 4784SOL    HW319456   3.721   4.344   1.730
 4784SOL    MW419457   3.703   4.375   1.811
 4785SOL     OW19458   3.243   4.685   1.863
 4785SOL    HW219459   3.309   4.633   1.817
 4785SOL    HW319460   3.263   4.672   1.956
 4785SOL    MW419461   3.254   4.676   1.870
 4786SOL     OW19462   3.194   3.771   0.212
 4786SOL    HW219463   3.268   3.815   0.255
 4786SOL    HW319464   3.118   3.825   0.234
 4786SOL    MW419465   3.194   3.783   0.220
 4787SOL     OW19466   3.254   4.546   0.490
 4787SOL    HW219467   3.169   4.516   0.460
 4787SOL    HW319468   3.246   4.553   0.585
 4787SOL    MW419469   3.242   4.544   0.499
 4788SOL     OW19470   2.330   5.009   1.221
 4788SOL    HW219471   2.342   5.036   1.312
 4788SOL    HW319472   2.311   5.090   1.174
 4788SOL    MW419473   2.329   5.024   1.226
 4789SOL     OW19474   2.614   3.989   1.044
 4789SOL    HW219475   2.587   3.991   1.135
 4789SOL    HW319476   2.544   3.941   0.999
 4789SOL    MW419477   2.602   3.985   1.051
 4790SOL     OW19478   2.468   5.481   1.206
 4790SOL    HW219479   2.520   5.558   1.183
 4790SOL    HW319480   2.477   5.473   1.301
 4790SOL    MW419481   2.477   5.488   1.217
 4791SOL     OW19482   3.370   5.066   1.438
 4791SOL    HW219483   3.355   4.995   1.501
 4791SOL    HW319484   3.416   5.024   1.366
 4791SOL    MW419485   3.376   5.050   1.438
 4792SOL     OW19486   2.444   4.797   1.555
 4792SOL    HW219487   2.481   4.802   1.467
 4792SOL    HW319488   2.483   4.870   1.602
 4792SOL    MW419489   2.454   4.807   1.550
 4793SOL     OW19490   2.624   4.840   1.367
 4793SOL    HW219491   2.683   4.786   1.420
 4793SOL    HW319492   2.639   4.812   1.277
 4793SOL    MW419493   2.634   4.829   1.363
 4794SOL     OW19494   2.627   4.212   0.216
 4794SOL    HW219495   2.700   4.261   0.179
 4794SOL    HW319496   2.643   4.121   0.190
 4794SOL    MW419497   2.639   4.207   0.209
 4795SOL     OW19498   3.435   5.329   1.539
 4795SOL    HW219499   3.477   5.314   1.624
 4795SOL    HW319500   3.426   5.242   1.501
 4795SOL    MW419501   3.439   5.317   1.546
 4796SOL     OW19502   3.095   3.808   1.130
 4796SOL    HW219503   3.150   3.817   1.052
 4796SOL    HW319504   3.150   3.842   1.201
 4796SOL    MW419505   3.109   3.813   1.129
 4797SOL     OW19506   2.102   4.721   0.314
 4797SOL    HW219507   2.039   4.737   0.243
 4797SOL    HW319508   2.049   4.684   0.385
 4797SOL    MW419509   2.087   4.718   0.314
 4798SOL     OW19510   2.458   5.075   0.173
 4798SOL    HW219511   2.473   5.051   0.265
 4798SOL    HW319512   2.366   5.053   0.157
 4798SOL    MW419513   2.448   5.068   0.183
 4799SOL     OW19514   2.997   5.306   0.325
 4799SOL    HW219515   3.005   5.224   0.276
 4799SOL    HW319516   2.916   5.345   0.292
 4799SOL    MW419517   2.987   5.301   0.315
 4800SOL     OW19518   2.256   5.464   0.894
 4800SOL    HW219519   2.260   5.375   0.929
 4800SOL    HW319520   2.282   5.455   0.803
 4800SOL    MW419521   2.259   5.452   0.886
 4801SOL     OW19522   2.873   4.942   1.137
 4801SOL    HW219523   2.805   4.876   1.153
 4801SOL    HW319524   2.891   4.936   1.044
 4801SOL    MW419525   2.866   4.933   1.128
 4802SOL     OW19526   1.962   5.217   1.388
 4802SOL    HW219527   1.952   5.175   1.474
 4802SOL    HW319528   1.883   5.270   1.378
 4802SOL    MW419529   1.951   5.218   1.399
 4803SOL     OW19530   2.866   4.081   0.958
 4803SOL    HW219531   2.796   4.033   1.003
 4803SOL    HW319532   2.898   4.144   1.022
 4803SOL    MW419533   2.861   4.083   0.972
 4804SOL     OW19534   2.517   4.517   1.578
 4804SOL    HW219535   2.510   4.612   1.566
 4804SOL    HW319536   2.526   4.506   1.673
 4804SOL    MW419537   2.518   4.529   1.588
 4805SOL     OW19538   2.238   5.032   1.836
 4805SOL    HW219539   2.310   5.034   1.773
 4805SOL    HW319540   2.208   4.941   1.835
 4805SOL    MW419541   2.243   5.021   1.828
 4806SOL     OW19542   3.322   3.795   1.303
 4806SOL    HW219543   3.393   3.741   1.267
 4806SOL    HW319544   3.321   3.774   1.396
 4806SOL    MW419545   3.331   3.786   1.311
 4807SOL     OW19546   3.522   5.325   1.787
 4807SOL    HW219547   3.495   5.322   1.878
 4807SOL    HW319548   3.618   5.329   1.790
 4807SOL    MW419549   3.532   5.325   1.799
 4808SOL     OW19550   2.333   4.187   0.771
 4808SOL    HW219551   2.404   4.135   0.734
 4808SOL    HW319552   2.319   4.152   0.858
 4808SOL    MW419553   2.341   4.176   0.778
 4809SOL     OW19554   1.888   5.522   1.843
 4809SOL    HW219555   1.938   5.500   1.765
 4809SOL    HW319556   1.896   5.617   1.851
 4809SOL    MW419557   1.896   5.531   1.834
 4810SOL     OW19558   2.649   5.280   0.847
 4810SOL    HW219559   2.577   5.217   0.860
 4810SOL    HW319560   2.610   5.365   0.865
 4810SOL    MW419561   2.633   5.283   0.850
 4811SOL     OW19562   2.969   4.128   0.495
 4811SOL    HW219563   2.991   4.065   0.427
 4811SOL    HW319564   2.874   4.120   0.506
 4811SOL    MW419565   2.959   4.119   0.487
 4812SOL     OW19566   2.054   3.818   0.427
 4812SOL    HW219567   2.125   3.839   0.366
 4812SOL    HW319568   2.008   3.746   0.385
 4812SOL    MW419569   2.058   3.812   0.413
 4813SOL     OW19570   1.885   4.285   1.570
 4813SOL    HW219571   1.949   4.351   1.545
 4813SOL    HW319572   1.804   4.312   1.527
 4813SOL    MW419573   1.883   4.297   1.562
 4814SOL     OW19574   3.623   5.192   0.527
 4814SOL    HW219575   3.593   5.125   0.588
 4814SOL    HW319576   3.717   5.198   0.541
 4814SOL    MW419577   3.631   5.184   0.537
 4815SOL     OW19578   3.179   4.869   0.457
 4815SOL    HW219579   3.151   4.955   0.490
 4815SOL    HW319580   3.207   4.885   0.367
 4815SOL    MW419581   3.179   4.883   0.449
 4816SOL     OW19582   2.841   3.789   0.510
 4816SOL    HW219583   2.878   3.848   0.575
 4816SOL    HW319584   2.818   3.845   0.436
 4816SOL    MW419585   2.842   3.804   0.509
 4817SOL     OW19586   3.694   4.671   0.932
 4817SOL    HW219587   3.685   4.703   0.843
 4817SOL    HW319588   3.647   4.587   0.932
 4817SOL    MW419589   3.687   4.664   0.922
 4818SOL     OW19590   2.070   4.511   1.511
 4818SOL    HW219591   2.091   4.580   1.449
 4818SOL    HW319592   2.150   4.458   1.516
 4818SOL    MW419593   2.083   4.512   1.505
 4819SOL     OW19594   3.606   4.602   0.633
 4819SOL    HW219595   3.700   4.591   0.621
 4819SOL    HW319596   3.582   4.674   0.574
 4819SOL    MW419597   3.616   4.610   0.624
 4820SOL     OW19598   2.055   4.526   1.778
 4820SOL    HW219599   1.981   4.470   1.804
 4820SOL    HW319600   2.050   4.529   1.683
 4820SOL    MW419601   2.044   4.519   1.768
 4821SOL     OW19602   2.221   3.813   1.228
 4821SOL    HW219603   2.264   3.897   1.248
 4821SOL    HW319604   2.294   3.751   1.221
 4821SOL    MW419605   2.236   3.816   1.229
 4822SOL     OW19606   2.262   4.480   0.406
 4822SOL    HW219607   2.262   4.575   0.391
 4822SOL    HW319608   2.339   4.464   0.460
 4822SOL    MW419609   2.272   4.491   0.411
 4823SOL     OW19610   3.038   4.339   1.470
 4823SOL    HW219611   3.074   4.312   1.386
 4823SOL    HW319612   2.951   4.373   1.449
 4823SOL    MW419613   3.032   4.340   1.457
 4824SOL     OW19614   2.021   4.211   0.695
 4824SOL    HW219615   2.083   4.218   0.768
 4824SOL    HW319616   2.021   4.118   0.672
 4824SOL    MW419617   2.029   4.200   0.702
 4825SOL     OW19618   3.568   5.551   0.227
 4825SOL    HW219619   3.635   5.584   0.167
 4825SOL    HW319620   3.525   5.630   0.261
 4825SOL    MW419621   3.570   5.566   0.223
 4826SOL     OW19622   2.703   4.472   1.179
 4826SOL    HW219623   2.661   4.390   1.155
 4826SOL    HW319624   2.704   4.471   1.275
 4826SOL    MW419625   2.696   4.461   1.188
 4827SOL     OW19626   3.374   5.605   1.578
 4827SOL    HW219627   3.377   5.511   1.561
 4827SOL    HW319628   3.397   5.613   1.670
 4827SOL    MW419629   3.377   5.593   1.588
 4828SOL     OW19630   2.507   3.942   1.284
 4828SOL    HW219631   2.438   4.005   1.305
 4828SOL    HW319632   2.534   3.906   1.369
 4828SOL    MW419633   2.501   3.945   1.297
 4829SOL     OW19634   1.890   4.783   0.153
 4829SOL    HW219635   1.859   4.848   0.216
 4829SOL    HW319636   1.839   4.705   0.172
 4829SOL    MW419637   1.880   4.780   0.163
 4830SOL     OW19638   3.302   3.795   0.901
 4830SOL    HW219639   3.390   3.804   0.938
 4830SOL    HW319640   3.312   3.736   0.827
 4830SOL    MW419641   3.316   3.789   0.895
 4831SOL     OW19642   3.334   4.534   0.745
 4831SOL    HW219643   3.414   4.549   0.694
 4831SOL    HW319644   3.327   4.439   0.751
 4831SOL    MW419645   3.343   4.523   0.740
 4832SOL     OW19646   2.474   5.583   0.095
 4832SOL    HW219647   2.379   5.583   0.087
 4832SOL    HW319648   2.490   5.529   0.173
 4832SOL    MW419649   2.464   5.577   0.104
 4833SOL     OW19650   2.784   4.460   1.442
 4833SOL    HW219651   2.853   4.527   1.439
 4833SOL    HW319652   2.717   4.498   1.498
 4833SOL    MW419653   2.785   4.473   1.449
 4834SOL     OW19654   2.202   4.760   1.690
 4834SOL    HW219655   2.156   4.676   1.692
 4834SOL    HW319656   2.259   4.754   1.614
 4834SOL    MW419657   2.204   4.748   1.682
 4835SOL     OW19658   3.319   4.403   0.011
 4835SOL    HW219659   3.247   4.379  -0.047
 4835SOL    HW319660   3.385   4.440  -0.047
 4835SOL    MW419661   3.318   4.405  -0.004
 4836SOL     OW19662   2.453   5.135   0.691
 4836SOL    HW219663   2.518   5.068   0.712
 4836SOL    HW319664   2.505   5.212   0.668
 4836SOL    MW419665   2.468   5.137   0.690
 4837SOL     OW19666   2.714   4.300   0.821
 4837SOL    HW219667   2.654   4.318   0.893
 4837SOL    HW319668   2.748   4.212   0.840
 4837SOL    MW419669   2.710   4.290   0.834
 4838SOL     OW19670   3.655   3.799   1.490
 4838SOL    HW219671   3.576   3.845   1.518
 4838SOL    HW319672   3.690   3.853   1.419
 4838SOL    MW419673   3.649   3.812   1.484
 4839SOL     OW19674   2.939   4.883   0.840
 4839SOL    HW219675   3.031   4.864   0.858
 4839SOL    HW319676   2.912   4.813   0.780
 4839SOL    MW419677   2.947   4.871   0.834
 4840SOL     OW19678   2.732   4.703   0.195
 4840SOL    HW219679   2.718   4.615   0.160
 4840SOL    HW319680   2.683   4.760   0.136
 4840SOL    MW419681   2.724   4.698   0.183
 4841SOL     OW19682   3.213   5.121   0.936
 4841SOL    HW219683   3.186   5.205   0.901
 4841SOL    HW319684   3.173   5.116   1.023
 4841SOL    MW419685   3.206   5.130   0.942
 4842SOL     OW19686   3.132   5.069   1.204
 4842SOL    HW219687   3.143   5.036   1.293
 4842SOL    HW319688   3.051   5.028   1.173
 4842SOL    MW419689   3.122   5.061   1.210
 4843SOL     OW19690   2.145   4.427   0.974
 4843SOL    HW219691   2.095   4.426   1.055
 4843SOL    HW319692   2.165   4.519   0.958
 4843SOL    MW419693   2.141   4.439   0.982
 4844SOL     OW19694   3.212   5.191   1.736
 4844SOL    HW219695   3.212   5.285   1.752
 4844SOL    HW319696   3.257   5.181   1.652
 4844SOL    MW419697   3.218   5.201   1.727
 4845SOL     OW19698   3.451   3.909   0.297
 4845SOL    HW219699   3.444   3.913   0.392
 4845SOL    HW319700   3.463   4.000   0.270
 4845SOL    MW419701   3.452   3.922   0.305
 4846SOL     OW19702   2.740   4.472   0.411
 4846SOL    HW219703   2.720   4.458   0.318
 4846SOL    HW319704   2.833   4.451   0.418
 4846SOL    MW419705   2.750   4.467   0.400
 4847SOL     OW19706   2.067   4.095   1.715
 4847SOL    HW219707   2.024   4.154   1.652
 4847SOL    HW319708   2.135   4.150   1.755
 4847SOL    MW419709   2.071   4.110   1.712
 4848SOL     OW19710   3.179   4.715   1.260
 4848SOL    HW219711   3.242   4.712   1.333
 4848SOL    HW319712   3.095   4.733   1.302
 4848SOL    MW419713   3.175   4.717   1.275
 4849SOL     OW19714   2.723   5.430   0.449
 4849SOL    HW219715   2.781   5.501   0.476
 4849SOL    HW319716   2.746   5.358   0.507
 4849SOL    MW419717   2.734   5.430   0.460
 4850SOL     OW19718   3.518   3.892   1.039
 4850SOL    HW219719   3.563   3.810   1.058
 4850SOL    HW319720   3.538   3.948   1.115
 4850SOL    MW419721   3.528   3.888   1.051
 4851SOL     OW19722   1.966   3.735   1.138
 4851SOL    HW219723   1.957   3.736   1.043
 4851SOL    HW319724   2.060   3.747   1.153
 4851SOL    MW419725   1.978   3.738   1.129
 4852SOL     OW19726   3.603   4.928   0.758
 4852SOL    HW219727   3.582   4.874   0.681
 4852SOL    HW319728   3.699   4.926   0.762
 4852SOL    MW419729   3.612   4.921   0.747
 4853SOL     OW19730   2.295   5.073   1.501
 4853SOL    HW219731   2.216   5.023   1.524
 4853SOL    HW319732   2.365   5.032   1.551
 4853SOL    MW419733   2.293   5.061   1.511
 4854SOL     OW19734   2.179   3.862   0.184
 4854SOL    HW219735   2.108   3.917   0.152
 4854SOL    HW319736   2.221   3.828   0.105
 4854SOL    MW419737   2.175   3.864   0.170
 4855SOL     OW19738   3.303   4.359   1.020
 4855SOL    HW219739   3.226   4.405   0.986
 4855SOL    HW319740   3.360   4.428   1.054
 4855SOL    MW419741   3.300   4.374   1.020
 4856SOL     OW19742   1.935   3.961   0.033
 4856SOL    HW219743   1.902   4.040   0.077
 4856SOL    HW319744   1.990   3.994  -0.038
 4856SOL    MW419745   1.938   3.975   0.030
 4857SOL     OW19746   1.969   5.218   0.222
 4857SOL    HW219747   1.986   5.302   0.264
 4857SOL    HW319748   2.004   5.227   0.134
 4857SOL    MW419749   1.974   5.231   0.216
 4858SOL     OW19750   3.241   5.307   0.439
 4858SOL    HW219751   3.304   5.297   0.368
 4858SOL    HW319752   3.158   5.327   0.394
 4858SOL    MW419753   3.238   5.308   0.424
 4859SOL     OW19754   3.604   4.575   2.125
 4859SOL    HW219755   3.645   4.517   2.190
 4859SOL    HW319756   3.511   4.567   2.142
 4859SOL    MW419757   3.598   4.567   2.135
 4860SOL     OW19758   3.470   4.507   3.120
 4860SOL    HW219759   3.425   4.574   3.171
 4860SOL    HW319760   3.558   4.543   3.106
 4860SOL    MW419761   3.476   4.520   3.124
 4861SOL     OW19762   2.398   4.758   2.354
 4861SOL    HW219763   2.488   4.733   2.338
 4861SOL    HW319764   2.394   4.851   2.331
 4861SOL    MW419765   2.410   4.767   2.349
 4862SOL     OW19766   2.893   5.346   3.497
 4862SOL    HW219767   2.934   5.382   3.418
 4862SOL    HW319768   2.928   5.257   3.504
 4862SOL    MW419769   2.904   5.339   3.488
 4863SOL     OW19770   3.450   4.901   3.101
 4863SOL    HW219771   3.371   4.866   3.059
 4863SOL    HW319772   3.477   4.973   3.045
 4863SOL    MW419773   3.443   4.906   3.088
 4864SOL     OW19774   2.682   4.214   2.367
 4864SOL    HW219775   2.657   4.302   2.395
 4864SOL    HW319776   2.679   4.217   2.271
 4864SOL    MW419777   2.678   4.226   2.359
 4865SOL     OW19778   2.124   4.242   2.295
 4865SOL    HW219779   2.156   4.330   2.277
 4865SOL    HW319780   2.112   4.240   2.390
 4865SOL    MW419781   2.127   4.254   2.307
 4866SOL     OW19782   2.202   4.655   3.196
 4866SOL    HW219783   2.265   4.602   3.147
 4866SOL    HW319784   2.183   4.729   3.139
 4866SOL    MW419785   2.208   4.657   3.183
 4867SOL     OW19786   2.523   3.997   2.382
 4867SOL    HW219787   2.581   4.073   2.384
 4867SOL    HW319788   2.458   4.018   2.315
 4867SOL    MW419789   2.522   4.009   2.373
 4868SOL     OW19790   2.610   4.924   2.557
 4868SOL    HW219791   2.690   4.927   2.609
 4868SOL    HW319792   2.638   4.891   2.471
 4868SOL    MW419793   2.624   4.920   2.552
 4869SOL     OW19794   2.635   5.265   3.460
 4869SOL    HW219795   2.719   5.291   3.499
 4869SOL    HW319796   2.659   5.209   3.386
 4869SOL    MW419797   2.649   5.261   3.455
 4870SOL     OW19798   2.387   4.428   2.548
 4870SOL    HW219799   2.372   4.348   2.599
 4870SOL    HW319800   2.469   4.463   2.582
 4870SOL    MW419801   2.395   4.420   2.560
 4871SOL     OW19802   2.724   5.114   3.233
 4871SOL    HW219803   2.688   5.180   3.173
 4871SOL    HW319804   2.652   5.052   3.246
 4871SOL    MW419805   2.710   5.114   3.227
 4872SOL     OW19806   2.529   4.254   2.925
 4872SOL    HW219807   2.435   4.250   2.943
 4872SOL    HW319808   2.559   4.163   2.934
 4872SOL    MW419809   2.520   4.242   2.928
 4873SOL     OW19810   2.275   4.668   2.829
 4873SOL    HW219811   2.230   4.675   2.745
 4873SOL    HW319812   2.255   4.751   2.873
 4873SOL    MW419813   2.267   4.680   2.823
 4874SOL     OW19814   1.972   5.514   2.704
 4874SOL    HW219815   2.061   5.506   2.739
 4874SOL    HW319816   1.936   5.426   2.709
 4874SOL    MW419817   1.979   5.501   2.709
 4875SOL     OW19818   3.237   4.906   2.073
 4875SOL    HW219819   3.155   4.942   2.039
 4875SOL    HW319820   3.305   4.949   2.022
 4875SOL    MW419821   3.235   4.916   2.061
 4876SOL     OW19822   2.236   5.041   2.739
 4876SOL    HW219823   2.212   5.094   2.815
 4876SOL    HW319824   2.292   5.099   2.687
 4876SOL    MW419825   2.240   5.056   2.742
 4877SOL     OW19826   2.798   4.685   2.549
 4877SOL    HW219827   2.712   4.672   2.589
 4877SOL    HW319828   2.851   4.612   2.581
 4877SOL    MW419829   2.794   4.674   2.558
 4878SOL     OW19830   2.206   5.337   3.334
 4878SOL    HW219831   2.114   5.313   3.319
 4878SOL    HW319832   2.250   5.254   3.351
 4878SOL    MW419833   2.200   5.322   3.333
 4879SOL     OW19834   2.789   5.047   2.266
 4879SOL    HW219835   2.766   5.109   2.334
 4879SOL    HW319836   2.746   4.965   2.292
 4879SOL    MW419837   2.781   5.043   2.277
 4880SOL     OW19838   3.662   4.048   2.722
 4880SOL    HW219839   3.599   4.028   2.791
 4880SOL    HW319840   3.652   3.977   2.659
 4880SOL    MW419841   3.652   4.035   2.723
 4881SOL     OW19842   2.286   4.020   2.234
 4881SOL    HW219843   2.260   3.982   2.150
 4881SOL    HW319844   2.223   4.090   2.250
 4881SOL    MW419845   2.275   4.023   2.225
 4882SOL     OW19846   2.121   4.981   2.271
 4882SOL    HW219847   2.069   5.049   2.227
 4882SOL    HW319848   2.118   4.907   2.211
 4882SOL    MW419849   2.113   4.980   2.258
 4883SOL     OW19850   2.783   5.444   2.049
 4883SOL    HW219851   2.738   5.460   2.132
 4883SOL    HW319852   2.714   5.409   1.991
 4883SOL    MW419853   2.769   5.441   2.051
 4884SOL     OW19854   3.718   4.217   2.024
 4884SOL    HW219855   3.627   4.219   2.052
 4884SOL    HW319856   3.763   4.279   2.082
 4884SOL    MW419857   3.711   4.225   2.034
 4885SOL     OW19858   3.463   4.820   2.374
 4885SOL    HW219859   3.373   4.820   2.409
 4885SOL    HW319860   3.456   4.866   2.291
 4885SOL    MW419861   3.450   4.826   2.368
 4886SOL     OW19862   3.263   4.455   3.446
 4886SOL    HW219863   3.332   4.393   3.423
 4886SOL    HW319864   3.188   4.429   3.393
 4886SOL    MW419865   3.263   4.442   3.437
 4887SOL     OW19866   2.004   5.335   2.998
 4887SOL    HW219867   1.987   5.281   3.075
 4887SOL    HW319868   1.992   5.425   3.028
 4887SOL    MW419869   2.001   5.339   3.012
 4888SOL     OW19870   2.999   4.842   3.438
 4888SOL    HW219871   2.984   4.935   3.423
 4888SOL    HW319872   3.094   4.832   3.438
 4888SOL    MW419873   3.008   4.852   3.435
 4889SOL     OW19874   2.795   4.266   3.639
 4889SOL    HW219875   2.885   4.267   3.606
 4889SOL    HW319876   2.754   4.191   3.597
 4889SOL    MW419877   2.801   4.256   3.630
 4890SOL     OW19878   3.370   4.798   2.766
 4890SOL    HW219879   3.373   4.732   2.697
 4890SOL    HW319880   3.455   4.841   2.762
 4890SOL    MW419881   3.382   4.794   2.757
 4891SOL     OW19882   2.990   4.401   2.335
 4891SOL    HW219883   3.016   4.425   2.246
 4891SOL    HW319884   2.972   4.308   2.331
 4891SOL    MW419885   2.992   4.393   2.322
 4892SOL     OW19886   3.655   5.021   2.186
 4892SOL    HW219887   3.611   5.062   2.261
 4892SOL    HW319888   3.712   5.089   2.151
 4892SOL    MW419889   3.657   5.035   2.191
 4893SOL     OW19890   2.575   4.070   3.589
 4893SOL    HW219891   2.585   3.996   3.529
 4893SOL    HW319892   2.611   4.039   3.672
 4893SOL    MW419893   2.581   4.056   3.591
 4894SOL     OW19894   2.311   5.437   2.504
 4894SOL    HW219895   2.343   5.525   2.482
 4894SOL    HW319896   2.264   5.409   2.426
 4894SOL    MW419897   2.310   5.445   2.491
 4895SOL     OW19898   3.695   3.799   2.553
 4895SOL    HW219899   3.749   3.750   2.615
 4895SOL    HW319900   3.638   3.733   2.514
 4895SOL    MW419901   3.695   3.783   2.555
 4896SOL     OW19902   2.027   5.497   2.081
 4896SOL    HW219903   2.056   5.587   2.073
 4896SOL    HW319904   1.977   5.480   2.002
 4896SOL    MW419905   2.025   5.505   2.070
 4897SOL     OW19906   2.814   3.752   2.966
 4897SOL    HW219907   2.773   3.830   2.928
 4897SOL    HW319908   2.908   3.770   2.961
 4897SOL    MW419909   2.820   3.764   2.961
 4898SOL     OW19910   3.431   5.305   2.052
 4898SOL    HW219911   3.479   5.374   2.098
 4898SOL    HW319912   3.352   5.349   2.021
 4898SOL    MW419913   3.426   5.319   2.055
 4899SOL     OW19914   2.829   4.430   1.996
 4899SOL    HW219915   2.831   4.377   1.917
 4899SOL    HW319916   2.917   4.467   2.002
 4899SOL    MW419917   2.841   4.429   1.985
 4900SOL     OW19918   3.443   4.356   2.332
 4900SOL    HW219919   3.482   4.356   2.419
 4900SOL    HW319920   3.384   4.432   2.332
 4900SOL    MW419921   3.440   4.367   2.343
 4901SOL     OW19922   2.760   4.723   3.461
 4901SOL    HW219923   2.737   4.703   3.551
 4901SOL    HW319924   2.845   4.767   3.466
 4901SOL    MW419925   2.767   4.726   3.473
 4902SOL     OW19926   2.840   3.860   3.221
 4902SOL    HW219927   2.846   3.822   3.134
 4902SOL    HW319928   2.829   3.954   3.206
 4902SOL    MW419929   2.841   3.868   3.209
 4903SOL     OW19930   2.929   4.349   3.055
 4903SOL    HW219931   3.004   4.378   3.002
 4903SOL    HW319932   2.861   4.414   3.039
 4903SOL    MW419933   2.930   4.361   3.045
 4904SOL     OW19934   3.479   4.317   3.332
 4904SOL    HW219935   3.460   4.226   3.311
 4904SOL    HW319936   3.457   4.366   3.253
 4904SOL    MW419937   3.474   4.310   3.319
 4905SOL     OW19938   3.621   5.411   3.236
 4905SOL    HW219939   3.549   5.373   3.287
 4905SOL    HW319940   3.638   5.496   3.277
 4905SOL    MW419941   3.615   5.416   3.248
 4906SOL     OW19942   2.926   4.055   3.438
 4906SOL    HW219943   2.892   4.094   3.357
 4906SOL    HW319944   2.904   3.963   3.431
 4906SOL    MW419945   2.919   4.048   3.428
 4907SOL     OW19946   3.335   4.869   3.514
 4907SOL    HW219947   3.417   4.910   3.544
 4907SOL    HW319948   3.298   4.831   3.594
 4907SOL    MW419949   3.341   4.870   3.529
 4908SOL     OW19950   3.630   4.242   2.498
 4908SOL    HW219951   3.719   4.211   2.515
 4908SOL    HW319952   3.573   4.182   2.546
 4908SOL    MW419953   3.633   4.230   2.507
 4909SOL     OW19954   2.056   3.956   2.527
 4909SOL    HW219955   2.047   3.896   2.453
 4909SOL    HW319956   1.989   3.927   2.590
 4909SOL    MW419957   2.046   3.943   2.525
 4910SOL     OW19958   2.999   5.049   2.088
 4910SOL    HW219959   2.949   5.051   2.170
 4910SOL    HW319960   2.933   5.067   2.020
 4910SOL    MW419961   2.985   5.051   2.090
 4911SOL     OW19962   2.003   4.129   2.890
 4911SOL    HW219963   1.975   4.220   2.899
 4911SOL    HW319964   1.940   4.090   2.829
 4911SOL    MW419965   1.990   4.135   2.884
 4912SOL     OW19966   2.462   5.467   2.196
 4912SOL    HW219967   2.383   5.425   2.229
 4912SOL    HW319968   2.528   5.450   2.263
 4912SOL    MW419969   2.461   5.459   2.209
 4913SOL     OW19970   3.590   4.987   3.593
 4913SOL    HW219971   3.640   4.913   3.625
 4913SOL    HW319972   3.536   5.014   3.668
 4913SOL    MW419973   3.590   4.981   3.606
 4914SOL     OW19974   2.598   4.882   1.903
 4914SOL    HW219975   2.520   4.828   1.890
 4914SOL    HW319976   2.569   4.955   1.956
 4914SOL    MW419977   2.584   4.884   1.908
 4915SOL     OW19978   3.724   4.622   3.095
 4915SOL    HW219979   3.740   4.660   3.008
 4915SOL    HW319980   3.758   4.688   3.156
 4915SOL    MW419981   3.731   4.635   3.091
 4916SOL     OW19982   3.179   5.398   1.971
 4916SOL    HW219983   3.105   5.361   2.021
 4916SOL    HW319984   3.187   5.488   2.004
 4916SOL    MW419985   3.170   5.405   1.983
 4917SOL     OW19986   1.987   4.404   3.060
 4917SOL    HW219987   2.049   4.434   3.126
 4917SOL    HW319988   1.921   4.473   3.054
 4917SOL    MW419989   1.986   4.417   3.067
 4918SOL     OW19990   3.403   5.072   1.913
 4918SOL    HW219991   3.350   5.121   1.849
 4918SOL    HW319992   3.434   5.138   1.974
 4918SOL    MW419993   3.401   5.086   1.911
 4919SOL     OW19994   2.628   3.961   1.968
 4919SOL    HW219995   2.576   3.881   1.956
 4919SOL    HW319996   2.715   3.938   1.936
 4919SOL    MW419997   2.631   3.947   1.962
 4920SOL     OW19998   2.082   5.513   3.512
 4920SOL    HW219999   2.056   5.581   3.450
 4920SOL    HW320000   2.130   5.450   3.460
 4920SOL    MW420001   2.084   5.513   3.498
 4921SOL     OW20002   2.134   4.832   3.019
 4921SOL    HW220003   2.187   4.907   3.044
 4921SOL    HW320004   2.053   4.870   2.985
 4921SOL    MW420005   2.130   4.847   3.019
 4922SOL     OW20006   2.674   4.736   3.007
 4922SOL    HW220007   2.702   4.645   3.019
 4922SOL    HW320008   2.603   4.730   2.943
 4922SOL    MW420009   2.667   4.724   3.002
 4923SOL     OW20010   1.989   4.601   2.425
 4923SOL    HW220011   2.080   4.616   2.452
 4923SOL    HW320012   1.992   4.522   2.371
 4923SOL    MW420013   2.001   4.593   2.423
 4924SOL     OW20014   2.225   4.309   3.679
 4924SOL    HW220015   2.172   4.389   3.686
 4924SOL    HW320016   2.295   4.321   3.744
 4924SOL    MW420017   2.227   4.322   3.687
 4925SOL     OW20018   2.611   3.859   3.386
 4925SOL    HW220019   2.588   3.767   3.388
 4925SOL    HW320020   2.697   3.861   3.343
 4925SOL    MW420021   2.618   3.849   3.382
 4926SOL     OW20022   2.295   4.383   3.425
 4926SOL    HW220023   2.375   4.433   3.411
 4926SOL    HW320024   2.286   4.377   3.520
 4926SOL    MW420025   2.304   4.389   3.435
 4927SOL     OW20026   2.616   5.533   2.799
 4927SOL    HW220027   2.705   5.548   2.829
 4927SOL    HW320028   2.611   5.580   2.715
 4927SOL    MW420029   2.626   5.541   2.792
 4928SOL     OW20030   3.272   3.908   3.696
 4928SOL    HW220031   3.328   3.835   3.722
 4928SOL    HW320032   3.242   3.946   3.778
 4928SOL    MW420033   3.276   3.903   3.709
 4929SOL     OW20034   1.997   5.213   2.464
 4929SOL    HW220035   1.969   5.252   2.546
 4929SOL    HW320036   2.017   5.122   2.486
 4929SOL    MW420037   1.995   5.205   2.477
 4930SOL     OW20038   2.830   5.256   2.499
 4930SOL    HW220039   2.913   5.210   2.483
 4930SOL    HW320040   2.820   5.255   2.595
 4930SOL    MW420041   2.840   5.249   2.509
 4931SOL     OW20042   3.662   4.401   2.813
 4931SOL    HW220043   3.751   4.431   2.795
 4931SOL    HW320044   3.642   4.341   2.742
 4931SOL    MW420045   3.671   4.398   2.802
 4932SOL     OW20046   3.513   4.580   3.693
 4932SOL    HW220047   3.568   4.504   3.674
 4932SOL    HW320048   3.515   4.588   3.788
 4932SOL    MW420049   3.521   4.571   3.701
 4933SOL     OW20050   2.563   5.313   1.904
 4933SOL    HW220051   2.503   5.382   1.874
 4933SOL    HW320052   2.508   5.255   1.957
 4933SOL    MW420053   2.547   5.315   1.906
 4934SOL     OW20054   3.001   3.958   2.127
 4934SOL    HW220055   2.934   3.934   2.064
 4934SOL    HW320056   3.066   4.007   2.076
 4934SOL    MW420057   3.001   3.960   2.112
 4935SOL     OW20058   2.808   4.142   3.212
 4935SOL    HW220059   2.727   4.183   3.240
 4935SOL    HW320060   2.855   4.210   3.164
 4935SOL    MW420061   2.803   4.157   3.210
 4936SOL     OW20062   3.068   4.480   2.835
 4936SOL    HW220063   3.081   4.574   2.845
 4936SOL    HW320064   3.029   4.470   2.749
 4936SOL    MW420065   3.064   4.491   2.825
 4937SOL     OW20066   2.520   4.675   2.639
 4937SOL    HW220067   2.431   4.666   2.672
 4937SOL    HW320068   2.524   4.765   2.607
 4937SOL    MW420069   2.509   4.686   2.639
 4938SOL     OW20070   3.319   4.258   2.634
 4938SOL    HW220071   3.264   4.179   2.633
 4938SOL    HW320072   3.301   4.299   2.718
 4938SOL    MW420073   3.309   4.253   2.643
 4939SOL     OW20074   2.290   3.945   3.451
 4939SOL    HW220075   2.211   3.963   3.503
 4939SOL    HW320076   2.285   4.007   3.378
 4939SOL    MW420077   2.280   3.955   3.448
 4940SOL     OW20078   2.938   4.462   2.591
 4940SOL    HW220079   2.875   4.394   2.615
 4940SOL    HW320080   2.958   4.443   2.499
 4940SOL    MW420081   2.932   4.449   2.583
 4941SOL     OW20082   2.194   5.357   2.293
 4941SOL    HW220083   2.155   5.404   2.219
 4941SOL    HW320084   2.128   5.292   2.318
 4941SOL    MW420085   2.181   5.355   2.287
 4942SOL     OW20086   2.686   4.766   2.317
 4942SOL    HW220087   2.688   4.740   2.224
 4942SOL    HW320088   2.744   4.703   2.360
 4942SOL    MW420089   2.694   4.755   2.311
 4943SOL     OW20090   3.239   5.326   3.089
 4943SOL    HW220091   3.164   5.372   3.127
 4943SOL    HW320092   3.221   5.233   3.106
 4943SOL    MW420093   3.228   5.320   3.097
 4944SOL     OW20094   3.196   4.010   2.650
 4944SOL    HW220095   3.224   3.942   2.711
 4944SOL    HW320096   3.110   3.981   2.620
 4944SOL    MW420097   3.189   3.997   2.654
 4945SOL     OW20098   2.001   4.944   2.584
 4945SOL    HW220099   2.065   4.976   2.647
 4945SOL    HW320100   2.050   4.880   2.532
 4945SOL    MW420101   2.016   4.940   2.585
 4946SOL     OW20102   2.501   5.020   3.566
 4946SOL    HW220103   2.549   5.103   3.553
 4946SOL    HW320104   2.558   4.968   3.622
 4946SOL    MW420105   2.515   5.024   3.572
 4947SOL     OW20106   2.077   5.262   3.706
 4947SOL    HW220107   2.133   5.186   3.721
 4947SOL    HW320108   2.026   5.240   3.628
 4947SOL    MW420109   2.077   5.249   3.697
 4948SOL     OW20110   3.176   4.114   1.985
 4948SOL    HW220111   3.149   4.180   1.921
 4948SOL    HW320112   3.246   4.157   2.035
 4948SOL    MW420113   3.181   4.127   1.982
 4949SOL     OW20114   2.844   3.819   1.922
 4949SOL    HW220115   2.900   3.811   1.844
 4949SOL    HW320116   2.821   3.729   1.944
 4949SOL    MW420117   2.849   3.806   1.915
 4950SOL     OW20118   3.349   4.670   2.127
 4950SOL    HW220119   3.316   4.759   2.117
 4950SOL    HW320120   3.314   4.641   2.212
 4950SOL    MW420121   3.339   4.679   2.138
 4951SOL     OW20122   2.962   5.099   3.315
 4951SOL    HW220123   2.873   5.105   3.283
 4951SOL    HW320124   3.006   5.178   3.283
 4951SOL    MW420125   2.957   5.109   3.307
 4952SOL     OW20126   2.255   3.767   3.657
 4952SOL    HW220127   2.183   3.732   3.605
 4952SOL    HW320128   2.313   3.808   3.592
 4952SOL    MW420129   2.253   3.768   3.642
 4953SOL     OW20130   2.279   5.257   2.956
 4953SOL    HW220131   2.324   5.319   3.013
 4953SOL    HW320132   2.186   5.276   2.969
 4953SOL    MW420133   2.272   5.267   2.963
 4954SOL     OW20134   2.701   5.325   3.064
 4954SOL    HW220135   2.725   5.314   2.973
 4954SOL    HW320136   2.624   5.382   3.062
 4954SOL    MW420137   2.693   5.330   3.053
 4955SOL     OW20138   2.343   4.708   1.919
 4955SOL    HW220139   2.266   4.721   1.975
 4955SOL    HW320140   2.307   4.672   1.838
 4955SOL    MW420141   2.329   4.704   1.916
 4956SOL     OW20142   2.996   4.681   2.162
 4956SOL    HW220143   2.906   4.702   2.137
 4956SOL    HW320144   3.023   4.754   2.218
 4956SOL    MW420145   2.988   4.693   2.165
 4957SOL     OW20146   2.496   5.030   2.854
 4957SOL    HW220147   2.489   5.009   2.948
 4957SOL    HW320148   2.414   4.998   2.817
 4957SOL    MW420149   2.484   5.024   2.861
 4958SOL     OW20150   3.360   4.040   3.256
 4958SOL    HW220151   3.307   4.042   3.336
 4958SOL    HW320152   3.345   3.953   3.219
 4958SOL    MW420153   3.352   4.030   3.261
 4959SOL     OW20154   3.696   3.964   3.129
 4959SOL    HW220155   3.677   4.031   3.064
 4959SOL    HW320156   3.753   3.902   3.084
 4959SOL    MW420157   3.700   3.965   3.115
 4960SOL     OW20158   1.942   5.122   3.517
 4960SOL    HW220159   1.986   5.055   3.463
 4960SOL    HW320160   1.857   5.084   3.537
 4960SOL    MW420161   1.937   5.108   3.513
 4961SOL     OW20162   2.625   3.797   2.569
 4961SOL    HW220163   2.554   3.858   2.551
 4961SOL    HW320164   2.676   3.794   2.488
 4961SOL    MW420165   2.621   3.803   2.556
 4962SOL     OW20166   2.383   5.037   2.318
 4962SOL    HW220167   2.376   5.069   2.408
 4962SOL    HW320168   2.293   5.021   2.290
 4962SOL    MW420169   2.371   5.039   2.325
 4963SOL     OW20170   2.978   5.430   3.227
 4963SOL    HW220171   2.898   5.415   3.177
 4963SOL    HW320172   2.985   5.525   3.234
 4963SOL    MW420173   2.969   5.441   3.221
 4964SOL     OW20174   3.092   5.395   2.717
 4964SOL    HW220175   3.139   5.468   2.676
 4964SOL    HW320176   3.013   5.434   2.753
 4964SOL    MW420177   3.087   5.410   2.716
 4965SOL     OW20178   3.500   5.490   2.992
 4965SOL    HW220179   3.543   5.460   3.072
 4965SOL    HW320180   3.419   5.438   2.989
 4965SOL    MW420181   3.495   5.479   3.002
 4966SOL     OW20182   2.585   4.454   3.699
 4966SOL    HW220183   2.655   4.396   3.671
 4966SOL    HW320184   2.528   4.399   3.754
 4966SOL    MW420185   2.587   4.441   3.703
 4967SOL     OW20186   3.372   4.666   3.332
 4967SOL    HW220187   3.377   4.719   3.412
 4967SOL    HW320188   3.334   4.583   3.360
 4967SOL    MW420189   3.368   4.661   3.347
 4968SOL     OW20190   3.012   3.801   3.578
 4968SOL    HW220191   3.007   3.708   3.559
 4968SOL    HW320192   3.095   3.812   3.624
 4968SOL    MW420193   3.020   3.790   3.582
 4969SOL     OW20194   2.386   4.321   2.032
 4969SOL    HW220195   2.352   4.377   2.102
 4969SOL    HW320196   2.457   4.271   2.072
 4969SOL    MW420197   2.392   4.322   2.046
 4970SOL     OW20198   3.482   5.072   2.854
 4970SOL    HW220199   3.517   5.054   2.767
 4970SOL    HW320200   3.387   5.073   2.841
 4970SOL    MW420201   3.474   5.069   2.841
 4971SOL     OW20202   2.911   4.720   3.223
 4971SOL    HW220203   2.954   4.755   3.301
 4971SOL    HW320204   2.894   4.797   3.169
 4971SOL    MW420205   2.914   4.735   3.226
 4972SOL     OW20206   3.442   4.207   2.096
 4972SOL    HW220207   3.434   4.278   2.033
 4972SOL    HW320208   3.460   4.251   2.179
 4972SOL    MW420209   3.443   4.221   2.098
 4973SOL     OW20210   2.302   3.862   2.525
 4973SOL    HW220211   2.352   3.905   2.456
 4973SOL    HW320212   2.217   3.906   2.525
 4973SOL    MW420213   2.299   3.875   2.516
 4974SOL     OW20214   2.061   4.924   3.385
 4974SOL    HW220215   2.089   4.877   3.463
 4974SOL    HW320216   1.982   4.879   3.356
 4974SOL    MW420217   2.054   4.913   3.391
 4975SOL     OW20218   2.569   4.251   3.352
 4975SOL    HW220219   2.541   4.339   3.376
 4975SOL    HW320220   2.538   4.195   3.423
 4975SOL    MW420221   2.561   4.254   3.364
 4976SOL     OW20222   3.111   4.469   2.071
 4976SOL    HW220223   3.158   4.487   1.990
 4976SOL    HW320224   3.077   4.553   2.099
 4976SOL    MW420225   3.113   4.483   2.064
 4977SOL     OW20226   2.224   4.647   2.565
 4977SOL    HW220227   2.282   4.703   2.513
 4977SOL    HW320228   2.268   4.562   2.567
 4977SOL    MW420229   2.237   4.644   2.558
 4978SOL     OW20230   3.364   3.999   2.402
 4978SOL    HW220231   3.286   3.949   2.427
 4978SOL    HW320232   3.335   4.090   2.402
 4978SOL    MW420233   3.350   4.003   2.405
 4979SOL     OW20234   2.950   3.961   2.561
 4979SOL    HW220235   2.970   4.036   2.505
 4979SOL    HW320236   2.930   4.000   2.646
 4979SOL    MW420237   2.951   3.977   2.565
 4980SOL     OW20238   2.846   5.211   1.893
 4980SOL    HW220239   2.873   5.289   1.845
 4980SOL    HW320240   2.753   5.226   1.912
 4980SOL    MW420241   2.837   5.224   1.889
 4981SOL     OW20242   3.710   4.734   3.580
 4981SOL    HW220243   3.623   4.714   3.616
 4981SOL    HW320244   3.764   4.660   3.605
 4981SOL    MW420245   3.705   4.723   3.588
 4982SOL     OW20246   1.931   5.247   2.737
 4982SOL    HW220247   1.963   5.251   2.828
 4982SOL    HW320248   1.836   5.255   2.745
 4982SOL    MW420249   1.923   5.250   2.750
 4983SOL     OW20250   1.886   4.373   2.284
 4983SOL    HW220251   1.826   4.345   2.354
 4983SOL    HW320252   1.960   4.313   2.290
 4983SOL    MW420253   1.888   4.362   2.293
 4984SOL     OW20254   3.054   5.104   2.444
 4984SOL    HW220255   3.077   5.055   2.522
 4984SOL    HW320256   3.135   5.146   2.416
 4984SOL    MW420257   3.067   5.104   2.451
 4985SOL     OW20258   2.312   4.112   3.173
 4985SOL    HW220259   2.345   4.193   3.213
 4985SOL    HW320260   2.285   4.138   3.085
 4985SOL    MW420261   2.311   4.126   3.167
 4986SOL     OW20262   2.266   4.079   2.909
 4986SOL    HW220263   2.296   3.993   2.880
 4986SOL    HW320264   2.171   4.072   2.912
 4986SOL    MW420265   2.258   4.068   2.907
 4987SOL     OW20266   3.095   4.288   3.600
 4987SOL    HW220267   3.147   4.223   3.553
 4987SOL    HW320268   3.053   4.339   3.530
 4987SOL    MW420269   3.096   4.285   3.583
 4988SOL     OW20270   3.194   4.083   3.461
 4988SOL    HW220271   3.101   4.067   3.448
 4988SOL    HW320272   3.220   4.021   3.529
 4988SOL    MW420273   3.184   4.073   3.468
 4989SOL     OW20274   2.409   3.857   2.800
 4989SOL    HW220275   2.419   3.766   2.826
 4989SOL    HW320276   2.365   3.853   2.715
 4989SOL    MW420277   2.405   3.845   2.792
 4990SOL     OW20278   2.503   5.472   3.346
 4990SOL    HW220279   2.420   5.457   3.391
 4990SOL    HW320280   2.562   5.405   3.381
 4990SOL    MW420281   2.501   5.462   3.356
 4991SOL     OW20282   3.560   4.179   2.971
 4991SOL    HW220283   3.493   4.212   3.031
 4991SOL    HW320284   3.603   4.257   2.937
 4991SOL    MW420285   3.558   4.194   2.975
 4992SOL     OW20286   3.738   4.899   2.941
 4992SOL    HW220287   3.731   4.839   2.866
 4992SOL    HW320288   3.664   4.959   2.930
 4992SOL    MW420289   3.728   4.899   2.930
 4993SOL     OW20290   3.120   4.761   2.859
 4993SOL    HW220291   3.134   4.733   2.950
 4993SOL    HW320292   3.206   4.792   2.831
 4993SOL    MW420293   3.133   4.762   2.868
 4994SOL     OW20294   3.203   4.256   3.138
 4994SOL    HW220295   3.224   4.257   3.045
 4994SOL    HW320296   3.248   4.178   3.171
 4994SOL    MW420297   3.210   4.246   3.130
 4995SOL     OW20298   3.696   4.387   3.680
 4995SOL    HW220299   3.733   4.332   3.749
 4995SOL    HW320300   3.721   4.344   3.598
 4995SOL    MW420301   3.703   4.375   3.679
 4996SOL     OW20302   3.243   4.685   3.731
 4996SOL    HW220303   3.309   4.633   3.685
 4996SOL    HW320304   3.263   4.672   3.824
 4996SOL    MW420305   3.254   4.676   3.738
 4997SOL     OW20306   3.194   3.771   2.080
 4997SOL    HW220307   3.268   3.815   2.123
 4997SOL    HW320308   3.118   3.825   2.102
 4997SOL    MW420309   3.194   3.783   2.088
 4998SOL     OW20310   3.254   4.546   2.358
 4998SOL    HW220311   3.169   4.516   2.328
 4998SOL    HW320312   3.246   4.553   2.453
 4998SOL    MW420313   3.242   4.544   2.367
 4999SOL     OW20314   2.330   5.009   3.089
 4999SOL    HW220315   2.342   5.036   3.180
 4999SOL    HW320316   2.311   5.090   3.042
 4999SOL    MW420317   2.329   5.024   3.094
 5000SOL     OW20318   2.614   3.989   2.912
 5000SOL    HW220319   2.587   3.991   3.003
 5000SOL    HW320320   2.544   3.941   2.867
 5000SOL    MW420321   2.602   3.985   2.919
 5001SOL     OW20322   2.468   5.481   3.074
 5001SOL    HW220323   2.520   5.558   3.051
 5001SOL    HW320324   2.477   5.473   3.169
 5001SOL    MW420325   2.477   5.488   3.085
 5002SOL     OW20326   3.370   5.066   3.306
 5002SOL    HW220327   3.355   4.995   3.369
 5002SOL    HW320328   3.416   5.024   3.234
 5002SOL    MW420329   3.376   5.050   3.306
 5003SOL     OW20330   2.444   4.797   3.423
 5003SOL    HW220331   2.481   4.802   3.335
 5003SOL    HW320332   2.483   4.870   3.470
 5003SOL    MW420333   2.454   4.807   3.418
 5004SOL     OW20334   2.624   4.840   3.235
 5004SOL    HW220335   2.683   4.786   3.288
 5004SOL    HW320336   2.639   4.812   3.145
 5004SOL    MW420337   2.634   4.829   3.231
 5005SOL     OW20338   2.627   4.212   2.084
 5005SOL    HW220339   2.700   4.261   2.047
 5005SOL    HW320340   2.643   4.121   2.058
 5005SOL    MW420341   2.639   4.207   2.077
 5006SOL     OW20342   3.095   3.808   2.998
 5006SOL    HW220343   3.150   3.817   2.920
 5006SOL    HW320344   3.150   3.842   3.069
 5006SOL    MW420345   3.109   3.813   2.997
 5007SOL     OW20346   2.102   4.721   2.182
 5007SOL    HW220347   2.039   4.737   2.111
 5007SOL    HW320348   2.049   4.684   2.253
 5007SOL    MW420349   2.087   4.718   2.182
 5008SOL     OW20350   2.458   5.075   2.041
 5008SOL    HW220351   2.473   5.051   2.133
 5008SOL    HW320352   2.366   5.053   2.025
 5008SOL    MW420353   2.448   5.068   2.051
 5009SOL     OW20354   2.997   5.306   2.193
 5009SOL    HW220355   3.005   5.224   2.144
 5009SOL    HW320356   2.916   5.345   2.160
 5009SOL    MW420357   2.987   5.301   2.183
 5010SOL     OW20358   2.256   5.464   2.762
 5010SOL    HW220359   2.260   5.375   2.797
 5010SOL    HW320360   2.282   5.455   2.671
 5010SOL    MW420361   2.259   5.452   2.754
 5011SOL     OW20362   2.873   4.942   3.005
 5011SOL    HW220363   2.805   4.876   3.021
 5011SOL    HW320364   2.891   4.936   2.912
 5011SOL    MW420365   2.866   4.933   2.996
 5012SOL     OW20366   1.962   5.217   3.256
 5012SOL    HW220367   1.952   5.175   3.342
 5012SOL    HW320368   1.883   5.270   3.246
 5012SOL    MW420369   1.951   5.218   3.267
 5013SOL     OW20370   2.866   4.081   2.826
 5013SOL    HW220371   2.796   4.033   2.871
 5013SOL    HW320372   2.898   4.144   2.890
 5013SOL    MW420373   2.861   4.083   2.840
 5014SOL     OW20374   2.517   4.517   3.446
 5014SOL    HW220375   2.510   4.612   3.434
 5014SOL    HW320376   2.526   4.506   3.541
 5014SOL    MW420377   2.518   4.529   3.456
 5015SOL     OW20378   2.238   5.032   3.704
 5015SOL    HW220379   2.310   5.034   3.641
 5015SOL    HW320380   2.208   4.941   3.703
 5015SOL    MW420381   2.243   5.021   3.696
 5016SOL     OW20382   3.322   3.795   3.171
 5016SOL    HW220383   3.393   3.741   3.135
 5016SOL    HW320384   3.321   3.774   3.264
 5016SOL    MW420385   3.331   3.786   3.179
 5017SOL     OW20386   2.333   4.187   2.639
 5017SOL    HW220387   2.404   4.135   2.602
 5017SOL    HW320388   2.319   4.152   2.726
 5017SOL    MW420389   2.341   4.176   2.646
 5018SOL     OW20390   1.888   5.522   3.711
 5018SOL    HW220391   1.938   5.500   3.633
 5018SOL    HW320392   1.896   5.617   3.719
 5018SOL    MW420393   1.896   5.531   3.702
 5019SOL     OW20394   2.649   5.280   2.715
 5019SOL    HW220395   2.577   5.217   2.728
 5019SOL    HW320396   2.610   5.365   2.733
 5019SOL    MW420397   2.633   5.283   2.718
 5020SOL     OW20398   2.969   4.128   2.363
 5020SOL    HW220399   2.991   4.065   2.295
 5020SOL    HW320400   2.874   4.120   2.374
 5020SOL    MW420401   2.959   4.119   2.355
 5021SOL     OW20402   2.054   3.818   2.295
 5021SOL    HW220403   2.125   3.839   2.234
 5021SOL    HW320404   2.008   3.746   2.253
 5021SOL    MW420405   2.058   3.812   2.281
 5022SOL     OW20406   1.885   4.285   3.438
 5022SOL    HW220407   1.949   4.351   3.413
 5022SOL    HW320408   1.804   4.312   3.395
 5022SOL    MW420409   1.883   4.297   3.430
 5023SOL     OW20410   3.623   5.192   2.395
 5023SOL    HW220411   3.593   5.125   2.456
 5023SOL    HW320412   3.717   5.198   2.409
 5023SOL    MW420413   3.631   5.184   2.405
 5024SOL     OW20414   3.179   4.869   2.325
 5024SOL    HW220415   3.151   4.955   2.358
 5024SOL    HW320416   3.207   4.885   2.235
 5024SOL    MW420417   3.179   4.883   2.317
 5025SOL     OW20418   2.841   3.789   2.378
 5025SOL    HW220419   2.878   3.848   2.443
 5025SOL    HW320420   2.818   3.845   2.304
 5025SOL    MW420421   2.842   3.804   2.377
 5026SOL     OW20422   3.694   4.671   2.800
 5026SOL    HW220423   3.685   4.703   2.711
 5026SOL    HW320424   3.647   4.587   2.800
 5026SOL    MW420425   3.687   4.664   2.790
 5027SOL     OW20426   2.070   4.511   3.379
 5027SOL    HW220427   2.091   4.580   3.317
 5027SOL    HW320428   2.150   4.458   3.384
 5027SOL    MW420429   2.083   4.512   3.373
 5028SOL     OW20430   3.606   4.602   2.501
 5028SOL    HW220431   3.700   4.591   2.489
 5028SOL    HW320432   3.582   4.674   2.442
 5028SOL    MW420433   3.616   4.610   2.492
 5029SOL     OW20434   2.055   4.526   3.646
 5029SOL    HW220435   1.981   4.470   3.672
 5029SOL    HW320436   2.050   4.529   3.551
 5029SOL    MW420437   2.044   4.519   3.636
 5030SOL     OW20438   2.221   3.813   3.096
 5030SOL    HW220439   2.264   3.897   3.116
 5030SOL    HW320440   2.294   3.751   3.089
 5030SOL    MW420441   2.236   3.816   3.097
 5031SOL     OW20442   2.262   4.480   2.274
 5031SOL    HW220443   2.262   4.575   2.259
 5031SOL    HW320444   2.339   4.464   2.328
 5031SOL    MW420445   2.272   4.491   2.279
 5032SOL     OW20446   3.038   4.339   3.338
 5032SOL    HW220447   3.074   4.312   3.254
 5032SOL    HW320448   2.951   4.373   3.317
 5032SOL    MW420449   3.032   4.340   3.325
 5033SOL     OW20450   2.021   4.211   2.563
 5033SOL    HW220451   2.083   4.218   2.636
 5033SOL    HW320452   2.021   4.118   2.540
 5033SOL    MW420453   2.029   4.200   2.570
 5034SOL     OW20454   3.568   5.551   2.095
 5034SOL    HW220455   3.635   5.584   2.035
 5034SOL    HW320456   3.525   5.630   2.129
 5034SOL    MW420457   3.570   5.566   2.091
 5035SOL     OW20458   2.703   4.472   3.047
 5035SOL    HW220459   2.661   4.390   3.023
 5035SOL    HW320460   2.704   4.471   3.143
 5035SOL    MW420461   2.696   4.461   3.056
 5036SOL     OW20462   2.507   3.942   3.152
 5036SOL    HW220463   2.438   4.005   3.173
 5036SOL    HW320464   2.534   3.906   3.237
 5036SOL    MW420465   2.501   3.945   3.165
 5037SOL     OW20466   1.890   4.783   2.021
 5037SOL    HW220467   1.859   4.848   2.084
 5037SOL    HW320468   1.839   4.705   2.040
 5037SOL    MW420469   1.880   4.780   2.031
 5038SOL     OW20470   3.302   3.795   2.769
 5038SOL    HW220471   3.390   3.804   2.806
 5038SOL    HW320472   3.312   3.736   2.695
 5038SOL    MW420473   3.316   3.789   2.763
 5039SOL     OW20474   3.334   4.534   2.613
 5039SOL    HW220475   3.414   4.549   2.562
 5039SOL    HW320476   3.327   4.439   2.619
 5039SOL    MW420477   3.343   4.523   2.608
 5040SOL     OW20478   2.474   5.583   1.963
 5040SOL    HW220479   2.379   5.583   1.955
 5040SOL    HW320480   2.490   5.529   2.041
 5040SOL    MW420481   2.464   5.577   1.972
 5041SOL     OW20482   2.784   4.460   3.310
 5041SOL    HW220483   2.853   4.527   3.307
 5041SOL    HW320484   2.717   4.498   3.366
 5041SOL    MW420485   2.785   4.473   3.317
 5042SOL     OW20486   2.202   4.760   3.558
 5042SOL    HW220487   2.156   4.676   3.560
 5042SOL    HW320488   2.259   4.754   3.482
 5042SOL    MW420489   2.204   4.748   3.550
 5043SOL     OW20490   3.319   4.403   1.879
 5043SOL    HW220491   3.247   4.379   1.821
 5043SOL    HW320492   3.385   4.440   1.821
 5043SOL    MW420493   3.318   4.405   1.864
 5044SOL     OW20494   2.453   5.135   2.559
 5044SOL    HW220495   2.518   5.068   2.580
 5044SOL    HW320496   2.505   5.212   2.536
 5044SOL    MW420497   2.468   5.137   2.558
 5045SOL     OW20498   2.714   4.300   2.689
 5045SOL    HW220499   2.654   4.318   2.761
 5045SOL    HW320500   2.748   4.212   2.708
 5045SOL    MW420501   2.710   4.290   2.702
 5046SOL     OW20502   3.655   3.799   3.358
 5046SOL    HW220503   3.576   3.845   3.386
 5046SOL    HW320504   3.690   3.853   3.287
 5046SOL    MW420505   3.649   3.812   3.352
 5047SOL     OW20506   2.939   4.883   2.708
 5047SOL    HW220507   3.031   4.864   2.726
 5047SOL    HW320508   2.912   4.813   2.648
 5047SOL    MW420509   2.947   4.871   2.702
 5048SOL     OW20510   2.732   4.703   2.063
 5048SOL    HW220511   2.718   4.615   2.028
 5048SOL    HW320512   2.683   4.760   2.004
 5048SOL    MW420513   2.724   4.698   2.051
 5049SOL     OW20514   3.213   5.121   2.804
 5049SOL    HW220515   3.186   5.205   2.769
 5049SOL    HW320516   3.173   5.116   2.891
 5049SOL    MW420517   3.206   5.130   2.810
 5050SOL     OW20518   3.132   5.069   3.072
 5050SOL    HW220519   3.143   5.036   3.161
 5050SOL    HW320520   3.051   5.028   3.041
 5050SOL    MW420521   3.122   5.061   3.078
 5051SOL     OW20522   2.145   4.427   2.842
 5051SOL    HW220523   2.095   4.426   2.923
 5051SOL    HW320524   2.165   4.519   2.826
 5051SOL    MW420525   2.141   4.439   2.850
 5052SOL     OW20526   3.212   5.191   3.604
 5052SOL    HW220527   3.212   5.285   3.620
 5052SOL    HW320528   3.257   5.181   3.520
 5052SOL    MW420529   3.218   5.201   3.595
 5053SOL     OW20530   3.451   3.909   2.165
 5053SOL    HW220531   3.444   3.913   2.260
 5053SOL    HW320532   3.463   4.000   2.138
 5053SOL    MW420533   3.452   3.922   2.173
 5054SOL     OW20534   2.740   4.472   2.279
 5054SOL    HW220535   2.720   4.458   2.186
 5054SOL    HW320536   2.833   4.451   2.286
 5054SOL    MW420537   2.750   4.467   2.268
 5055SOL     OW20538   2.067   4.095   3.583
 5055SOL    HW220539   2.024   4.154   3.520
 5055SOL    HW320540   2.135   4.150   3.623
 5055SOL    MW420541   2.071   4.110   3.580
 5056SOL     OW20542   3.179   4.715   3.128
 5056SOL    HW220543   3.242   4.712   3.201
 5056SOL    HW320544   3.095   4.733   3.170
 5056SOL    MW420545   3.175   4.717   3.143
 5057SOL     OW20546   2.723   5.430   2.317
 5057SOL    HW220547   2.781   5.501   2.344
 5057SOL    HW320548   2.746   5.358   2.375
 5057SOL    MW420549   2.734   5.430   2.328
 5058SOL     OW20550   3.518   3.892   2.907
 5058SOL    HW220551   3.563   3.810   2.926
 5058SOL    HW320552   3.538   3.948   2.983
 5058SOL    MW420553   3.528   3.888   2.919
 5059SOL     OW20554   1.966   3.735   3.006
 5059SOL    HW220555   1.957   3.736   2.911
 5059SOL    HW320556   2.060   3.747   3.021
 5059SOL    MW420557   1.978   3.738   2.997
 5060SOL     OW20558   3.603   4.928   2.626
 5060SOL    HW220559   3.582   4.874   2.549
 5060SOL    HW320560   3.699   4.926   2.630
 5060SOL    MW420561   3.612   4.921   2.615
 5061SOL     OW20562   2.295   5.073   3.369
 5061SOL    HW220563   2.216   5.023   3.392
 5061SOL    HW320564   2.365   5.032   3.419
 5061SOL    MW420565   2.293   5.061   3.379
 5062SOL     OW20566   2.179   3.862   2.052
 5062SOL    HW220567   2.108   3.917   2.020
 5062SOL    HW320568   2.221   3.828   1.973
 5062SOL    MW420569   2.175   3.864   2.038
 5063SOL     OW20570   3.303   4.359   2.888
 5063SOL    HW220571   3.226   4.405   2.854
 5063SOL    HW320572   3.360   4.428   2.922
 5063SOL    MW420573   3.300   4.374   2.888
 5064SOL     OW20574   1.935   3.961   1.901
 5064SOL    HW220575   1.902   4.040   1.945
 5064SOL    HW320576   1.990   3.994   1.830
 5064SOL    MW420577   1.938   3.975   1.898
 5065SOL     OW20578   1.969   5.218   2.090
 5065SOL    HW220579   1.986   5.302   2.132
 5065SOL    HW320580   2.004   5.227   2.002
 5065SOL    MW420581   1.974   5.231   2.084
 5066SOL     OW20582   3.241   5.307   2.307
 5066SOL    HW220583   3.304   5.297   2.236
 5066SOL    HW320584   3.158   5.327   2.262
 5066SOL    MW420585   3.238   5.308   2.292
 5067SOL     OW20586   3.604   4.575   3.993
 5067SOL    HW220587   3.645   4.517   4.058
 5067SOL    HW320588   3.511   4.567   4.010
 5067SOL    MW420589   3.598   4.567   4.003
 5068SOL     OW20590   3.470   4.507   4.988
 5068SOL    HW220591   3.425   4.574   5.039
 5068SOL    HW320592   3.558   4.543   4.974
 5068SOL    MW420593   3.476   4.520   4.992
 5069SOL     OW20594   2.398   4.758   4.222
 5069SOL    HW220595   2.488   4.733   4.206
 5069SOL    HW320596   2.394   4.851   4.199
 5069SOL    MW420597   2.410   4.767   4.217
 5070SOL     OW20598   3.514   5.461   4.364
 5070SOL    HW220599   3.526   5.407   4.442
 5070SOL    HW320600   3.551   5.409   4.293
 5070SOL    MW420601   3.520   5.446   4.365
 5071SOL     OW20602   2.893   5.346   5.365
 5071SOL    HW220603   2.934   5.382   5.286
 5071SOL    HW320604   2.928   5.257   5.372
 5071SOL    MW420605   2.904   5.339   5.356
 5072SOL     OW20606   3.450   4.901   4.969
 5072SOL    HW220607   3.371   4.866   4.927
 5072SOL    HW320608   3.477   4.973   4.913
 5072SOL    MW420609   3.443   4.906   4.956
 5073SOL     OW20610   2.682   4.214   4.235
 5073SOL    HW220611   2.657   4.302   4.263
 5073SOL    HW320612   2.679   4.217   4.139
 5073SOL    MW420613   2.678   4.226   4.227
 5074SOL     OW20614   2.124   4.242   4.163
 5074SOL    HW220615   2.156   4.330   4.145
 5074SOL    HW320616   2.112   4.240   4.258
 5074SOL    MW420617   2.127   4.254   4.175
 5075SOL     OW20618   2.202   4.655   5.064
 5075SOL    HW220619   2.265   4.602   5.015
 5075SOL    HW320620   2.183   4.729   5.007
 5075SOL    MW420621   2.208   4.657   5.051
 5076SOL     OW20622   2.523   3.997   4.250
 5076SOL    HW220623   2.581   4.073   4.252
 5076SOL    HW320624   2.458   4.018   4.183
 5076SOL    MW420625   2.522   4.009   4.241
 5077SOL     OW20626   2.610   4.924   4.425
 5077SOL    HW220627   2.690   4.927   4.477
 5077SOL    HW320628   2.638   4.891   4.339
 5077SOL    MW420629   2.624   4.920   4.420
 5078SOL     OW20630   2.635   5.265   5.328
 5078SOL    HW220631   2.719   5.291   5.367
 5078SOL    HW320632   2.659   5.209   5.254
 5078SOL    MW420633   2.649   5.261   5.323
 5079SOL     OW20634   2.387   4.428   4.416
 5079SOL    HW220635   2.372   4.348   4.467
 5079SOL    HW320636   2.469   4.463   4.450
 5079SOL    MW420637   2.395   4.420   4.428
 5080SOL     OW20638   2.724   5.114   5.101
 5080SOL    HW220639   2.688   5.180   5.041
 5080SOL    HW320640   2.652   5.052   5.114
 5080SOL    MW420641   2.710   5.114   5.095
 5081SOL     OW20642   2.529   4.254   4.793
 5081SOL    HW220643   2.435   4.250   4.811
 5081SOL    HW320644   2.559   4.163   4.802
 5081SOL    MW420645   2.520   4.242   4.796
 5082SOL     OW20646   2.275   4.668   4.697
 5082SOL    HW220647   2.230   4.675   4.613
 5082SOL    HW320648   2.255   4.751   4.741
 5082SOL    MW420649   2.267   4.680   4.691
 5083SOL     OW20650   1.972   5.514   4.572
 5083SOL    HW220651   2.061   5.506   4.607
 5083SOL    HW320652   1.936   5.426   4.577
 5083SOL    MW420653   1.979   5.501   4.577
 5084SOL     OW20654   3.237   4.906   3.941
 5084SOL    HW220655   3.155   4.942   3.907
 5084SOL    HW320656   3.305   4.949   3.890
 5084SOL    MW420657   3.235   4.916   3.929
 5085SOL     OW20658   2.236   5.041   4.607
 5085SOL    HW220659   2.212   5.094   4.683
 5085SOL    HW320660   2.292   5.099   4.555
 5085SOL    MW420661   2.240   5.056   4.610
 5086SOL     OW20662   2.798   4.685   4.417
 5086SOL    HW220663   2.712   4.672   4.457
 5086SOL    HW320664   2.851   4.612   4.449
 5086SOL    MW420665   2.794   4.674   4.426
 5087SOL     OW20666   2.206   5.337   5.202
 5087SOL    HW220667   2.114   5.313   5.187
 5087SOL    HW320668   2.250   5.254   5.219
 5087SOL    MW420669   2.200   5.322   5.201
 5088SOL     OW20670   2.789   5.047   4.134
 5088SOL    HW220671   2.766   5.109   4.202
 5088SOL    HW320672   2.746   4.965   4.160
 5088SOL    MW420673   2.781   5.043   4.145
 5089SOL     OW20674   3.662   4.048   4.590
 5089SOL    HW220675   3.599   4.028   4.659
 5089SOL    HW320676   3.652   3.977   4.527
 5089SOL    MW420677   3.652   4.035   4.591
 5090SOL     OW20678   2.286   4.020   4.102
 5090SOL    HW220679   2.260   3.982   4.018
 5090SOL    HW320680   2.223   4.090   4.118
 5090SOL    MW420681   2.275   4.023   4.093
 5091SOL     OW20682   2.121   4.981   4.139
 5091SOL    HW220683   2.069   5.049   4.095
 5091SOL    HW320684   2.118   4.907   4.079
 5091SOL    MW420685   2.113   4.980   4.126
 5092SOL     OW20686   2.783   5.444   3.917
 5092SOL    HW220687   2.738   5.460   4.000
 5092SOL    HW320688   2.714   5.409   3.859
 5092SOL    MW420689   2.769   5.441   3.919
 5093SOL     OW20690   3.718   4.217   3.892
 5093SOL    HW220691   3.627   4.219   3.920
 5093SOL    HW320692   3.763   4.279   3.950
 5093SOL    MW420693   3.711   4.225   3.902
 5094SOL     OW20694   3.463   4.820   4.242
 5094SOL    HW220695   3.373   4.820   4.277
 5094SOL    HW320696   3.456   4.866   4.159
 5094SOL    MW420697   3.450   4.826   4.236
 5095SOL     OW20698   3.263   4.455   5.314
 5095SOL    HW220699   3.332   4.393   5.291
 5095SOL    HW320700   3.188   4.429   5.261
 5095SOL    MW420701   3.263   4.442   5.305
 5096SOL     OW20702   2.004   5.335   4.866
 5096SOL    HW220703   1.987   5.281   4.943
 5096SOL    HW320704   1.992   5.425   4.896
 5096SOL    MW420705   2.001   5.339   4.880
 5097SOL     OW20706   2.999   4.842   5.306
 5097SOL    HW220707   2.984   4.935   5.291
 5097SOL    HW320708   3.094   4.832   5.306
 5097SOL    MW420709   3.008   4.852   5.303
 5098SOL     OW20710   2.795   4.266   5.507
 5098SOL    HW220711   2.885   4.267   5.474
 5098SOL    HW320712   2.754   4.191   5.465
 5098SOL    MW420713   2.801   4.256   5.498
 5099SOL     OW20714   3.370   4.798   4.634
 5099SOL    HW220715   3.373   4.732   4.565
 5099SOL    HW320716   3.455   4.841   4.630
 5099SOL    MW420717   3.382   4.794   4.625
 5100SOL     OW20718   2.990   4.401   4.203
 5100SOL    HW220719   3.016   4.425   4.114
 5100SOL    HW320720   2.972   4.308   4.199
 5100SOL    MW420721   2.992   4.393   4.190
 5101SOL     OW20722   2.575   4.070   5.457
 5101SOL    HW220723   2.585   3.996   5.397
 5101SOL    HW320724   2.611   4.039   5.540
 5101SOL    MW420725   2.581   4.056   5.459
 5102SOL     OW20726   2.311   5.437   4.372
 5102SOL    HW220727   2.343   5.525   4.350
 5102SOL    HW320728   2.264   5.409   4.294
 5102SOL    MW420729   2.310   5.445   4.359
 5103SOL     OW20730   3.695   3.799   4.421
 5103SOL    HW220731   3.749   3.750   4.483
 5103SOL    HW320732   3.638   3.733   4.382
 5103SOL    MW420733   3.695   3.783   4.423
 5104SOL     OW20734   2.027   5.497   3.949
 5104SOL    HW220735   2.056   5.587   3.941
 5104SOL    HW320736   1.977   5.480   3.870
 5104SOL    MW420737   2.025   5.505   3.938
 5105SOL     OW20738   2.814   3.752   4.834
 5105SOL    HW220739   2.773   3.830   4.796
 5105SOL    HW320740   2.908   3.770   4.829
 5105SOL    MW420741   2.820   3.764   4.829
 5106SOL     OW20742   2.829   4.430   3.864
 5106SOL    HW220743   2.831   4.377   3.785
 5106SOL    HW320744   2.917   4.467   3.870
 5106SOL    MW420745   2.841   4.429   3.853
 5107SOL     OW20746   3.443   4.356   4.200
 5107SOL    HW220747   3.482   4.356   4.287
 5107SOL    HW320748   3.384   4.432   4.200
 5107SOL    MW420749   3.440   4.367   4.211
 5108SOL     OW20750   2.760   4.723   5.329
 5108SOL    HW220751   2.737   4.703   5.419
 5108SOL    HW320752   2.845   4.767   5.334
 5108SOL    MW420753   2.767   4.726   5.341
 5109SOL     OW20754   2.840   3.860   5.089
 5109SOL    HW220755   2.846   3.822   5.002
 5109SOL    HW320756   2.829   3.954   5.074
 5109SOL    MW420757   2.841   3.868   5.077
 5110SOL     OW20758   2.929   4.349   4.923
 5110SOL    HW220759   3.004   4.378   4.870
 5110SOL    HW320760   2.861   4.414   4.907
 5110SOL    MW420761   2.930   4.361   4.913
 5111SOL     OW20762   3.479   4.317   5.200
 5111SOL    HW220763   3.460   4.226   5.179
 5111SOL    HW320764   3.457   4.366   5.121
 5111SOL    MW420765   3.474   4.310   5.187
 5112SOL     OW20766   3.621   5.411   5.104
 5112SOL    HW220767   3.549   5.373   5.155
 5112SOL    HW320768   3.638   5.496   5.145
 5112SOL    MW420769   3.615   5.416   5.116
 5113SOL     OW20770   2.926   4.055   5.306
 5113SOL    HW220771   2.892   4.094   5.225
 5113SOL    HW320772   2.904   3.963   5.299
 5113SOL    MW420773   2.919   4.048   5.296
 5114SOL     OW20774   3.335   4.869   5.382
 5114SOL    HW220775   3.417   4.910   5.412
 5114SOL    HW320776   3.298   4.831   5.462
 5114SOL    MW420777   3.341   4.870   5.397
 5115SOL     OW20778   3.630   4.242   4.366
 5115SOL    HW220779   3.719   4.211   4.383
 5115SOL    HW320780   3.573   4.182   4.414
 5115SOL    MW420781   3.633   4.230   4.375
 5116SOL     OW20782   2.056   3.956   4.395
 5116SOL    HW220783   2.047   3.896   4.321
 5116SOL    HW320784   1.989   3.927   4.458
 5116SOL    MW420785   2.046   3.943   4.393
 5117SOL     OW20786   2.999   5.049   3.956
 5117SOL    HW220787   2.949   5.051   4.038
 5117SOL    HW320788   2.933   5.067   3.888
 5117SOL    MW420789   2.985   5.051   3.958
 5118SOL     OW20790   2.003   4.129   4.758
 5118SOL    HW220791   1.975   4.220   4.767
 5118SOL    HW320792   1.940   4.090   4.697
 5118SOL    MW420793   1.990   4.135   4.752
 5119SOL     OW20794   2.462   5.467   4.064
 5119SOL    HW220795   2.383   5.425   4.097
 5119SOL    HW320796   2.528   5.450   4.131
 5119SOL    MW420797   2.461   5.459   4.077
 5120SOL     OW20798   3.590   4.987   5.461
 5120SOL    HW220799   3.640   4.913   5.493
 5120SOL    HW320800   3.536   5.014   5.536
 5120SOL    MW420801   3.590   4.981   5.474
 5121SOL     OW20802   2.598   4.882   3.771
 5121SOL    HW220803   2.520   4.828   3.758
 5121SOL    HW320804   2.569   4.955   3.824
 5121SOL    MW420805   2.584   4.884   3.776
 5122SOL     OW20806   3.724   4.622   4.963
 5122SOL    HW220807   3.740   4.660   4.876
 5122SOL    HW320808   3.758   4.688   5.024
 5122SOL    MW420809   3.731   4.635   4.959
 5123SOL     OW20810   3.516   5.331   4.632
 5123SOL    HW220811   3.545   5.398   4.693
 5123SOL    HW320812   3.497   5.255   4.687
 5123SOL    MW420813   3.518   5.331   4.647
 5124SOL     OW20814   3.179   5.398   3.839
 5124SOL    HW220815   3.105   5.361   3.889
 5124SOL    HW320816   3.187   5.488   3.872
 5124SOL    MW420817   3.170   5.405   3.851
 5125SOL     OW20818   1.987   4.404   4.928
 5125SOL    HW220819   2.049   4.434   4.994
 5125SOL    HW320820   1.921   4.473   4.922
 5125SOL    MW420821   1.986   4.417   4.935
 5126SOL     OW20822   3.403   5.072   3.781
 5126SOL    HW220823   3.350   5.121   3.717
 5126SOL    HW320824   3.434   5.138   3.842
 5126SOL    MW420825   3.401   5.086   3.779
 5127SOL     OW20826   2.628   3.961   3.836
 5127SOL    HW220827   2.576   3.881   3.824
 5127SOL    HW320828   2.715   3.938   3.804
 5127SOL    MW420829   2.631   3.947   3.830
 5128SOL     OW20830   2.082   5.513   5.380
 5128SOL    HW220831   2.056   5.581   5.318
 5128SOL    HW320832   2.130   5.450   5.328
 5128SOL    MW420833   2.084   5.513   5.366
 5129SOL     OW20834   2.134   4.832   4.887
 5129SOL    HW220835   2.187   4.907   4.912
 5129SOL    HW320836   2.053   4.870   4.853
 5129SOL    MW420837   2.130   4.847   4.887
 5130SOL     OW20838   2.674   4.736   4.875
 5130SOL    HW220839   2.702   4.645   4.887
 5130SOL    HW320840   2.603   4.730   4.811
 5130SOL    MW420841   2.667   4.724   4.870
 5131SOL     OW20842   1.989   4.601   4.293
 5131SOL    HW220843   2.080   4.616   4.320
 5131SOL    HW320844   1.992   4.522   4.239
 5131SOL    MW420845   2.001   4.593   4.291
 5132SOL     OW20846   2.225   4.309   5.547
 5132SOL    HW220847   2.172   4.389   5.554
 5132SOL    HW320848   2.295   4.321   5.612
 5132SOL    MW420849   2.227   4.322   5.555
 5133SOL     OW20850   2.611   3.859   5.254
 5133SOL    HW220851   2.588   3.767   5.256
 5133SOL    HW320852   2.697   3.861   5.211
 5133SOL    MW420853   2.618   3.849   5.250
 5134SOL     OW20854   2.295   4.383   5.293
 5134SOL    HW220855   2.375   4.433   5.279
 5134SOL    HW320856   2.286   4.377   5.388
 5134SOL    MW420857   2.304   4.389   5.303
 5135SOL     OW20858   2.616   5.533   4.667
 5135SOL    HW220859   2.705   5.548   4.697
 5135SOL    HW320860   2.611   5.580   4.583
 5135SOL    MW420861   2.626   5.541   4.660
 5136SOL     OW20862   3.272   3.908   5.564
 5136SOL    HW220863   3.328   3.835   5.590
 5136SOL    HW320864   3.242   3.946   5.646
 5136SOL    MW420865   3.276   3.903   5.577
 5137SOL     OW20866   1.997   5.213   4.332
 5137SOL    HW220867   1.969   5.252   4.414
 5137SOL    HW320868   2.017   5.122   4.354
 5137SOL    MW420869   1.995   5.205   4.345
 5138SOL     OW20870   2.830   5.256   4.367
 5138SOL    HW220871   2.913   5.210   4.351
 5138SOL    HW320872   2.820   5.255   4.463
 5138SOL    MW420873   2.840   5.249   4.377
 5139SOL     OW20874   3.662   4.401   4.681
 5139SOL    HW220875   3.751   4.431   4.663
 5139SOL    HW320876   3.642   4.341   4.610
 5139SOL    MW420877   3.671   4.398   4.670
 5140SOL     OW20878   3.513   4.580   5.561
 5140SOL    HW220879   3.568   4.504   5.542
 5140SOL    HW320880   3.515   4.588   5.656
 5140SOL    MW420881   3.521   4.571   5.569
 5141SOL     OW20882   2.563   5.313   3.772
 5141SOL    HW220883   2.503   5.382   3.742
 5141SOL    HW320884   2.508   5.255   3.825
 5141SOL    MW420885   2.547   5.315   3.774
 5142SOL     OW20886   3.001   3.958   3.995
 5142SOL    HW220887   2.934   3.934   3.932
 5142SOL    HW320888   3.066   4.007   3.944
 5142SOL    MW420889   3.001   3.960   3.980
 5143SOL     OW20890   2.808   4.142   5.080
 5143SOL    HW220891   2.727   4.183   5.108
 5143SOL    HW320892   2.855   4.210   5.032
 5143SOL    MW420893   2.803   4.157   5.078
 5144SOL     OW20894   3.068   4.480   4.703
 5144SOL    HW220895   3.081   4.574   4.713
 5144SOL    HW320896   3.029   4.470   4.617
 5144SOL    MW420897   3.064   4.491   4.693
 5145SOL     OW20898   2.520   4.675   4.507
 5145SOL    HW220899   2.431   4.666   4.540
 5145SOL    HW320900   2.524   4.765   4.475
 5145SOL    MW420901   2.509   4.686   4.507
 5146SOL     OW20902   3.319   4.258   4.502
 5146SOL    HW220903   3.264   4.179   4.501
 5146SOL    HW320904   3.301   4.299   4.586
 5146SOL    MW420905   3.309   4.253   4.511
 5147SOL     OW20906   2.290   3.945   5.319
 5147SOL    HW220907   2.211   3.963   5.371
 5147SOL    HW320908   2.285   4.007   5.246
 5147SOL    MW420909   2.280   3.955   5.316
 5148SOL     OW20910   2.938   4.462   4.459
 5148SOL    HW220911   2.875   4.394   4.483
 5148SOL    HW320912   2.958   4.443   4.367
 5148SOL    MW420913   2.932   4.449   4.451
 5149SOL     OW20914   2.194   5.357   4.161
 5149SOL    HW220915   2.155   5.404   4.087
 5149SOL    HW320916   2.128   5.292   4.186
 5149SOL    MW420917   2.181   5.355   4.155
 5150SOL     OW20918   2.686   4.766   4.185
 5150SOL    HW220919   2.688   4.740   4.092
 5150SOL    HW320920   2.744   4.703   4.228
 5150SOL    MW420921   2.694   4.755   4.179
 5151SOL     OW20922   3.243   5.534   4.387
 5151SOL    HW220923   3.186   5.487   4.326
 5151SOL    HW320924   3.329   5.495   4.374
 5151SOL    MW420925   3.246   5.525   4.377
 5152SOL     OW20926   3.196   4.010   4.518
 5152SOL    HW220927   3.224   3.942   4.579
 5152SOL    HW320928   3.110   3.981   4.488
 5152SOL    MW420929   3.189   3.997   4.522
 5153SOL     OW20930   2.001   4.944   4.452
 5153SOL    HW220931   2.065   4.976   4.515
 5153SOL    HW320932   2.050   4.880   4.400
 5153SOL    MW420933   2.016   4.940   4.453
 5154SOL     OW20934   2.501   5.020   5.434
 5154SOL    HW220935   2.549   5.103   5.421
 5154SOL    HW320936   2.558   4.968   5.490
 5154SOL    MW420937   2.515   5.024   5.440
 5155SOL     OW20938   2.077   5.262   5.574
 5155SOL    HW220939   2.133   5.186   5.589
 5155SOL    HW320940   2.026   5.240   5.496
 5155SOL    MW420941   2.077   5.249   5.565
 5156SOL     OW20942   3.176   4.114   3.853
 5156SOL    HW220943   3.149   4.180   3.789
 5156SOL    HW320944   3.246   4.157   3.903
 5156SOL    MW420945   3.181   4.127   3.850
 5157SOL     OW20946   2.844   3.819   3.790
 5157SOL    HW220947   2.900   3.811   3.712
 5157SOL    HW320948   2.821   3.729   3.812
 5157SOL    MW420949   2.849   3.806   3.783
 5158SOL     OW20950   3.349   4.670   3.995
 5158SOL    HW220951   3.316   4.759   3.985
 5158SOL    HW320952   3.314   4.641   4.080
 5158SOL    MW420953   3.339   4.679   4.006
 5159SOL     OW20954   2.962   5.099   5.183
 5159SOL    HW220955   2.873   5.105   5.151
 5159SOL    HW320956   3.006   5.178   5.151
 5159SOL    MW420957   2.957   5.109   5.175
 5160SOL     OW20958   2.255   3.767   5.525
 5160SOL    HW220959   2.183   3.732   5.473
 5160SOL    HW320960   2.313   3.808   5.460
 5160SOL    MW420961   2.253   3.768   5.510
 5161SOL     OW20962   2.279   5.257   4.824
 5161SOL    HW220963   2.324   5.319   4.881
 5161SOL    HW320964   2.186   5.276   4.837
 5161SOL    MW420965   2.272   5.267   4.831
 5162SOL     OW20966   3.719   4.786   5.178
 5162SOL    HW220967   3.634   4.799   5.137
 5162SOL    HW320968   3.699   4.750   5.265
 5162SOL    MW420969   3.706   4.782   5.183
 5163SOL     OW20970   2.701   5.325   4.932
 5163SOL    HW220971   2.725   5.314   4.841
 5163SOL    HW320972   2.624   5.382   4.930
 5163SOL    MW420973   2.693   5.330   4.921
 5164SOL     OW20974   2.343   4.708   3.787
 5164SOL    HW220975   2.266   4.721   3.843
 5164SOL    HW320976   2.307   4.672   3.706
 5164SOL    MW420977   2.329   4.704   3.784
 5165SOL     OW20978   2.996   4.681   4.030
 5165SOL    HW220979   2.906   4.702   4.005
 5165SOL    HW320980   3.023   4.754   4.086
 5165SOL    MW420981   2.988   4.693   4.033
 5166SOL     OW20982   2.496   5.030   4.722
 5166SOL    HW220983   2.489   5.009   4.816
 5166SOL    HW320984   2.414   4.998   4.685
 5166SOL    MW420985   2.484   5.024   4.729
 5167SOL     OW20986   3.360   4.040   5.124
 5167SOL    HW220987   3.307   4.042   5.204
 5167SOL    HW320988   3.345   3.953   5.087
 5167SOL    MW420989   3.352   4.030   5.129
 5168SOL     OW20990   3.696   3.964   4.997
 5168SOL    HW220991   3.677   4.031   4.932
 5168SOL    HW320992   3.753   3.902   4.952
 5168SOL    MW420993   3.700   3.965   4.983
 5169SOL     OW20994   1.942   5.122   5.385
 5169SOL    HW220995   1.986   5.055   5.331
 5169SOL    HW320996   1.857   5.084   5.405
 5169SOL    MW420997   1.937   5.108   5.381
 5170SOL     OW20998   2.625   3.797   4.437
 5170SOL    HW220999   2.554   3.858   4.419
 5170SOL    HW321000   2.676   3.794   4.356
 5170SOL    MW421001   2.621   3.803   4.424
 5171SOL     OW21002   2.383   5.037   4.186
 5171SOL    HW221003   2.376   5.069   4.276
 5171SOL    HW321004   2.293   5.021   4.158
 5171SOL    MW421005   2.371   5.039   4.193
 5172SOL     OW21006   2.978   5.430   5.095
 5172SOL    HW221007   2.898   5.415   5.045
 5172SOL    HW321008   2.985   5.525   5.102
 5172SOL    MW421009   2.969   5.441   5.089
 5173SOL     OW21010   3.500   5.490   4.860
 5173SOL    HW221011   3.543   5.460   4.940
 5173SOL    HW321012   3.419   5.438   4.857
 5173SOL    MW421013   3.495   5.479   4.870
 5174SOL     OW21014   2.585   4.454   5.567
 5174SOL    HW221015   2.655   4.396   5.539
 5174SOL    HW321016   2.528   4.399   5.622
 5174SOL    MW421017   2.587   4.441   5.571
 5175SOL     OW21018   3.372   4.666   5.200
 5175SOL    HW221019   3.377   4.719   5.280
 5175SOL    HW321020   3.334   4.583   5.228
 5175SOL    MW421021   3.368   4.661   5.215
 5176SOL     OW21022   3.012   3.801   5.446
 5176SOL    HW221023   3.007   3.708   5.427
 5176SOL    HW321024   3.095   3.812   5.492
 5176SOL    MW421025   3.020   3.790   5.450
 5177SOL     OW21026   2.386   4.321   3.900
 5177SOL    HW221027   2.352   4.377   3.970
 5177SOL    HW321028   2.457   4.271   3.940
 5177SOL    MW421029   2.392   4.322   3.914
 5178SOL     OW21030   3.482   5.072   4.722
 5178SOL    HW221031   3.517   5.054   4.635
 5178SOL    HW321032   3.387   5.073   4.709
 5178SOL    MW421033   3.474   5.069   4.709
 5179SOL     OW21034   2.911   4.720   5.091
 5179SOL    HW221035   2.954   4.755   5.169
 5179SOL    HW321036   2.894   4.797   5.037
 5179SOL    MW421037   2.914   4.735   5.094
 5180SOL     OW21038   3.442   4.207   3.964
 5180SOL    HW221039   3.434   4.278   3.901
 5180SOL    HW321040   3.460   4.251   4.047
 5180SOL    MW421041   3.443   4.221   3.966
 5181SOL     OW21042   2.302   3.862   4.393
 5181SOL    HW221043   2.352   3.905   4.324
 5181SOL    HW321044   2.217   3.906   4.393
 5181SOL    MW421045   2.299   3.875   4.384
 5182SOL     OW21046   2.061   4.924   5.253
 5182SOL    HW221047   2.089   4.877   5.331
 5182SOL    HW321048   1.982   4.879   5.224
 5182SOL    MW421049   2.054   4.913   5.259
 5183SOL     OW21050   2.569   4.251   5.220
 5183SOL    HW221051   2.541   4.339   5.244
 5183SOL    HW321052   2.538   4.195   5.291
 5183SOL    MW421053   2.561   4.254   5.232
 5184SOL     OW21054   3.111   4.469   3.939
 5184SOL    HW221055   3.158   4.487   3.858
 5184SOL    HW321056   3.077   4.553   3.967
 5184SOL    MW421057   3.113   4.483   3.932
 5185SOL     OW21058   2.224   4.647   4.433
 5185SOL    HW221059   2.282   4.703   4.381
 5185SOL    HW321060   2.268   4.562   4.435
 5185SOL    MW421061   2.237   4.644   4.426
 5186SOL     OW21062   3.364   3.999   4.270
 5186SOL    HW221063   3.286   3.949   4.295
 5186SOL    HW321064   3.335   4.090   4.270
 5186SOL    MW421065   3.350   4.003   4.273
 5187SOL     OW21066   2.950   3.961   4.429
 5187SOL    HW221067   2.970   4.036   4.373
 5187SOL    HW321068   2.930   4.000   4.514
 5187SOL    MW421069   2.951   3.977   4.433
 5188SOL     OW21070   2.846   5.211   3.761
 5188SOL    HW221071   2.873   5.289   3.713
 5188SOL    HW321072   2.753   5.226   3.780
 5188SOL    MW421073   2.837   5.224   3.757
 5189SOL     OW21074   3.710   4.734   5.448
 5189SOL    HW221075   3.623   4.714   5.484
 5189SOL    HW321076   3.764   4.660   5.473
 5189SOL    MW421077   3.705   4.723   5.456
 5190SOL     OW21078   1.931   5.247   4.605
 5190SOL    HW221079   1.963   5.251   4.696
 5190SOL    HW321080   1.836   5.255   4.613
 5190SOL    MW421081   1.923   5.250   4.618
 5191SOL     OW21082   1.886   4.373   4.152
 5191SOL    HW221083   1.826   4.345   4.222
 5191SOL    HW321084   1.960   4.313   4.158
 5191SOL    MW421085   1.888   4.362   4.161
 5192SOL     OW21086   3.454   5.585   5.586
 5192SOL    HW221087   3.499   5.509   5.551
 5192SOL    HW321088   3.492   5.598   5.673
 5192SOL    MW421089   3.464   5.578   5.592
 5193SOL     OW21090   3.054   5.104   4.312
 5193SOL    HW221091   3.077   5.055   4.390
 5193SOL    HW321092   3.135   5.146   4.284
 5193SOL    MW421093   3.067   5.104   4.319
 5194SOL     OW21094   2.312   4.112   5.041
 5194SOL    HW221095   2.345   4.193   5.081
 5194SOL    HW321096   2.285   4.138   4.953
 5194SOL    MW421097   2.311   4.126   5.035
 5195SOL     OW21098   2.266   4.079   4.777
 5195SOL    HW221099   2.296   3.993   4.748
 5195SOL    HW321100   2.171   4.072   4.780
 5195SOL    MW421101   2.258   4.068   4.775
 5196SOL     OW21102   3.095   4.288   5.468
 5196SOL    HW221103   3.147   4.223   5.421
 5196SOL    HW321104   3.053   4.339   5.398
 5196SOL    MW421105   3.096   4.285   5.451
 5197SOL     OW21106   3.194   4.083   5.329
 5197SOL    HW221107   3.101   4.067   5.316
 5197SOL    HW321108   3.220   4.021   5.397
 5197SOL    MW421109   3.184   4.073   5.336
 5198SOL     OW21110   2.409   3.857   4.668
 5198SOL    HW221111   2.419   3.766   4.694
 5198SOL    HW321112   2.365   3.853   4.583
 5198SOL    MW421113   2.405   3.845   4.660
 5199SOL     OW21114   2.503   5.472   5.214
 5199SOL    HW221115   2.420   5.457   5.259
 5199SOL    HW321116   2.562   5.405   5.249
 5199SOL    MW421117   2.501   5.462   5.224
 5200SOL     OW21118   3.560   4.179   4.839
 5200SOL    HW221119   3.493   4.212   4.899
 5200SOL    HW321120   3.603   4.257   4.805
 5200SOL    MW421121   3.558   4.194   4.843
 5201SOL     OW21122   3.738   4.899   4.809
 5201SOL    HW221123   3.731   4.839   4.734
 5201SOL    HW321124   3.664   4.959   4.798
 5201SOL    MW421125   3.728   4.899   4.798
 5202SOL     OW21126   3.120   4.761   4.727
 5202SOL    HW221127   3.134   4.733   4.818
 5202SOL    HW321128   3.206   4.792   4.699
 5202SOL    MW421129   3.133   4.762   4.736
 5203SOL     OW21130   3.203   4.256   5.006
 5203SOL    HW221131   3.224   4.257   4.913
 5203SOL    HW321132   3.248   4.178   5.039
 5203SOL    MW421133   3.210   4.246   4.998
 5204SOL     OW21134   3.696   4.387   5.548
 5204SOL    HW221135   3.733   4.332   5.617
 5204SOL    HW321136   3.721   4.344   5.466
 5204SOL    MW421137   3.703   4.375   5.547
 5205SOL     OW21138   3.243   4.685   5.600
 5205SOL    HW221139   3.309   4.633   5.554
 5205SOL    HW321140   3.263   4.672   5.693
 5205SOL    MW421141   3.254   4.676   5.607
 5206SOL     OW21142   3.194   3.771   3.948
 5206SOL    HW221143   3.268   3.815   3.991
 5206SOL    HW321144   3.118   3.825   3.970
 5206SOL    MW421145   3.194   3.783   3.956
 5207SOL     OW21146   3.254   4.546   4.226
 5207SOL    HW221147   3.169   4.516   4.196
 5207SOL    HW321148   3.246   4.553   4.321
 5207SOL    MW421149   3.242   4.544   4.235
 5208SOL     OW21150   2.330   5.009   4.957
 5208SOL    HW221151   2.342   5.036   5.048
 5208SOL    HW321152   2.311   5.090   4.910
 5208SOL    MW421153   2.329   5.024   4.962
 5209SOL     OW21154   2.614   3.989   4.780
 5209SOL    HW221155   2.587   3.991   4.871
 5209SOL    HW321156   2.544   3.941   4.735
 5209SOL    MW421157   2.602   3.985   4.787
 5210SOL     OW21158   2.468   5.481   4.942
 5210SOL    HW221159   2.520   5.558   4.919
 5210SOL    HW321160   2.477   5.473   5.037
 5210SOL    MW421161   2.477   5.488   4.953
 5211SOL     OW21162   3.370   5.066   5.174
 5211SOL    HW221163   3.355   4.995   5.237
 5211SOL    HW321164   3.416   5.024   5.102
 5211SOL    MW421165   3.376   5.050   5.174
 5212SOL     OW21166   2.444   4.797   5.291
 5212SOL    HW221167   2.481   4.802   5.203
 5212SOL    HW321168   2.483   4.870   5.338
 5212SOL    MW421169   2.454   4.807   5.286
 5213SOL     OW21170   2.624   4.840   5.103
 5213SOL    HW221171   2.683   4.786   5.156
 5213SOL    HW321172   2.639   4.812   5.013
 5213SOL    MW421173   2.634   4.829   5.099
 5214SOL     OW21174   2.627   4.212   3.952
 5214SOL    HW221175   2.700   4.261   3.915
 5214SOL    HW321176   2.643   4.121   3.926
 5214SOL    MW421177   2.639   4.207   3.945
 5215SOL     OW21178   3.435   5.329   5.275
 5215SOL    HW221179   3.477   5.314   5.360
 5215SOL    HW321180   3.426   5.242   5.237
 5215SOL    MW421181   3.439   5.317   5.282
 5216SOL     OW21182   3.095   3.808   4.866
 5216SOL    HW221183   3.150   3.817   4.788
 5216SOL    HW321184   3.150   3.842   4.937
 5216SOL    MW421185   3.109   3.813   4.865
 5217SOL     OW21186   2.102   4.721   4.050
 5217SOL    HW221187   2.039   4.737   3.979
 5217SOL    HW321188   2.049   4.684   4.121
 5217SOL    MW421189   2.087   4.718   4.050
 5218SOL     OW21190   2.458   5.075   3.909
 5218SOL    HW221191   2.473   5.051   4.001
 5218SOL    HW321192   2.366   5.053   3.893
 5218SOL    MW421193   2.448   5.068   3.919
 5219SOL     OW21194   2.256   5.464   4.630
 5219SOL    HW221195   2.260   5.375   4.665
 5219SOL    HW321196   2.282   5.455   4.539
 5219SOL    MW421197   2.259   5.452   4.622
 5220SOL     OW21198   2.873   4.942   4.873
 5220SOL    HW221199   2.805   4.876   4.889
 5220SOL    HW321200   2.891   4.936   4.780
 5220SOL    MW421201   2.866   4.933   4.864
 5221SOL     OW21202   1.962   5.217   5.124
 5221SOL    HW221203   1.952   5.175   5.210
 5221SOL    HW321204   1.883   5.270   5.114
 5221SOL    MW421205   1.951   5.218   5.135
 5222SOL     OW21206   2.866   4.081   4.694
 5222SOL    HW221207   2.796   4.033   4.739
 5222SOL    HW321208   2.898   4.144   4.758
 5222SOL    MW421209   2.861   4.083   4.708
 5223SOL     OW21210   2.517   4.517   5.314
 5223SOL    HW221211   2.510   4.612   5.302
 5223SOL    HW321212   2.526   4.506   5.409
 5223SOL    MW421213   2.518   4.529   5.324
 5224SOL     OW21214   2.238   5.032   5.572
 5224SOL    HW221215   2.310   5.034   5.509
 5224SOL    HW321216   2.208   4.941   5.571
 5224SOL    MW421217   2.243   5.021   5.564
 5225SOL     OW21218   3.322   3.795   5.039
 5225SOL    HW221219   3.393   3.741   5.003
 5225SOL    HW321220   3.321   3.774   5.132
 5225SOL    MW421221   3.331   3.786   5.047
 5226SOL     OW21222   3.522   5.325   5.523
 5226SOL    HW221223   3.495   5.322   5.614
 5226SOL    HW321224   3.618   5.329   5.526
 5226SOL    MW421225   3.532   5.325   5.535
 5227SOL     OW21226   2.333   4.187   4.507
 5227SOL    HW221227   2.404   4.135   4.470
 5227SOL    HW321228   2.319   4.152   4.594
 5227SOL    MW421229   2.341   4.176   4.514
 5228SOL     OW21230   1.888   5.522   5.579
 5228SOL    HW221231   1.938   5.500   5.501
 5228SOL    HW321232   1.896   5.617   5.587
 5228SOL    MW421233   1.896   5.531   5.570
 5229SOL     OW21234   2.649   5.280   4.583
 5229SOL    HW221235   2.577   5.217   4.596
 5229SOL    HW321236   2.610   5.365   4.601
 5229SOL    MW421237   2.633   5.283   4.586
 5230SOL     OW21238   2.969   4.128   4.231
 5230SOL    HW221239   2.991   4.065   4.163
 5230SOL    HW321240   2.874   4.120   4.242
 5230SOL    MW421241   2.959   4.119   4.223
 5231SOL     OW21242   2.054   3.818   4.163
 5231SOL    HW221243   2.125   3.839   4.102
 5231SOL    HW321244   2.008   3.746   4.121
 5231SOL    MW421245   2.058   3.812   4.149
 5232SOL     OW21246   1.885   4.285   5.306
 5232SOL    HW221247   1.949   4.351   5.281
 5232SOL    HW321248   1.804   4.312   5.263
 5232SOL    MW421249   1.883   4.297   5.298
 5233SOL     OW21250   3.623   5.192   4.263
 5233SOL    HW221251   3.593   5.125   4.324
 5233SOL    HW321252   3.717   5.198   4.277
 5233SOL    MW421253   3.631   5.184   4.273
 5234SOL     OW21254   3.179   4.869   4.193
 5234SOL    HW221255   3.151   4.955   4.226
 5234SOL    HW321256   3.207   4.885   4.103
 5234SOL    MW421257   3.179   4.883   4.185
 5235SOL     OW21258   2.841   3.789   4.246
 5235SOL    HW221259   2.878   3.848   4.311
 5235SOL    HW321260   2.818   3.845   4.172
 5235SOL    MW421261   2.842   3.804   4.245
 5236SOL     OW21262   3.694   4.671   4.668
 5236SOL    HW221263   3.685   4.703   4.579
 5236SOL    HW321264   3.647   4.587   4.668
 5236SOL    MW421265   3.687   4.664   4.658
 5237SOL     OW21266   2.070   4.511   5.247
 5237SOL    HW221267   2.091   4.580   5.185
 5237SOL    HW321268   2.150   4.458   5.252
 5237SOL    MW421269   2.083   4.512   5.241
 5238SOL     OW21270   3.606   4.602   4.369
 5238SOL    HW221271   3.700   4.591   4.357
 5238SOL    HW321272   3.582   4.674   4.310
 5238SOL    MW421273   3.616   4.610   4.360
 5239SOL     OW21274   2.055   4.526   5.514
 5239SOL    HW221275   1.981   4.470   5.540
 5239SOL    HW321276   2.050   4.529   5.419
 5239SOL    MW421277   2.044   4.519   5.504
 5240SOL     OW21278   2.221   3.813   4.964
 5240SOL    HW221279   2.264   3.897   4.984
 5240SOL    HW321280   2.294   3.751   4.957
 5240SOL    MW421281   2.236   3.816   4.965
 5241SOL     OW21282   2.262   4.480   4.142
 5241SOL    HW221283   2.262   4.575   4.127
 5241SOL    HW321284   2.339   4.464   4.196
 5241SOL    MW421285   2.272   4.491   4.147
 5242SOL     OW21286   3.038   4.339   5.206
 5242SOL    HW221287   3.074   4.312   5.122
 5242SOL    HW321288   2.951   4.373   5.185
 5242SOL    MW421289   3.032   4.340   5.193
 5243SOL     OW21290   2.021   4.211   4.431
 5243SOL    HW221291   2.083   4.218   4.504
 5243SOL    HW321292   2.021   4.118   4.408
 5243SOL    MW421293   2.029   4.200   4.438
 5244SOL     OW21294   2.703   4.472   4.915
 5244SOL    HW221295   2.661   4.390   4.891
 5244SOL    HW321296   2.704   4.471   5.011
 5244SOL    MW421297   2.696   4.461   4.924
 5245SOL     OW21298   3.374   5.605   5.314
 5245SOL    HW221299   3.377   5.511   5.297
 5245SOL    HW321300   3.397   5.613   5.406
 5245SOL    MW421301   3.377   5.593   5.324
 5246SOL     OW21302   2.507   3.942   5.020
 5246SOL    HW221303   2.438   4.005   5.041
 5246SOL    HW321304   2.534   3.906   5.105
 5246SOL    MW421305   2.501   3.945   5.033
 5247SOL     OW21306   1.890   4.783   3.889
 5247SOL    HW221307   1.859   4.848   3.952
 5247SOL    HW321308   1.839   4.705   3.908
 5247SOL    MW421309   1.880   4.780   3.899
 5248SOL     OW21310   3.302   3.795   4.637
 5248SOL    HW221311   3.390   3.804   4.674
 5248SOL    HW321312   3.312   3.736   4.563
 5248SOL    MW421313   3.316   3.789   4.631
 5249SOL     OW21314   3.334   4.534   4.481
 5249SOL    HW221315   3.414   4.549   4.430
 5249SOL    HW321316   3.327   4.439   4.487
 5249SOL    MW421317   3.343   4.523   4.476
 5250SOL     OW21318   2.474   5.583   3.831
 5250SOL    HW221319   2.379   5.583   3.823
 5250SOL    HW321320   2.490   5.529   3.909
 5250SOL    MW421321   2.464   5.577   3.840
 5251SOL     OW21322   2.784   4.460   5.178
 5251SOL    HW221323   2.853   4.527   5.175
 5251SOL    HW321324   2.717   4.498   5.234
 5251SOL    MW421325   2.785   4.473   5.185
 5252SOL     OW21326   2.202   4.760   5.426
 5252SOL    HW221327   2.156   4.676   5.428
 5252SOL    HW321328   2.259   4.754   5.350
 5252SOL    MW421329   2.204   4.748   5.418
 5253SOL     OW21330   3.319   4.403   3.747
 5253SOL    HW221331   3.247   4.379   3.689
 5253SOL    HW321332   3.385   4.440   3.689
 5253SOL    MW421333   3.318   4.405   3.732
 5254SOL     OW21334   2.453   5.135   4.427
 5254SOL    HW221335   2.518   5.068   4.448
 5254SOL    HW321336   2.505   5.212   4.404
 5254SOL    MW421337   2.468   5.137   4.426
 5255SOL     OW21338   2.714   4.300   4.557
 5255SOL    HW221339   2.654   4.318   4.629
 5255SOL    HW321340   2.748   4.212   4.576
 5255SOL    MW421341   2.710   4.290   4.570
 5256SOL     OW21342   3.655   3.799   5.226
 5256SOL    HW221343   3.576   3.845   5.254
 5256SOL    HW321344   3.690   3.853   5.155
 5256SOL    MW421345   3.649   3.812   5.220
 5257SOL     OW21346   2.939   4.883   4.576
 5257SOL    HW221347   3.031   4.864   4.594
 5257SOL    HW321348   2.912   4.813   4.516
 5257SOL    MW421349   2.947   4.871   4.570
 5258SOL     OW21350   2.732   4.703   3.931
 5258SOL    HW221351   2.718   4.615   3.896
 5258SOL    HW321352   2.683   4.760   3.872
 5258SOL    MW421353   2.724   4.698   3.919
 5259SOL     OW21354   3.213   5.121   4.672
 5259SOL    HW221355   3.186   5.205   4.637
 5259SOL    HW321356   3.173   5.116   4.759
 5259SOL    MW421357   3.206   5.130   4.678
 5260SOL     OW21358   3.132   5.069   4.940
 5260SOL    HW221359   3.143   5.036   5.029
 5260SOL    HW321360   3.051   5.028   4.909
 5260SOL    MW421361   3.122   5.061   4.946
 5261SOL     OW21362   2.145   4.427   4.710
 5261SOL    HW221363   2.095   4.426   4.791
 5261SOL    HW321364   2.165   4.519   4.694
 5261SOL    MW421365   2.141   4.439   4.718
 5262SOL     OW21366   3.212   5.191   5.472
 5262SOL    HW221367   3.212   5.285   5.488
 5262SOL    HW321368   3.257   5.181   5.388
 5262SOL    MW421369   3.218   5.201   5.463
 5263SOL     OW21370   3.451   3.909   4.033
 5263SOL    HW221371   3.444   3.913   4.128
 5263SOL    HW321372   3.463   4.000   4.006
 5263SOL    MW421373   3.452   3.922   4.041
 5264SOL     OW21374   2.740   4.472   4.147
 5264SOL    HW221375   2.720   4.458   4.054
 5264SOL    HW321376   2.833   4.451   4.154
 5264SOL    MW421377   2.750   4.467   4.136
 5265SOL     OW21378   2.067   4.095   5.451
 5265SOL    HW221379   2.024   4.154   5.388
 5265SOL    HW321380   2.135   4.150   5.491
 5265SOL    MW421381   2.071   4.110   5.448
 5266SOL     OW21382   3.179   4.715   4.996
 5266SOL    HW221383   3.242   4.712   5.069
 5266SOL    HW321384   3.095   4.733   5.038
 5266SOL    MW421385   3.175   4.717   5.011
 5267SOL     OW21386   2.723   5.430   4.185
 5267SOL    HW221387   2.781   5.501   4.212
 5267SOL    HW321388   2.746   5.358   4.243
 5267SOL    MW421389   2.734   5.430   4.196
 5268SOL     OW21390   3.518   3.892   4.775
 5268SOL    HW221391   3.563   3.810   4.794
 5268SOL    HW321392   3.538   3.948   4.851
 5268SOL    MW421393   3.528   3.888   4.787
 5269SOL     OW21394   1.966   3.735   4.874
 5269SOL    HW221395   1.957   3.736   4.779
 5269SOL    HW321396   2.060   3.747   4.889
 5269SOL    MW421397   1.978   3.738   4.865
 5270SOL     OW21398   3.603   4.928   4.494
 5270SOL    HW221399   3.582   4.874   4.417
 5270SOL    HW321400   3.699   4.926   4.498
 5270SOL    MW421401   3.612   4.921   4.483
 5271SOL     OW21402   2.295   5.073   5.237
 5271SOL    HW221403   2.216   5.023   5.260
 5271SOL    HW321404   2.365   5.032   5.287
 5271SOL    MW421405   2.293   5.061   5.247
 5272SOL     OW21406   2.179   3.862   3.920
 5272SOL    HW221407   2.108   3.917   3.888
 5272SOL    HW321408   2.221   3.828   3.841
 5272SOL    MW421409   2.175   3.864   3.906
 5273SOL     OW21410   3.303   4.359   4.756
 5273SOL    HW221411   3.226   4.405   4.722
 5273SOL    HW321412   3.360   4.428   4.790
 5273SOL    MW421413   3.300   4.374   4.756
 5274SOL     OW21414   1.935   3.961   3.769
 5274SOL    HW221415   1.902   4.040   3.813
 5274SOL    HW321416   1.990   3.994   3.698
 5274SOL    MW421417   1.938   3.975   3.766
 5275SOL     OW21418   1.969   5.218   3.958
 5275SOL    HW221419   1.986   5.302   4.000
 5275SOL    HW321420   2.004   5.227   3.870
 5275SOL    MW421421   1.974   5.231   3.952
 5276SOL     OW21422   3.604   4.575   5.862
 5276SOL    HW221423   3.645   4.517   5.927
 5276SOL    HW321424   3.511   4.567   5.879
 5276SOL    MW421425   3.598   4.567   5.872
 5277SOL     OW21426   2.398   4.758   6.091
 5277SOL    HW221427   2.488   4.733   6.075
 5277SOL    HW321428   2.394   4.851   6.068
 5277SOL    MW421429   2.410   4.767   6.086
 5278SOL     OW21430   3.514   5.461   6.233
 5278SOL    HW221431   3.526   5.407   6.311
 5278SOL    HW321432   3.551   5.409   6.162
 5278SOL    MW421433   3.520   5.446   6.234
 5279SOL     OW21434   2.682   4.214   6.104
 5279SOL    HW221435   2.657   4.302   6.132
 5279SOL    HW321436   2.679   4.217   6.008
 5279SOL    MW421437   2.678   4.226   6.096
 5280SOL     OW21438   2.124   4.242   6.032
 5280SOL    HW221439   2.156   4.330   6.014
 5280SOL    HW321440   2.112   4.240   6.127
 5280SOL    MW421441   2.127   4.254   6.044
 5281SOL     OW21442   2.523   3.997   6.119
 5281SOL    HW221443   2.581   4.073   6.121
 5281SOL    HW321444   2.458   4.018   6.052
 5281SOL    MW421445   2.522   4.009   6.110
 5282SOL     OW21446   2.610   4.924   6.294
 5282SOL    HW221447   2.690   4.927   6.346
 5282SOL    HW321448   2.638   4.891   6.208
 5282SOL    MW421449   2.624   4.920   6.289
 5283SOL     OW21450   2.387   4.428   6.285
 5283SOL    HW221451   2.372   4.348   6.336
 5283SOL    HW321452   2.469   4.463   6.319
 5283SOL    MW421453   2.395   4.420   6.297
 5284SOL     OW21454   2.529   4.254   6.662
 5284SOL    HW221455   2.435   4.250   6.680
 5284SOL    HW321456   2.559   4.163   6.671
 5284SOL    MW421457   2.520   4.242   6.665
 5285SOL     OW21458   2.275   4.668   6.566
 5285SOL    HW221459   2.230   4.675   6.482
 5285SOL    HW321460   2.255   4.751   6.610
 5285SOL    MW421461   2.267   4.680   6.560
 5286SOL     OW21462   1.972   5.514   6.441
 5286SOL    HW221463   2.061   5.506   6.476
 5286SOL    HW321464   1.936   5.426   6.446
 5286SOL    MW421465   1.979   5.501   6.446
 5287SOL     OW21466   3.237   4.906   5.810
 5287SOL    HW221467   3.155   4.942   5.776
 5287SOL    HW321468   3.305   4.949   5.759
 5287SOL    MW421469   3.235   4.916   5.798
 5288SOL     OW21470   2.236   5.041   6.476
 5288SOL    HW221471   2.212   5.094   6.552
 5288SOL    HW321472   2.292   5.099   6.424
 5288SOL    MW421473   2.240   5.056   6.479
 5289SOL     OW21474   2.798   4.685   6.286
 5289SOL    HW221475   2.712   4.672   6.326
 5289SOL    HW321476   2.851   4.612   6.318
 5289SOL    MW421477   2.794   4.674   6.295
 5290SOL     OW21478   2.789   5.047   6.003
 5290SOL    HW221479   2.766   5.109   6.071
 5290SOL    HW321480   2.746   4.965   6.029
 5290SOL    MW421481   2.781   5.043   6.014
 5291SOL     OW21482   3.662   4.048   6.459
 5291SOL    HW221483   3.599   4.028   6.528
 5291SOL    HW321484   3.652   3.977   6.396
 5291SOL    MW421485   3.652   4.035   6.460
 5292SOL     OW21486   2.286   4.020   5.971
 5292SOL    HW221487   2.260   3.982   5.887
 5292SOL    HW321488   2.223   4.090   5.987
 5292SOL    MW421489   2.275   4.023   5.962
 5293SOL     OW21490   2.121   4.981   6.008
 5293SOL    HW221491   2.069   5.049   5.964
 5293SOL    HW321492   2.118   4.907   5.948
 5293SOL    MW421493   2.113   4.980   5.995
 5294SOL     OW21494   2.783   5.444   5.786
 5294SOL    HW221495   2.738   5.460   5.869
 5294SOL    HW321496   2.714   5.409   5.728
 5294SOL    MW421497   2.769   5.441   5.788
 5295SOL     OW21498   3.718   4.217   5.761
 5295SOL    HW221499   3.627   4.219   5.789
 5295SOL    HW321500   3.763   4.279   5.819
 5295SOL    MW421501   3.711   4.225   5.771
 5296SOL     OW21502   3.463   4.820   6.111
 5296SOL    HW221503   3.373   4.820   6.146
 5296SOL    HW321504   3.456   4.866   6.028
 5296SOL    MW421505   3.450   4.826   6.105
 5297SOL     OW21506   2.004   5.335   6.735
 5297SOL    HW221507   1.987   5.281   6.812
 5297SOL    HW321508   1.992   5.425   6.765
 5297SOL    MW421509   2.001   5.339   6.749
 5298SOL     OW21510   3.370   4.798   6.503
 5298SOL    HW221511   3.373   4.732   6.434
 5298SOL    HW321512   3.455   4.841   6.499
 5298SOL    MW421513   3.382   4.794   6.494
 5299SOL     OW21514   2.990   4.401   6.072
 5299SOL    HW221515   3.016   4.425   5.983
 5299SOL    HW321516   2.972   4.308   6.068
 5299SOL    MW421517   2.992   4.393   6.059
 5300SOL     OW21518   3.655   5.021   5.923
 5300SOL    HW221519   3.611   5.062   5.998
 5300SOL    HW321520   3.712   5.089   5.888
 5300SOL    MW421521   3.657   5.035   5.928
 5301SOL     OW21522   2.311   5.437   6.241
 5301SOL    HW221523   2.343   5.525   6.219
 5301SOL    HW321524   2.264   5.409   6.163
 5301SOL    MW421525   2.310   5.445   6.228
 5302SOL     OW21526   3.695   3.799   6.290
 5302SOL    HW221527   3.749   3.750   6.352
 5302SOL    HW321528   3.638   3.733   6.251
 5302SOL    MW421529   3.695   3.783   6.292
 5303SOL     OW21530   2.027   5.497   5.818
 5303SOL    HW221531   2.056   5.587   5.810
 5303SOL    HW321532   1.977   5.480   5.739
 5303SOL    MW421533   2.025   5.505   5.807
 5304SOL     OW21534   3.431   5.305   5.789
 5304SOL    HW221535   3.479   5.374   5.835
 5304SOL    HW321536   3.352   5.349   5.758
 5304SOL    MW421537   3.426   5.319   5.792
 5305SOL     OW21538   2.829   4.430   5.733
 5305SOL    HW221539   2.831   4.377   5.654
 5305SOL    HW321540   2.917   4.467   5.739
 5305SOL    MW421541   2.841   4.429   5.722
 5306SOL     OW21542   3.443   4.356   6.069
 5306SOL    HW221543   3.482   4.356   6.156
 5306SOL    HW321544   3.384   4.432   6.069
 5306SOL    MW421545   3.440   4.367   6.080
 5307SOL     OW21546   2.929   4.349   6.792
 5307SOL    HW221547   3.004   4.378   6.739
 5307SOL    HW321548   2.861   4.414   6.776
 5307SOL    MW421549   2.930   4.361   6.782
 5308SOL     OW21550   3.630   4.242   6.235
 5308SOL    HW221551   3.719   4.211   6.252
 5308SOL    HW321552   3.573   4.182   6.283
 5308SOL    MW421553   3.633   4.230   6.244
 5309SOL     OW21554   2.056   3.956   6.264
 5309SOL    HW221555   2.047   3.896   6.190
 5309SOL    HW321556   1.989   3.927   6.327
 5309SOL    MW421557   2.046   3.943   6.262
 5310SOL     OW21558   2.999   5.049   5.825
 5310SOL    HW221559   2.949   5.051   5.907
 5310SOL    HW321560   2.933   5.067   5.757
 5310SOL    MW421561   2.985   5.051   5.827
 5311SOL     OW21562   2.003   4.129   6.627
 5311SOL    HW221563   1.975   4.220   6.636
 5311SOL    HW321564   1.940   4.090   6.566
 5311SOL    MW421565   1.990   4.135   6.621
 5312SOL     OW21566   2.462   5.467   5.933
 5312SOL    HW221567   2.383   5.425   5.966
 5312SOL    HW321568   2.528   5.450   6.000
 5312SOL    MW421569   2.461   5.459   5.946
 5313SOL     OW21570   2.598   4.882   5.640
 5313SOL    HW221571   2.520   4.828   5.627
 5313SOL    HW321572   2.569   4.955   5.693
 5313SOL    MW421573   2.584   4.884   5.645
 5314SOL     OW21574   3.724   4.622   6.832
 5314SOL    HW221575   3.740   4.660   6.745
 5314SOL    HW321576   3.758   4.688   6.893
 5314SOL    MW421577   3.731   4.635   6.828
 5315SOL     OW21578   3.516   5.331   6.501
 5315SOL    HW221579   3.545   5.398   6.562
 5315SOL    HW321580   3.497   5.255   6.556
 5315SOL    MW421581   3.518   5.331   6.516
 5316SOL     OW21582   3.179   5.398   5.708
 5316SOL    HW221583   3.105   5.361   5.758
 5316SOL    HW321584   3.187   5.488   5.741
 5316SOL    MW421585   3.170   5.405   5.720
 5317SOL     OW21586   3.403   5.072   5.650
 5317SOL    HW221587   3.350   5.121   5.586
 5317SOL    HW321588   3.434   5.138   5.711
 5317SOL    MW421589   3.401   5.086   5.648
 5318SOL     OW21590   2.628   3.961   5.705
 5318SOL    HW221591   2.576   3.881   5.693
 5318SOL    HW321592   2.715   3.938   5.673
 5318SOL    MW421593   2.631   3.947   5.699
 5319SOL     OW21594   2.134   4.832   6.756
 5319SOL    HW221595   2.187   4.907   6.781
 5319SOL    HW321596   2.053   4.870   6.722
 5319SOL    MW421597   2.130   4.847   6.756
 5320SOL     OW21598   2.674   4.736   6.744
 5320SOL    HW221599   2.702   4.645   6.756
 5320SOL    HW321600   2.603   4.730   6.680
 5320SOL    MW421601   2.667   4.724   6.739
 5321SOL     OW21602   1.989   4.601   6.162
 5321SOL    HW221603   2.080   4.616   6.189
 5321SOL    HW321604   1.992   4.522   6.108
 5321SOL    MW421605   2.001   4.593   6.160
 5322SOL     OW21606   2.616   5.533   6.536
 5322SOL    HW221607   2.705   5.548   6.566
 5322SOL    HW321608   2.611   5.580   6.452
 5322SOL    MW421609   2.626   5.541   6.529
 5323SOL     OW21610   1.997   5.213   6.201
 5323SOL    HW221611   1.969   5.252   6.283
 5323SOL    HW321612   2.017   5.122   6.223
 5323SOL    MW421613   1.995   5.205   6.214
 5324SOL     OW21614   2.830   5.256   6.236
 5324SOL    HW221615   2.913   5.210   6.220
 5324SOL    HW321616   2.820   5.255   6.332
 5324SOL    MW421617   2.840   5.249   6.246
 5325SOL     OW21618   3.662   4.401   6.550
 5325SOL    HW221619   3.751   4.431   6.532
 5325SOL    HW321620   3.642   4.341   6.479
 5325SOL    MW421621   3.671   4.398   6.539
 5326SOL     OW21622   2.563   5.313   5.641
 5326SOL    HW221623   2.503   5.382   5.611
 5326SOL    HW321624   2.508   5.255   5.694
 5326SOL    MW421625   2.547   5.315   5.643
 5327SOL     OW21626   3.001   3.958   5.864
 5327SOL    HW221627   2.934   3.934   5.801
 5327SOL    HW321628   3.066   4.007   5.813
 5327SOL    MW421629   3.001   3.960   5.849
 5328SOL     OW21630   3.068   4.480   6.572
 5328SOL    HW221631   3.081   4.574   6.582
 5328SOL    HW321632   3.029   4.470   6.486
 5328SOL    MW421633   3.064   4.491   6.562
 5329SOL     OW21634   2.520   4.675   6.376
 5329SOL    HW221635   2.431   4.666   6.409
 5329SOL    HW321636   2.524   4.765   6.344
 5329SOL    MW421637   2.509   4.686   6.376
 5330SOL     OW21638   3.319   4.258   6.371
 5330SOL    HW221639   3.264   4.179   6.370
 5330SOL    HW321640   3.301   4.299   6.455
 5330SOL    MW421641   3.309   4.253   6.380
 5331SOL     OW21642   2.938   4.462   6.328
 5331SOL    HW221643   2.875   4.394   6.352
 5331SOL    HW321644   2.958   4.443   6.236
 5331SOL    MW421645   2.932   4.449   6.320
 5332SOL     OW21646   2.194   5.357   6.030
 5332SOL    HW221647   2.155   5.404   5.956
 5332SOL    HW321648   2.128   5.292   6.055
 5332SOL    MW421649   2.181   5.355   6.024
 5333SOL     OW21650   2.686   4.766   6.054
 5333SOL    HW221651   2.688   4.740   5.961
 5333SOL    HW321652   2.744   4.703   6.097
 5333SOL    MW421653   2.694   4.755   6.048
 5334SOL     OW21654   3.243   5.534   6.256
 5334SOL    HW221655   3.186   5.487   6.195
 5334SOL    HW321656   3.329   5.495   6.243
 5334SOL    MW421657   3.246   5.525   6.246
 5335SOL     OW21658   3.196   4.010   6.387
 5335SOL    HW221659   3.224   3.942   6.448
 5335SOL    HW321660   3.110   3.981   6.357
 5335SOL    MW421661   3.189   3.997   6.391
 5336SOL     OW21662   2.001   4.944   6.321
 5336SOL    HW221663   2.065   4.976   6.384
 5336SOL    HW321664   2.050   4.880   6.269
 5336SOL    MW421665   2.016   4.940   6.322
 5337SOL     OW21666   3.176   4.114   5.722
 5337SOL    HW221667   3.149   4.180   5.658
 5337SOL    HW321668   3.246   4.157   5.772
 5337SOL    MW421669   3.181   4.127   5.719
 5338SOL     OW21670   2.844   3.819   5.659
 5338SOL    HW221671   2.900   3.811   5.581
 5338SOL    HW321672   2.821   3.729   5.681
 5338SOL    MW421673   2.849   3.806   5.652
 5339SOL     OW21674   3.349   4.670   5.864
 5339SOL    HW221675   3.316   4.759   5.854
 5339SOL    HW321676   3.314   4.641   5.949
 5339SOL    MW421677   3.339   4.679   5.875
 5340SOL     OW21678   2.279   5.257   6.693
 5340SOL    HW221679   2.324   5.319   6.750
 5340SOL    HW321680   2.186   5.276   6.706
 5340SOL    MW421681   2.272   5.267   6.700
 5341SOL     OW21682   2.701   5.325   6.801
 5341SOL    HW221683   2.725   5.314   6.710
 5341SOL    HW321684   2.624   5.382   6.799
 5341SOL    MW421685   2.693   5.330   6.790
 5342SOL     OW21686   2.343   4.708   5.656
 5342SOL    HW221687   2.266   4.721   5.712
 5342SOL    HW321688   2.307   4.672   5.575
 5342SOL    MW421689   2.329   4.704   5.653
 5343SOL     OW21690   2.996   4.681   5.899
 5343SOL    HW221691   2.906   4.702   5.874
 5343SOL    HW321692   3.023   4.754   5.955
 5343SOL    MW421693   2.988   4.693   5.902
 5344SOL     OW21694   2.496   5.030   6.591
 5344SOL    HW221695   2.489   5.009   6.685
 5344SOL    HW321696   2.414   4.998   6.554
 5344SOL    MW421697   2.484   5.024   6.598
 5345SOL     OW21698   2.625   3.797   6.306
 5345SOL    HW221699   2.554   3.858   6.288
 5345SOL    HW321700   2.676   3.794   6.225
 5345SOL    MW421701   2.621   3.803   6.293
 5346SOL     OW21702   2.383   5.037   6.055
 5346SOL    HW221703   2.376   5.069   6.145
 5346SOL    HW321704   2.293   5.021   6.027
 5346SOL    MW421705   2.371   5.039   6.062
 5347SOL     OW21706   3.092   5.395   6.454
 5347SOL    HW221707   3.139   5.468   6.413
 5347SOL    HW321708   3.013   5.434   6.490
 5347SOL    MW421709   3.087   5.410   6.453
 5348SOL     OW21710   3.500   5.490   6.729
 5348SOL    HW221711   3.543   5.460   6.809
 5348SOL    HW321712   3.419   5.438   6.726
 5348SOL    MW421713   3.495   5.479   6.739
 5349SOL     OW21714   2.386   4.321   5.769
 5349SOL    HW221715   2.352   4.377   5.839
 5349SOL    HW321716   2.457   4.271   5.809
 5349SOL    MW421717   2.392   4.322   5.783
 5350SOL     OW21718   3.482   5.072   6.591
 5350SOL    HW221719   3.517   5.054   6.504
 5350SOL    HW321720   3.387   5.073   6.578
 5350SOL    MW421721   3.474   5.069   6.578
 5351SOL     OW21722   3.442   4.207   5.833
 5351SOL    HW221723   3.434   4.278   5.770
 5351SOL    HW321724   3.460   4.251   5.916
 5351SOL    MW421725   3.443   4.221   5.835
 5352SOL     OW21726   2.302   3.862   6.262
 5352SOL    HW221727   2.352   3.905   6.193
 5352SOL    HW321728   2.217   3.906   6.262
 5352SOL    MW421729   2.299   3.875   6.253
 5353SOL     OW21730   3.111   4.469   5.808
 5353SOL    HW221731   3.158   4.487   5.727
 5353SOL    HW321732   3.077   4.553   5.836
 5353SOL    MW421733   3.113   4.483   5.801
 5354SOL     OW21734   2.224   4.647   6.302
 5354SOL    HW221735   2.282   4.703   6.250
 5354SOL    HW321736   2.268   4.562   6.304
 5354SOL    MW421737   2.237   4.644   6.295
 5355SOL     OW21738   3.364   3.999   6.139
 5355SOL    HW221739   3.286   3.949   6.164
 5355SOL    HW321740   3.335   4.090   6.139
 5355SOL    MW421741   3.350   4.003   6.142
 5356SOL     OW21742   2.950   3.961   6.298
 5356SOL    HW221743   2.970   4.036   6.242
 5356SOL    HW321744   2.930   4.000   6.383
 5356SOL    MW421745   2.951   3.977   6.302
 5357SOL     OW21746   2.846   5.211   5.630
 5357SOL    HW221747   2.873   5.289   5.582
 5357SOL    HW321748   2.753   5.226   5.649
 5357SOL    MW421749   2.837   5.224   5.626
 5358SOL     OW21750   1.931   5.247   6.474
 5358SOL    HW221751   1.963   5.251   6.565
 5358SOL    HW321752   1.836   5.255   6.482
 5358SOL    MW421753   1.923   5.250   6.487
 5359SOL     OW21754   1.886   4.373   6.021
 5359SOL    HW221755   1.826   4.345   6.091
 5359SOL    HW321756   1.960   4.313   6.027
 5359SOL    MW421757   1.888   4.362   6.030
 5360SOL     OW21758   3.054   5.104   6.181
 5360SOL    HW221759   3.077   5.055   6.259
 5360SOL    HW321760   3.135   5.146   6.153
 5360SOL    MW421761   3.067   5.104   6.188
 5361SOL     OW21762   2.266   4.079   6.646
 5361SOL    HW221763   2.296   3.993   6.617
 5361SOL    HW321764   2.171   4.072   6.649
 5361SOL    MW421765   2.258   4.068   6.644
 5362SOL     OW21766   2.409   3.857   6.537
 5362SOL    HW221767   2.419   3.766   6.563
 5362SOL    HW321768   2.365   3.853   6.452
 5362SOL    MW421769   2.405   3.845   6.529
 5363SOL     OW21770   3.560   4.179   6.708
 5363SOL    HW221771   3.493   4.212   6.768
 5363SOL    HW321772   3.603   4.257   6.674
 5363SOL    MW421773   3.558   4.194   6.712
 5364SOL     OW21774   3.738   4.899   6.678
 5364SOL    HW221775   3.731   4.839   6.603
 5364SOL    HW321776   3.664   4.959   6.667
 5364SOL    MW421777   3.728   4.899   6.667
 5365SOL     OW21778   3.120   4.761   6.596
 5365SOL    HW221779   3.134   4.733   6.687
 5365SOL    HW321780   3.206   4.792   6.568
 5365SOL    MW421781   3.133   4.762   6.605
 5366SOL     OW21782   3.194   3.771   5.817
 5366SOL    HW221783   3.268   3.815   5.860
 5366SOL    HW321784   3.118   3.825   5.839
 5366SOL    MW421785   3.194   3.783   5.825
 5367SOL     OW21786   3.254   4.546   6.095
 5367SOL    HW221787   3.169   4.516   6.065
 5367SOL    HW321788   3.246   4.553   6.190
 5367SOL    MW421789   3.242   4.544   6.104
 5368SOL     OW21790   2.614   3.989   6.649
 5368SOL    HW221791   2.587   3.991   6.740
 5368SOL    HW321792   2.544   3.941   6.604
 5368SOL    MW421793   2.602   3.985   6.656
 5369SOL     OW21794   2.627   4.212   5.821
 5369SOL    HW221795   2.700   4.261   5.784
 5369SOL    HW321796   2.643   4.121   5.795
 5369SOL    MW421797   2.639   4.207   5.814
 5370SOL     OW21798   3.095   3.808   6.735
 5370SOL    HW221799   3.150   3.817   6.657
 5370SOL    HW321800   3.150   3.842   6.806
 5370SOL    MW421801   3.109   3.813   6.734
 5371SOL     OW21802   2.102   4.721   5.919
 5371SOL    HW221803   2.039   4.737   5.848
 5371SOL    HW321804   2.049   4.684   5.990
 5371SOL    MW421805   2.087   4.718   5.919
 5372SOL     OW21806   2.458   5.075   5.778
 5372SOL    HW221807   2.473   5.051   5.870
 5372SOL    HW321808   2.366   5.053   5.762
 5372SOL    MW421809   2.448   5.068   5.788
 5373SOL     OW21810   2.997   5.306   5.930
 5373SOL    HW221811   3.005   5.224   5.881
 5373SOL    HW321812   2.916   5.345   5.897
 5373SOL    MW421813   2.987   5.301   5.920
 5374SOL     OW21814   2.256   5.464   6.499
 5374SOL    HW221815   2.260   5.375   6.534
 5374SOL    HW321816   2.282   5.455   6.408
 5374SOL    MW421817   2.259   5.452   6.491
 5375SOL     OW21818   2.873   4.942   6.742
 5375SOL    HW221819   2.805   4.876   6.758
 5375SOL    HW321820   2.891   4.936   6.649
 5375SOL    MW421821   2.866   4.933   6.733
 5376SOL     OW21822   2.866   4.081   6.563
 5376SOL    HW221823   2.796   4.033   6.608
 5376SOL    HW321824   2.898   4.144   6.627
 5376SOL    MW421825   2.861   4.083   6.577
 5377SOL     OW21826   2.333   4.187   6.376
 5377SOL    HW221827   2.404   4.135   6.339
 5377SOL    HW321828   2.319   4.152   6.463
 5377SOL    MW421829   2.341   4.176   6.383
 5378SOL     OW21830   2.649   5.280   6.452
 5378SOL    HW221831   2.577   5.217   6.465
 5378SOL    HW321832   2.610   5.365   6.470
 5378SOL    MW421833   2.633   5.283   6.455
 5379SOL     OW21834   2.969   4.128   6.100
 5379SOL    HW221835   2.991   4.065   6.032
 5379SOL    HW321836   2.874   4.120   6.111
 5379SOL    MW421837   2.959   4.119   6.092
 5380SOL     OW21838   2.054   3.818   6.032
 5380SOL    HW221839   2.125   3.839   5.971
 5380SOL    HW321840   2.008   3.746   5.990
 5380SOL    MW421841   2.058   3.812   6.018
 5381SOL     OW21842   3.623   5.192   6.132
 5381SOL    HW221843   3.593   5.125   6.193
 5381SOL    HW321844   3.717   5.198   6.146
 5381SOL    MW421845   3.631   5.184   6.142
 5382SOL     OW21846   3.179   4.869   6.062
 5382SOL    HW221847   3.151   4.955   6.095
 5382SOL    HW321848   3.207   4.885   5.972
 5382SOL    MW421849   3.179   4.883   6.054
 5383SOL     OW21850   2.841   3.789   6.115
 5383SOL    HW221851   2.878   3.848   6.180
 5383SOL    HW321852   2.818   3.845   6.041
 5383SOL    MW421853   2.842   3.804   6.114
 5384SOL     OW21854   3.694   4.671   6.537
 5384SOL    HW221855   3.685   4.703   6.448
 5384SOL    HW321856   3.647   4.587   6.537
 5384SOL    MW421857   3.687   4.664   6.527
 5385SOL     OW21858   3.606   4.602   6.238
 5385SOL    HW221859   3.700   4.591   6.226
 5385SOL    HW321860   3.582   4.674   6.179
 5385SOL    MW421861   3.616   4.610   6.229
 5386SOL     OW21862   2.262   4.480   6.011
 5386SOL    HW221863   2.262   4.575   5.996
 5386SOL    HW321864   2.339   4.464   6.065
 5386SOL    MW421865   2.272   4.491   6.016
 5387SOL     OW21866   2.021   4.211   6.300
 5387SOL    HW221867   2.083   4.218   6.373
 5387SOL    HW321868   2.021   4.118   6.277
 5387SOL    MW421869   2.029   4.200   6.307
 5388SOL     OW21870   3.568   5.551   5.832
 5388SOL    HW221871   3.635   5.584   5.772
 5388SOL    HW321872   3.525   5.630   5.866
 5388SOL    MW421873   3.570   5.566   5.828
 5389SOL     OW21874   2.703   4.472   6.784
 5389SOL    HW221875   2.661   4.390   6.760
 5389SOL    HW321876   2.704   4.471   6.880
 5389SOL    MW421877   2.696   4.461   6.793
 5390SOL     OW21878   1.890   4.783   5.758
 5390SOL    HW221879   1.859   4.848   5.821
 5390SOL    HW321880   1.839   4.705   5.777
 5390SOL    MW421881   1.880   4.780   5.768
 5391SOL     OW21882   3.334   4.534   6.350
 5391SOL    HW221883   3.414   4.549   6.299
 5391SOL    HW321884   3.327   4.439   6.356
 5391SOL    MW421885   3.343   4.523   6.345
 5392SOL     OW21886   2.474   5.583   5.700
 5392SOL    HW221887   2.379   5.583   5.692
 5392SOL    HW321888   2.490   5.529   5.778
 5392SOL    MW421889   2.464   5.577   5.709
 5393SOL     OW21890   3.319   4.403   5.615
 5393SOL    HW221891   3.247   4.379   5.557
 5393SOL    HW321892   3.385   4.440   5.557
 5393SOL    MW421893   3.318   4.405   5.600
 5394SOL     OW21894   2.453   5.135   6.296
 5394SOL    HW221895   2.518   5.068   6.317
 5394SOL    HW321896   2.505   5.212   6.273
 5394SOL    MW421897   2.468   5.137   6.295
 5395SOL     OW21898   2.714   4.300   6.426
 5395SOL    HW221899   2.654   4.318   6.498
 5395SOL    HW321900   2.748   4.212   6.445
 5395SOL    MW421901   2.710   4.290   6.439
 5396SOL     OW21902   2.939   4.883   6.445
 5396SOL    HW221903   3.031   4.864   6.463
 5396SOL    HW321904   2.912   4.813   6.385
 5396SOL    MW421905   2.947   4.871   6.439
 5397SOL     OW21906   2.732   4.703   5.800
 5397SOL    HW221907   2.718   4.615   5.765
 5397SOL    HW321908   2.683   4.760   5.741
 5397SOL    MW421909   2.724   4.698   5.788
 5398SOL     OW21910   3.213   5.121   6.541
 5398SOL    HW221911   3.186   5.205   6.506
 5398SOL    HW321912   3.173   5.116   6.628
 5398SOL    MW421913   3.206   5.130   6.547
 5399SOL     OW21914   2.145   4.427   6.579
 5399SOL    HW221915   2.095   4.426   6.660
 5399SOL    HW321916   2.165   4.519   6.563
 5399SOL    MW421917   2.141   4.439   6.587
 5400SOL     OW21918   3.451   3.909   5.902
 5400SOL    HW221919   3.444   3.913   5.997
 5400SOL    HW321920   3.463   4.000   5.875
 5400SOL    MW421921   3.452   3.922   5.910
 5401SOL     OW21922   2.740   4.472   6.016
 5401SOL    HW221923   2.720   4.458   5.923
 5401SOL    HW321924   2.833   4.451   6.023
 5401SOL    MW421925   2.750   4.467   6.005
 5402SOL     OW21926   2.723   5.430   6.054
 5402SOL    HW221927   2.781   5.501   6.081
 5402SOL    HW321928   2.746   5.358   6.112
 5402SOL    MW421929   2.734   5.430   6.065
 5403SOL     OW21930   3.518   3.892   6.644
 5403SOL    HW221931   3.563   3.810   6.663
 5403SOL    HW321932   3.538   3.948   6.720
 5403SOL    MW421933   3.528   3.888   6.656
 5404SOL     OW21934   1.966   3.735   6.743
 5404SOL    HW221935   1.957   3.736   6.648
 5404SOL    HW321936   2.060   3.747   6.758
 5404SOL    MW421937   1.978   3.738   6.734
 5405SOL     OW21938   3.603   4.928   6.363
 5405SOL    HW221939   3.582   4.874   6.286
 5405SOL    HW321940   3.699   4.926   6.367
 5405SOL    MW421941   3.612   4.921   6.352
 5406SOL     OW21942   2.179   3.862   5.789
 5406SOL    HW221943   2.108   3.917   5.757
 5406SOL    HW321944   2.221   3.828   5.710
 5406SOL    MW421945   2.175   3.864   5.775
 5407SOL     OW21946   3.303   4.359   6.625
 5407SOL    HW221947   3.226   4.405   6.591
 5407SOL    HW321948   3.360   4.428   6.659
 5407SOL    MW421949   3.300   4.374   6.625
 5408SOL     OW21950   1.935   3.961   5.638
 5408SOL    HW221951   1.902   4.040   5.682
 5408SOL    HW321952   1.990   3.994   5.567
 5408SOL    MW421953   1.938   3.975   5.635
 5409SOL     OW21954   1.969   5.218   5.827
 5409SOL    HW221955   1.986   5.302   5.869
 5409SOL    HW321956   2.004   5.227   5.739
 5409SOL    MW421957   1.974   5.231   5.821
 5410SOL     OW21958   3.241   5.307   6.044
 5410SOL    HW221959   3.304   5.297   5.973
 5410SOL    HW321960   3.158   5.327   5.999
 5410SOL    MW421961   3.238   5.308   6.029
 5411SOL     OW21962   3.604   6.444   0.257
 5411SOL    HW221963   3.645   6.386   0.322
 5411SOL    HW321964   3.511   6.436   0.274
 5411SOL    MW421965   3.598   6.436   0.267
 5412SOL     OW21966   3.470   6.376   1.252
 5412SOL    HW221967   3.425   6.443   1.303
 5412SOL    HW321968   3.558   6.412   1.238
 5412SOL    MW421969   3.476   6.389   1.256
 5413SOL     OW21970   2.398   6.627   0.486
 5413SOL    HW221971   2.488   6.602   0.470
 5413SOL    HW321972   2.394   6.720   0.463
 5413SOL    MW421973   2.410   6.636   0.481
 5414SOL     OW21974   3.514   7.330   0.628
 5414SOL    HW221975   3.526   7.276   0.706
 5414SOL    HW321976   3.551   7.278   0.557
 5414SOL    MW421977   3.520   7.315   0.629
 5415SOL     OW21978   2.893   7.215   1.629
 5415SOL    HW221979   2.934   7.251   1.550
 5415SOL    HW321980   2.928   7.126   1.636
 5415SOL    MW421981   2.904   7.208   1.620
 5416SOL     OW21982   3.450   6.770   1.233
 5416SOL    HW221983   3.371   6.735   1.191
 5416SOL    HW321984   3.477   6.842   1.177
 5416SOL    MW421985   3.443   6.775   1.220
 5417SOL     OW21986   2.682   6.083   0.499
 5417SOL    HW221987   2.657   6.171   0.527
 5417SOL    HW321988   2.679   6.086   0.403
 5417SOL    MW421989   2.678   6.095   0.491
 5418SOL     OW21990   2.124   6.111   0.427
 5418SOL    HW221991   2.156   6.199   0.409
 5418SOL    HW321992   2.112   6.109   0.522
 5418SOL    MW421993   2.127   6.123   0.439
 5419SOL     OW21994   2.202   6.524   1.328
 5419SOL    HW221995   2.265   6.471   1.279
 5419SOL    HW321996   2.183   6.598   1.271
 5419SOL    MW421997   2.208   6.526   1.315
 5420SOL     OW21998   2.523   5.866   0.514
 5420SOL    HW221999   2.581   5.942   0.516
 5420SOL    HW322000   2.458   5.887   0.447
 5420SOL    MW422001   2.522   5.878   0.505
 5421SOL     OW22002   2.610   6.793   0.689
 5421SOL    HW222003   2.690   6.796   0.741
 5421SOL    HW322004   2.638   6.760   0.603
 5421SOL    MW422005   2.624   6.789   0.684
 5422SOL     OW22006   2.635   7.134   1.592
 5422SOL    HW222007   2.719   7.160   1.631
 5422SOL    HW322008   2.659   7.078   1.518
 5422SOL    MW422009   2.649   7.130   1.587
 5423SOL     OW22010   2.387   6.297   0.680
 5423SOL    HW222011   2.372   6.217   0.731
 5423SOL    HW322012   2.469   6.332   0.714
 5423SOL    MW422013   2.395   6.289   0.692
 5424SOL     OW22014   2.724   6.983   1.365
 5424SOL    HW222015   2.688   7.049   1.305
 5424SOL    HW322016   2.652   6.921   1.378
 5424SOL    MW422017   2.710   6.983   1.359
 5425SOL     OW22018   2.529   6.123   1.057
 5425SOL    HW222019   2.435   6.119   1.075
 5425SOL    HW322020   2.559   6.032   1.066
 5425SOL    MW422021   2.520   6.111   1.060
 5426SOL     OW22022   2.275   6.537   0.961
 5426SOL    HW222023   2.230   6.544   0.877
 5426SOL    HW322024   2.255   6.620   1.005
 5426SOL    MW422025   2.267   6.549   0.955
 5427SOL     OW22026   1.972   7.383   0.836
 5427SOL    HW222027   2.061   7.375   0.871
 5427SOL    HW322028   1.936   7.295   0.841
 5427SOL    MW422029   1.979   7.370   0.841
 5428SOL     OW22030   3.237   6.775   0.205
 5428SOL    HW222031   3.155   6.811   0.171
 5428SOL    HW322032   3.305   6.818   0.154
 5428SOL    MW422033   3.235   6.785   0.193
 5429SOL     OW22034   2.236   6.910   0.871
 5429SOL    HW222035   2.212   6.963   0.947
 5429SOL    HW322036   2.292   6.968   0.819
 5429SOL    MW422037   2.240   6.925   0.874
 5430SOL     OW22038   2.798   6.554   0.681
 5430SOL    HW222039   2.712   6.541   0.721
 5430SOL    HW322040   2.851   6.481   0.713
 5430SOL    MW422041   2.794   6.543   0.690
 5431SOL     OW22042   2.206   7.206   1.466
 5431SOL    HW222043   2.114   7.182   1.451
 5431SOL    HW322044   2.250   7.123   1.483
 5431SOL    MW422045   2.200   7.191   1.465
 5432SOL     OW22046   2.789   6.916   0.398
 5432SOL    HW222047   2.766   6.978   0.466
 5432SOL    HW322048   2.746   6.834   0.424
 5432SOL    MW422049   2.781   6.912   0.409
 5433SOL     OW22050   3.662   5.917   0.854
 5433SOL    HW222051   3.599   5.897   0.923
 5433SOL    HW322052   3.652   5.846   0.791
 5433SOL    MW422053   3.652   5.904   0.855
 5434SOL     OW22054   2.286   5.889   0.366
 5434SOL    HW222055   2.260   5.851   0.282
 5434SOL    HW322056   2.223   5.959   0.382
 5434SOL    MW422057   2.275   5.892   0.357
 5435SOL     OW22058   2.121   6.850   0.403
 5435SOL    HW222059   2.069   6.918   0.359
 5435SOL    HW322060   2.118   6.776   0.343
 5435SOL    MW422061   2.113   6.849   0.390
 5436SOL     OW22062   2.783   7.313   0.181
 5436SOL    HW222063   2.738   7.329   0.264
 5436SOL    HW322064   2.714   7.278   0.123
 5436SOL    MW422065   2.769   7.310   0.183
 5437SOL     OW22066   3.718   6.086   0.156
 5437SOL    HW222067   3.627   6.088   0.184
 5437SOL    HW322068   3.763   6.148   0.214
 5437SOL    MW422069   3.711   6.094   0.166
 5438SOL     OW22070   3.463   6.689   0.506
 5438SOL    HW222071   3.373   6.689   0.541
 5438SOL    HW322072   3.456   6.735   0.423
 5438SOL    MW422073   3.450   6.695   0.500
 5439SOL     OW22074   3.263   6.324   1.578
 5439SOL    HW222075   3.332   6.262   1.555
 5439SOL    HW322076   3.188   6.298   1.525
 5439SOL    MW422077   3.263   6.311   1.569
 5440SOL     OW22078   2.004   7.204   1.130
 5440SOL    HW222079   1.987   7.150   1.207
 5440SOL    HW322080   1.992   7.294   1.160
 5440SOL    MW422081   2.001   7.208   1.144
 5441SOL     OW22082   2.999   6.711   1.570
 5441SOL    HW222083   2.984   6.804   1.555
 5441SOL    HW322084   3.094   6.701   1.570
 5441SOL    MW422085   3.008   6.721   1.567
 5442SOL     OW22086   2.795   6.135   1.771
 5442SOL    HW222087   2.885   6.136   1.738
 5442SOL    HW322088   2.754   6.060   1.729
 5442SOL    MW422089   2.801   6.125   1.762
 5443SOL     OW22090   3.370   6.667   0.898
 5443SOL    HW222091   3.373   6.601   0.829
 5443SOL    HW322092   3.455   6.710   0.894
 5443SOL    MW422093   3.382   6.663   0.889
 5444SOL     OW22094   2.990   6.270   0.467
 5444SOL    HW222095   3.016   6.294   0.378
 5444SOL    HW322096   2.972   6.177   0.463
 5444SOL    MW422097   2.992   6.262   0.454
 5445SOL     OW22098   3.655   6.890   0.318
 5445SOL    HW222099   3.611   6.931   0.393
 5445SOL    HW322100   3.712   6.958   0.283
 5445SOL    MW422101   3.657   6.904   0.323
 5446SOL     OW22102   2.575   5.939   1.721
 5446SOL    HW222103   2.585   5.865   1.661
 5446SOL    HW322104   2.611   5.908   1.804
 5446SOL    MW422105   2.581   5.925   1.723
 5447SOL     OW22106   2.311   7.306   0.636
 5447SOL    HW222107   2.343   7.394   0.614
 5447SOL    HW322108   2.264   7.278   0.558
 5447SOL    MW422109   2.310   7.314   0.623
 5448SOL     OW22110   3.695   5.668   0.685
 5448SOL    HW222111   3.749   5.619   0.747
 5448SOL    HW322112   3.638   5.602   0.646
 5448SOL    MW422113   3.695   5.652   0.687
 5449SOL     OW22114   2.027   7.366   0.213
 5449SOL    HW222115   2.056   7.456   0.205
 5449SOL    HW322116   1.977   7.349   0.134
 5449SOL    MW422117   2.025   7.374   0.202
 5450SOL     OW22118   2.814   5.621   1.098
 5450SOL    HW222119   2.773   5.699   1.060
 5450SOL    HW322120   2.908   5.639   1.093
 5450SOL    MW422121   2.820   5.633   1.093
 5451SOL     OW22122   3.431   7.174   0.184
 5451SOL    HW222123   3.479   7.243   0.230
 5451SOL    HW322124   3.352   7.218   0.153
 5451SOL    MW422125   3.426   7.188   0.187
 5452SOL     OW22126   2.829   6.299   0.128
 5452SOL    HW222127   2.831   6.246   0.049
 5452SOL    HW322128   2.917   6.336   0.134
 5452SOL    MW422129   2.841   6.298   0.117
 5453SOL     OW22130   3.443   6.225   0.464
 5453SOL    HW222131   3.482   6.225   0.551
 5453SOL    HW322132   3.384   6.301   0.464
 5453SOL    MW422133   3.440   6.236   0.475
 5454SOL     OW22134   2.760   6.592   1.593
 5454SOL    HW222135   2.737   6.572   1.683
 5454SOL    HW322136   2.845   6.636   1.598
 5454SOL    MW422137   2.767   6.595   1.605
 5455SOL     OW22138   2.840   5.729   1.353
 5455SOL    HW222139   2.846   5.691   1.266
 5455SOL    HW322140   2.829   5.823   1.338
 5455SOL    MW422141   2.841   5.737   1.341
 5456SOL     OW22142   2.929   6.218   1.187
 5456SOL    HW222143   3.004   6.247   1.134
 5456SOL    HW322144   2.861   6.283   1.171
 5456SOL    MW422145   2.930   6.230   1.177
 5457SOL     OW22146   3.479   6.186   1.464
 5457SOL    HW222147   3.460   6.095   1.443
 5457SOL    HW322148   3.457   6.235   1.385
 5457SOL    MW422149   3.474   6.179   1.451
 5458SOL     OW22150   3.621   7.280   1.368
 5458SOL    HW222151   3.549   7.242   1.419
 5458SOL    HW322152   3.638   7.365   1.409
 5458SOL    MW422153   3.615   7.285   1.380
 5459SOL     OW22154   2.926   5.924   1.570
 5459SOL    HW222155   2.892   5.963   1.489
 5459SOL    HW322156   2.904   5.832   1.563
 5459SOL    MW422157   2.919   5.917   1.560
 5460SOL     OW22158   3.335   6.738   1.646
 5460SOL    HW222159   3.417   6.779   1.676
 5460SOL    HW322160   3.298   6.700   1.726
 5460SOL    MW422161   3.341   6.739   1.661
 5461SOL     OW22162   3.630   6.111   0.630
 5461SOL    HW222163   3.719   6.080   0.647
 5461SOL    HW322164   3.573   6.051   0.678
 5461SOL    MW422165   3.633   6.099   0.639
 5462SOL     OW22166   2.056   5.825   0.659
 5462SOL    HW222167   2.047   5.765   0.585
 5462SOL    HW322168   1.989   5.796   0.722
 5462SOL    MW422169   2.046   5.812   0.657
 5463SOL     OW22170   2.999   6.918   0.220
 5463SOL    HW222171   2.949   6.920   0.302
 5463SOL    HW322172   2.933   6.936   0.152
 5463SOL    MW422173   2.985   6.920   0.222
 5464SOL     OW22174   2.003   5.998   1.022
 5464SOL    HW222175   1.975   6.089   1.031
 5464SOL    HW322176   1.940   5.959   0.961
 5464SOL    MW422177   1.990   6.004   1.016
 5465SOL     OW22178   2.462   7.336   0.328
 5465SOL    HW222179   2.383   7.294   0.361
 5465SOL    HW322180   2.528   7.319   0.395
 5465SOL    MW422181   2.461   7.328   0.341
 5466SOL     OW22182   3.590   6.856   1.725
 5466SOL    HW222183   3.640   6.782   1.757
 5466SOL    HW322184   3.536   6.883   1.800
 5466SOL    MW422185   3.590   6.850   1.738
 5467SOL     OW22186   2.598   6.751   0.035
 5467SOL    HW222187   2.520   6.697   0.022
 5467SOL    HW322188   2.569   6.824   0.088
 5467SOL    MW422189   2.584   6.753   0.040
 5468SOL     OW22190   3.724   6.491   1.227
 5468SOL    HW222191   3.740   6.529   1.140
 5468SOL    HW322192   3.758   6.557   1.288
 5468SOL    MW422193   3.731   6.504   1.223
 5469SOL     OW22194   3.516   7.200   0.896
 5469SOL    HW222195   3.545   7.267   0.957
 5469SOL    HW322196   3.497   7.124   0.951
 5469SOL    MW422197   3.518   7.200   0.911
 5470SOL     OW22198   3.179   7.267   0.103
 5470SOL    HW222199   3.105   7.230   0.153
 5470SOL    HW322200   3.187   7.357   0.136
 5470SOL    MW422201   3.170   7.274   0.115
 5471SOL     OW22202   1.987   6.273   1.192
 5471SOL    HW222203   2.049   6.303   1.258
 5471SOL    HW322204   1.921   6.342   1.186
 5471SOL    MW422205   1.986   6.286   1.199
 5472SOL     OW22206   3.403   6.941   0.045
 5472SOL    HW222207   3.350   6.990  -0.019
 5472SOL    HW322208   3.434   7.007   0.106
 5472SOL    MW422209   3.401   6.955   0.043
 5473SOL     OW22210   2.628   5.830   0.100
 5473SOL    HW222211   2.576   5.750   0.088
 5473SOL    HW322212   2.715   5.807   0.068
 5473SOL    MW422213   2.631   5.816   0.094
 5474SOL     OW22214   2.082   7.382   1.644
 5474SOL    HW222215   2.056   7.450   1.582
 5474SOL    HW322216   2.130   7.319   1.592
 5474SOL    MW422217   2.084   7.382   1.630
 5475SOL     OW22218   2.134   6.701   1.151
 5475SOL    HW222219   2.187   6.776   1.176
 5475SOL    HW322220   2.053   6.739   1.117
 5475SOL    MW422221   2.130   6.716   1.151
 5476SOL     OW22222   2.674   6.605   1.139
 5476SOL    HW222223   2.702   6.514   1.151
 5476SOL    HW322224   2.603   6.599   1.075
 5476SOL    MW422225   2.667   6.593   1.134
 5477SOL     OW22226   1.989   6.470   0.557
 5477SOL    HW222227   2.080   6.485   0.584
 5477SOL    HW322228   1.992   6.391   0.503
 5477SOL    MW422229   2.001   6.462   0.555
 5478SOL     OW22230   2.225   6.178   1.811
 5478SOL    HW222231   2.172   6.258   1.818
 5478SOL    HW322232   2.295   6.190   1.876
 5478SOL    MW422233   2.227   6.191   1.819
 5479SOL     OW22234   2.611   5.728   1.518
 5479SOL    HW222235   2.588   5.636   1.520
 5479SOL    HW322236   2.697   5.730   1.475
 5479SOL    MW422237   2.618   5.718   1.514
 5480SOL     OW22238   2.295   6.252   1.557
 5480SOL    HW222239   2.375   6.302   1.543
 5480SOL    HW322240   2.286   6.246   1.652
 5480SOL    MW422241   2.304   6.258   1.567
 5481SOL     OW22242   2.616   7.402   0.931
 5481SOL    HW222243   2.705   7.417   0.961
 5481SOL    HW322244   2.611   7.449   0.847
 5481SOL    MW422245   2.626   7.410   0.924
 5482SOL     OW22246   3.272   5.777   1.828
 5482SOL    HW222247   3.328   5.704   1.854
 5482SOL    HW322248   3.242   5.815   1.910
 5482SOL    MW422249   3.276   5.772   1.841
 5483SOL     OW22250   1.997   7.082   0.596
 5483SOL    HW222251   1.969   7.121   0.678
 5483SOL    HW322252   2.017   6.991   0.618
 5483SOL    MW422253   1.995   7.074   0.609
 5484SOL     OW22254   2.830   7.125   0.631
 5484SOL    HW222255   2.913   7.079   0.615
 5484SOL    HW322256   2.820   7.124   0.727
 5484SOL    MW422257   2.840   7.118   0.641
 5485SOL     OW22258   3.662   6.270   0.945
 5485SOL    HW222259   3.751   6.300   0.927
 5485SOL    HW322260   3.642   6.210   0.874
 5485SOL    MW422261   3.671   6.267   0.934
 5486SOL     OW22262   3.513   6.449   1.825
 5486SOL    HW222263   3.568   6.373   1.806
 5486SOL    HW322264   3.515   6.457   1.920
 5486SOL    MW422265   3.521   6.440   1.833
 5487SOL     OW22266   2.563   7.182   0.036
 5487SOL    HW222267   2.503   7.251   0.006
 5487SOL    HW322268   2.508   7.124   0.089
 5487SOL    MW422269   2.547   7.184   0.038
 5488SOL     OW22270   3.001   5.827   0.259
 5488SOL    HW222271   2.934   5.803   0.196
 5488SOL    HW322272   3.066   5.876   0.208
 5488SOL    MW422273   3.001   5.829   0.244
 5489SOL     OW22274   2.808   6.011   1.344
 5489SOL    HW222275   2.727   6.052   1.372
 5489SOL    HW322276   2.855   6.079   1.296
 5489SOL    MW422277   2.803   6.026   1.342
 5490SOL     OW22278   3.068   6.349   0.967
 5490SOL    HW222279   3.081   6.443   0.977
 5490SOL    HW322280   3.029   6.339   0.881
 5490SOL    MW422281   3.064   6.360   0.957
 5491SOL     OW22282   2.520   6.544   0.771
 5491SOL    HW222283   2.431   6.535   0.804
 5491SOL    HW322284   2.524   6.634   0.739
 5491SOL    MW422285   2.509   6.555   0.771
 5492SOL     OW22286   3.319   6.127   0.766
 5492SOL    HW222287   3.264   6.048   0.765
 5492SOL    HW322288   3.301   6.168   0.850
 5492SOL    MW422289   3.309   6.122   0.775
 5493SOL     OW22290   2.290   5.814   1.583
 5493SOL    HW222291   2.211   5.832   1.635
 5493SOL    HW322292   2.285   5.876   1.510
 5493SOL    MW422293   2.280   5.824   1.580
 5494SOL     OW22294   2.938   6.331   0.723
 5494SOL    HW222295   2.875   6.263   0.747
 5494SOL    HW322296   2.958   6.312   0.631
 5494SOL    MW422297   2.932   6.318   0.715
 5495SOL     OW22298   2.194   7.226   0.425
 5495SOL    HW222299   2.155   7.273   0.351
 5495SOL    HW322300   2.128   7.161   0.450
 5495SOL    MW422301   2.181   7.224   0.419
 5496SOL     OW22302   2.686   6.635   0.449
 5496SOL    HW222303   2.688   6.609   0.356
 5496SOL    HW322304   2.744   6.572   0.492
 5496SOL    MW422305   2.694   6.624   0.443
 5497SOL     OW22306   3.239   7.195   1.221
 5497SOL    HW222307   3.164   7.241   1.259
 5497SOL    HW322308   3.221   7.102   1.238
 5497SOL    MW422309   3.228   7.189   1.229
 5498SOL     OW22310   3.243   7.403   0.651
 5498SOL    HW222311   3.186   7.356   0.590
 5498SOL    HW322312   3.329   7.364   0.638
 5498SOL    MW422313   3.246   7.394   0.641
 5499SOL     OW22314   3.196   5.879   0.782
 5499SOL    HW222315   3.224   5.811   0.843
 5499SOL    HW322316   3.110   5.850   0.752
 5499SOL    MW422317   3.189   5.866   0.786
 5500SOL     OW22318   2.001   6.813   0.716
 5500SOL    HW222319   2.065   6.845   0.779
 5500SOL    HW322320   2.050   6.749   0.664
 5500SOL    MW422321   2.016   6.809   0.717
 5501SOL     OW22322   2.501   6.889   1.698
 5501SOL    HW222323   2.549   6.972   1.685
 5501SOL    HW322324   2.558   6.837   1.754
 5501SOL    MW422325   2.515   6.893   1.704
 5502SOL     OW22326   2.077   7.131   1.838
 5502SOL    HW222327   2.133   7.055   1.853
 5502SOL    HW322328   2.026   7.109   1.760
 5502SOL    MW422329   2.077   7.118   1.829
 5503SOL     OW22330   3.176   5.983   0.117
 5503SOL    HW222331   3.149   6.049   0.053
 5503SOL    HW322332   3.246   6.026   0.167
 5503SOL    MW422333   3.181   5.996   0.114
 5504SOL     OW22334   2.844   5.688   0.054
 5504SOL    HW222335   2.900   5.680  -0.024
 5504SOL    HW322336   2.821   5.598   0.076
 5504SOL    MW422337   2.849   5.675   0.047
 5505SOL     OW22338   3.349   6.539   0.259
 5505SOL    HW222339   3.316   6.628   0.249
 5505SOL    HW322340   3.314   6.510   0.344
 5505SOL    MW422341   3.339   6.548   0.270
 5506SOL     OW22342   2.962   6.968   1.447
 5506SOL    HW222343   2.873   6.974   1.415
 5506SOL    HW322344   3.006   7.047   1.415
 5506SOL    MW422345   2.957   6.978   1.439
 5507SOL     OW22346   2.255   5.636   1.789
 5507SOL    HW222347   2.183   5.601   1.737
 5507SOL    HW322348   2.313   5.677   1.724
 5507SOL    MW422349   2.253   5.637   1.774
 5508SOL     OW22350   2.279   7.126   1.088
 5508SOL    HW222351   2.324   7.188   1.145
 5508SOL    HW322352   2.186   7.145   1.101
 5508SOL    MW422353   2.272   7.136   1.095
 5509SOL     OW22354   3.719   6.655   1.442
 5509SOL    HW222355   3.634   6.668   1.401
 5509SOL    HW322356   3.699   6.619   1.529
 5509SOL    MW422357   3.706   6.651   1.447
 5510SOL     OW22358   2.701   7.194   1.196
 5510SOL    HW222359   2.725   7.183   1.105
 5510SOL    HW322360   2.624   7.251   1.194
 5510SOL    MW422361   2.693   7.199   1.185
 5511SOL     OW22362   2.343   6.577   0.051
 5511SOL    HW222363   2.266   6.590   0.107
 5511SOL    HW322364   2.307   6.541  -0.030
 5511SOL    MW422365   2.329   6.573   0.048
 5512SOL     OW22366   2.996   6.550   0.294
 5512SOL    HW222367   2.906   6.571   0.269
 5512SOL    HW322368   3.023   6.623   0.350
 5512SOL    MW422369   2.988   6.562   0.297
 5513SOL     OW22370   2.496   6.899   0.986
 5513SOL    HW222371   2.489   6.878   1.080
 5513SOL    HW322372   2.414   6.867   0.949
 5513SOL    MW422373   2.484   6.893   0.993
 5514SOL     OW22374   3.360   5.909   1.388
 5514SOL    HW222375   3.307   5.911   1.468
 5514SOL    HW322376   3.345   5.822   1.351
 5514SOL    MW422377   3.352   5.899   1.393
 5515SOL     OW22378   3.696   5.833   1.261
 5515SOL    HW222379   3.677   5.900   1.196
 5515SOL    HW322380   3.753   5.771   1.216
 5515SOL    MW422381   3.700   5.834   1.247
 5516SOL     OW22382   1.942   6.991   1.649
 5516SOL    HW222383   1.986   6.924   1.595
 5516SOL    HW322384   1.857   6.953   1.669
 5516SOL    MW422385   1.937   6.977   1.645
 5517SOL     OW22386   2.625   5.666   0.701
 5517SOL    HW222387   2.554   5.727   0.683
 5517SOL    HW322388   2.676   5.663   0.620
 5517SOL    MW422389   2.621   5.672   0.688
 5518SOL     OW22390   2.383   6.906   0.450
 5518SOL    HW222391   2.376   6.938   0.540
 5518SOL    HW322392   2.293   6.890   0.422
 5518SOL    MW422393   2.371   6.908   0.457
 5519SOL     OW22394   2.978   7.299   1.359
 5519SOL    HW222395   2.898   7.284   1.309
 5519SOL    HW322396   2.985   7.394   1.366
 5519SOL    MW422397   2.969   7.310   1.353
 5520SOL     OW22398   3.092   7.264   0.849
 5520SOL    HW222399   3.139   7.337   0.808
 5520SOL    HW322400   3.013   7.303   0.885
 5520SOL    MW422401   3.087   7.279   0.848
 5521SOL     OW22402   3.500   7.359   1.124
 5521SOL    HW222403   3.543   7.329   1.204
 5521SOL    HW322404   3.419   7.307   1.121
 5521SOL    MW422405   3.495   7.348   1.134
 5522SOL     OW22406   2.585   6.323   1.831
 5522SOL    HW222407   2.655   6.265   1.803
 5522SOL    HW322408   2.528   6.268   1.886
 5522SOL    MW422409   2.587   6.310   1.835
 5523SOL     OW22410   3.372   6.535   1.464
 5523SOL    HW222411   3.377   6.588   1.544
 5523SOL    HW322412   3.334   6.452   1.492
 5523SOL    MW422413   3.368   6.530   1.479
 5524SOL     OW22414   3.012   5.670   1.710
 5524SOL    HW222415   3.007   5.577   1.691
 5524SOL    HW322416   3.095   5.681   1.756
 5524SOL    MW422417   3.020   5.659   1.714
 5525SOL     OW22418   2.386   6.190   0.164
 5525SOL    HW222419   2.352   6.246   0.234
 5525SOL    HW322420   2.457   6.140   0.204
 5525SOL    MW422421   2.392   6.191   0.178
 5526SOL     OW22422   3.482   6.941   0.986
 5526SOL    HW222423   3.517   6.923   0.899
 5526SOL    HW322424   3.387   6.942   0.973
 5526SOL    MW422425   3.474   6.938   0.973
 5527SOL     OW22426   2.911   6.589   1.355
 5527SOL    HW222427   2.954   6.624   1.433
 5527SOL    HW322428   2.894   6.666   1.301
 5527SOL    MW422429   2.914   6.604   1.358
 5528SOL     OW22430   3.442   6.076   0.228
 5528SOL    HW222431   3.434   6.147   0.165
 5528SOL    HW322432   3.460   6.120   0.311
 5528SOL    MW422433   3.443   6.090   0.230
 5529SOL     OW22434   2.302   5.731   0.657
 5529SOL    HW222435   2.352   5.774   0.588
 5529SOL    HW322436   2.217   5.775   0.657
 5529SOL    MW422437   2.299   5.744   0.648
 5530SOL     OW22438   2.061   6.793   1.517
 5530SOL    HW222439   2.089   6.746   1.595
 5530SOL    HW322440   1.982   6.748   1.488
 5530SOL    MW422441   2.054   6.782   1.523
 5531SOL     OW22442   2.569   6.120   1.484
 5531SOL    HW222443   2.541   6.208   1.508
 5531SOL    HW322444   2.538   6.064   1.555
 5531SOL    MW422445   2.561   6.123   1.496
 5532SOL     OW22446   3.111   6.338   0.203
 5532SOL    HW222447   3.158   6.356   0.122
 5532SOL    HW322448   3.077   6.422   0.231
 5532SOL    MW422449   3.113   6.352   0.196
 5533SOL     OW22450   2.224   6.516   0.697
 5533SOL    HW222451   2.282   6.572   0.645
 5533SOL    HW322452   2.268   6.431   0.699
 5533SOL    MW422453   2.237   6.513   0.690
 5534SOL     OW22454   3.364   5.868   0.534
 5534SOL    HW222455   3.286   5.818   0.559
 5534SOL    HW322456   3.335   5.959   0.534
 5534SOL    MW422457   3.350   5.872   0.537
 5535SOL     OW22458   2.950   5.830   0.693
 5535SOL    HW222459   2.970   5.905   0.637
 5535SOL    HW322460   2.930   5.869   0.778
 5535SOL    MW422461   2.951   5.846   0.697
 5536SOL     OW22462   2.846   7.080   0.025
 5536SOL    HW222463   2.873   7.158  -0.023
 5536SOL    HW322464   2.753   7.095   0.044
 5536SOL    MW422465   2.837   7.093   0.021
 5537SOL     OW22466   3.710   6.603   1.712
 5537SOL    HW222467   3.623   6.583   1.748
 5537SOL    HW322468   3.764   6.529   1.737
 5537SOL    MW422469   3.705   6.592   1.720
 5538SOL     OW22470   1.931   7.116   0.869
 5538SOL    HW222471   1.963   7.120   0.960
 5538SOL    HW322472   1.836   7.124   0.877
 5538SOL    MW422473   1.923   7.119   0.882
 5539SOL     OW22474   1.886   6.242   0.416
 5539SOL    HW222475   1.826   6.214   0.486
 5539SOL    HW322476   1.960   6.182   0.422
 5539SOL    MW422477   1.888   6.231   0.425
 5540SOL     OW22478   3.054   6.973   0.576
 5540SOL    HW222479   3.077   6.924   0.654
 5540SOL    HW322480   3.135   7.015   0.548
 5540SOL    MW422481   3.067   6.973   0.583
 5541SOL     OW22482   2.312   5.981   1.305
 5541SOL    HW222483   2.345   6.062   1.345
 5541SOL    HW322484   2.285   6.007   1.217
 5541SOL    MW422485   2.311   5.995   1.299
 5542SOL     OW22486   2.266   5.948   1.041
 5542SOL    HW222487   2.296   5.862   1.012
 5542SOL    HW322488   2.171   5.941   1.044
 5542SOL    MW422489   2.258   5.937   1.039
 5543SOL     OW22490   3.095   6.157   1.732
 5543SOL    HW222491   3.147   6.092   1.685
 5543SOL    HW322492   3.053   6.208   1.662
 5543SOL    MW422493   3.096   6.154   1.715
 5544SOL     OW22494   3.194   5.952   1.593
 5544SOL    HW222495   3.101   5.936   1.580
 5544SOL    HW322496   3.220   5.890   1.661
 5544SOL    MW422497   3.184   5.942   1.600
 5545SOL     OW22498   2.409   5.726   0.932
 5545SOL    HW222499   2.419   5.635   0.958
 5545SOL    HW322500   2.365   5.722   0.847
 5545SOL    MW422501   2.405   5.714   0.924
 5546SOL     OW22502   2.503   7.341   1.478
 5546SOL    HW222503   2.420   7.326   1.523
 5546SOL    HW322504   2.562   7.274   1.513
 5546SOL    MW422505   2.501   7.331   1.488
 5547SOL     OW22506   3.560   6.048   1.103
 5547SOL    HW222507   3.493   6.081   1.163
 5547SOL    HW322508   3.603   6.126   1.069
 5547SOL    MW422509   3.558   6.063   1.107
 5548SOL     OW22510   3.738   6.768   1.073
 5548SOL    HW222511   3.731   6.708   0.998
 5548SOL    HW322512   3.664   6.828   1.062
 5548SOL    MW422513   3.728   6.768   1.062
 5549SOL     OW22514   3.120   6.630   0.991
 5549SOL    HW222515   3.134   6.602   1.082
 5549SOL    HW322516   3.206   6.661   0.963
 5549SOL    MW422517   3.133   6.631   1.000
 5550SOL     OW22518   3.203   6.125   1.270
 5550SOL    HW222519   3.224   6.126   1.177
 5550SOL    HW322520   3.248   6.047   1.303
 5550SOL    MW422521   3.210   6.115   1.262
 5551SOL     OW22522   3.696   6.256   1.812
 5551SOL    HW222523   3.733   6.201   1.881
 5551SOL    HW322524   3.721   6.213   1.730
 5551SOL    MW422525   3.703   6.244   1.811
 5552SOL     OW22526   3.243   6.554   1.863
 5552SOL    HW222527   3.309   6.502   1.817
 5552SOL    HW322528   3.263   6.541   1.956
 5552SOL    MW422529   3.254   6.545   1.870
 5553SOL     OW22530   3.194   5.640   0.212
 5553SOL    HW222531   3.268   5.684   0.255
 5553SOL    HW322532   3.118   5.694   0.234
 5553SOL    MW422533   3.194   5.652   0.220
 5554SOL     OW22534   3.254   6.415   0.490
 5554SOL    HW222535   3.169   6.385   0.460
 5554SOL    HW322536   3.246   6.422   0.585
 5554SOL    MW422537   3.242   6.413   0.499
 5555SOL     OW22538   2.330   6.878   1.221
 5555SOL    HW222539   2.342   6.905   1.312
 5555SOL    HW322540   2.311   6.959   1.174
 5555SOL    MW422541   2.329   6.893   1.226
 5556SOL     OW22542   2.614   5.858   1.044
 5556SOL    HW222543   2.587   5.860   1.135
 5556SOL    HW322544   2.544   5.810   0.999
 5556SOL    MW422545   2.602   5.854   1.051
 5557SOL     OW22546   2.468   7.350   1.206
 5557SOL    HW222547   2.520   7.427   1.183
 5557SOL    HW322548   2.477   7.342   1.301
 5557SOL    MW422549   2.477   7.357   1.217
 5558SOL     OW22550   3.370   6.935   1.438
 5558SOL    HW222551   3.355   6.864   1.501
 5558SOL    HW322552   3.416   6.893   1.366
 5558SOL    MW422553   3.376   6.919   1.438
 5559SOL     OW22554   2.444   6.666   1.555
 5559SOL    HW222555   2.481   6.671   1.467
 5559SOL    HW322556   2.483   6.739   1.602
 5559SOL    MW422557   2.454   6.676   1.550
 5560SOL     OW22558   2.624   6.709   1.367
 5560SOL    HW222559   2.683   6.655   1.420
 5560SOL    HW322560   2.639   6.681   1.277
 5560SOL    MW422561   2.634   6.698   1.363
 5561SOL     OW22562   2.627   6.081   0.216
 5561SOL    HW222563   2.700   6.130   0.179
 5561SOL    HW322564   2.643   5.990   0.190
 5561SOL    MW422565   2.639   6.076   0.209
 5562SOL     OW22566   3.435   7.198   1.539
 5562SOL    HW222567   3.477   7.183   1.624
 5562SOL    HW322568   3.426   7.111   1.501
 5562SOL    MW422569   3.439   7.186   1.546
 5563SOL     OW22570   3.095   5.677   1.130
 5563SOL    HW222571   3.150   5.686   1.052
 5563SOL    HW322572   3.150   5.711   1.201
 5563SOL    MW422573   3.109   5.682   1.129
 5564SOL     OW22574   2.102   6.590   0.314
 5564SOL    HW222575   2.039   6.606   0.243
 5564SOL    HW322576   2.049   6.553   0.385
 5564SOL    MW422577   2.087   6.587   0.314
 5565SOL     OW22578   2.458   6.944   0.173
 5565SOL    HW222579   2.473   6.920   0.265
 5565SOL    HW322580   2.366   6.922   0.157
 5565SOL    MW422581   2.448   6.937   0.183
 5566SOL     OW22582   2.997   7.175   0.325
 5566SOL    HW222583   3.005   7.093   0.276
 5566SOL    HW322584   2.916   7.214   0.292
 5566SOL    MW422585   2.987   7.170   0.315
 5567SOL     OW22586   2.256   7.333   0.894
 5567SOL    HW222587   2.260   7.244   0.929
 5567SOL    HW322588   2.282   7.324   0.803
 5567SOL    MW422589   2.259   7.321   0.886
 5568SOL     OW22590   2.873   6.811   1.137
 5568SOL    HW222591   2.805   6.745   1.153
 5568SOL    HW322592   2.891   6.805   1.044
 5568SOL    MW422593   2.866   6.802   1.128
 5569SOL     OW22594   1.962   7.086   1.388
 5569SOL    HW222595   1.952   7.044   1.474
 5569SOL    HW322596   1.883   7.139   1.378
 5569SOL    MW422597   1.951   7.087   1.399
 5570SOL     OW22598   2.866   5.950   0.958
 5570SOL    HW222599   2.796   5.902   1.003
 5570SOL    HW322600   2.898   6.013   1.022
 5570SOL    MW422601   2.861   5.952   0.972
 5571SOL     OW22602   2.517   6.386   1.578
 5571SOL    HW222603   2.510   6.481   1.566
 5571SOL    HW322604   2.526   6.375   1.673
 5571SOL    MW422605   2.518   6.398   1.588
 5572SOL     OW22606   2.238   6.901   1.836
 5572SOL    HW222607   2.310   6.903   1.773
 5572SOL    HW322608   2.208   6.810   1.835
 5572SOL    MW422609   2.243   6.890   1.828
 5573SOL     OW22610   3.322   5.664   1.303
 5573SOL    HW222611   3.393   5.610   1.267
 5573SOL    HW322612   3.321   5.643   1.396
 5573SOL    MW422613   3.331   5.655   1.311
 5574SOL     OW22614   3.522   7.194   1.787
 5574SOL    HW222615   3.495   7.191   1.878
 5574SOL    HW322616   3.618   7.198   1.790
 5574SOL    MW422617   3.532   7.194   1.799
 5575SOL     OW22618   2.333   6.056   0.771
 5575SOL    HW222619   2.404   6.004   0.734
 5575SOL    HW322620   2.319   6.021   0.858
 5575SOL    MW422621   2.341   6.045   0.778
 5576SOL     OW22622   1.888   7.391   1.843
 5576SOL    HW222623   1.938   7.369   1.765
 5576SOL    HW322624   1.896   7.486   1.851
 5576SOL    MW422625   1.896   7.400   1.834
 5577SOL     OW22626   2.649   7.149   0.847
 5577SOL    HW222627   2.577   7.086   0.860
 5577SOL    HW322628   2.610   7.234   0.865
 5577SOL    MW422629   2.633   7.152   0.850
 5578SOL     OW22630   2.969   5.997   0.495
 5578SOL    HW222631   2.991   5.934   0.427
 5578SOL    HW322632   2.874   5.989   0.506
 5578SOL    MW422633   2.959   5.988   0.487
 5579SOL     OW22634   2.054   5.687   0.427
 5579SOL    HW222635   2.125   5.708   0.366
 5579SOL    HW322636   2.008   5.615   0.385
 5579SOL    MW422637   2.058   5.681   0.413
 5580SOL     OW22638   1.885   6.154   1.570
 5580SOL    HW222639   1.949   6.220   1.545
 5580SOL    HW322640   1.804   6.181   1.527
 5580SOL    MW422641   1.883   6.166   1.562
 5581SOL     OW22642   3.623   7.061   0.527
 5581SOL    HW222643   3.593   6.994   0.588
 5581SOL    HW322644   3.717   7.067   0.541
 5581SOL    MW422645   3.631   7.053   0.537
 5582SOL     OW22646   3.179   6.738   0.457
 5582SOL    HW222647   3.151   6.824   0.490
 5582SOL    HW322648   3.207   6.754   0.367
 5582SOL    MW422649   3.179   6.752   0.449
 5583SOL     OW22650   2.841   5.658   0.510
 5583SOL    HW222651   2.878   5.717   0.575
 5583SOL    HW322652   2.818   5.714   0.436
 5583SOL    MW422653   2.842   5.673   0.509
 5584SOL     OW22654   3.694   6.540   0.932
 5584SOL    HW222655   3.685   6.572   0.843
 5584SOL    HW322656   3.647   6.456   0.932
 5584SOL    MW422657   3.687   6.533   0.922
 5585SOL     OW22658   2.070   6.380   1.511
 5585SOL    HW222659   2.091   6.449   1.449
 5585SOL    HW322660   2.150   6.327   1.516
 5585SOL    MW422661   2.083   6.381   1.505
 5586SOL     OW22662   3.606   6.471   0.633
 5586SOL    HW222663   3.700   6.460   0.621
 5586SOL    HW322664   3.582   6.543   0.574
 5586SOL    MW422665   3.616   6.479   0.624
 5587SOL     OW22666   2.055   6.395   1.778
 5587SOL    HW222667   1.981   6.339   1.804
 5587SOL    HW322668   2.050   6.398   1.683
 5587SOL    MW422669   2.044   6.388   1.768
 5588SOL     OW22670   2.221   5.682   1.228
 5588SOL    HW222671   2.264   5.766   1.248
 5588SOL    HW322672   2.294   5.620   1.221
 5588SOL    MW422673   2.236   5.685   1.229
 5589SOL     OW22674   2.262   6.349   0.406
 5589SOL    HW222675   2.262   6.444   0.391
 5589SOL    HW322676   2.339   6.333   0.460
 5589SOL    MW422677   2.272   6.360   0.411
 5590SOL     OW22678   3.038   6.208   1.470
 5590SOL    HW222679   3.074   6.181   1.386
 5590SOL    HW322680   2.951   6.242   1.449
 5590SOL    MW422681   3.032   6.209   1.457
 5591SOL     OW22682   2.021   6.080   0.695
 5591SOL    HW222683   2.083   6.087   0.768
 5591SOL    HW322684   2.021   5.987   0.672
 5591SOL    MW422685   2.029   6.069   0.702
 5592SOL     OW22686   2.703   6.341   1.179
 5592SOL    HW222687   2.661   6.259   1.155
 5592SOL    HW322688   2.704   6.340   1.275
 5592SOL    MW422689   2.696   6.330   1.188
 5593SOL     OW22690   2.507   5.811   1.284
 5593SOL    HW222691   2.438   5.874   1.305
 5593SOL    HW322692   2.534   5.775   1.369
 5593SOL    MW422693   2.501   5.814   1.297
 5594SOL     OW22694   1.890   6.652   0.153
 5594SOL    HW222695   1.859   6.717   0.216
 5594SOL    HW322696   1.839   6.574   0.172
 5594SOL    MW422697   1.880   6.649   0.163
 5595SOL     OW22698   3.302   5.664   0.901
 5595SOL    HW222699   3.390   5.673   0.938
 5595SOL    HW322700   3.312   5.605   0.827
 5595SOL    MW422701   3.316   5.658   0.895
 5596SOL     OW22702   3.334   6.403   0.745
 5596SOL    HW222703   3.414   6.418   0.694
 5596SOL    HW322704   3.327   6.308   0.751
 5596SOL    MW422705   3.343   6.392   0.740
 5597SOL     OW22706   2.474   7.452   0.095
 5597SOL    HW222707   2.379   7.452   0.087
 5597SOL    HW322708   2.490   7.398   0.173
 5597SOL    MW422709   2.464   7.446   0.104
 5598SOL     OW22710   2.784   6.329   1.442
 5598SOL    HW222711   2.853   6.396   1.439
 5598SOL    HW322712   2.717   6.367   1.498
 5598SOL    MW422713   2.785   6.342   1.449
 5599SOL     OW22714   2.202   6.629   1.690
 5599SOL    HW222715   2.156   6.545   1.692
 5599SOL    HW322716   2.259   6.623   1.614
 5599SOL    MW422717   2.204   6.617   1.682
 5600SOL     OW22718   3.319   6.272   0.011
 5600SOL    HW222719   3.247   6.248  -0.047
 5600SOL    HW322720   3.385   6.309  -0.047
 5600SOL    MW422721   3.318   6.274  -0.004
 5601SOL     OW22722   2.453   7.004   0.691
 5601SOL    HW222723   2.518   6.937   0.712
 5601SOL    HW322724   2.505   7.081   0.668
 5601SOL    MW422725   2.468   7.006   0.690
 5602SOL     OW22726   2.714   6.169   0.821
 5602SOL    HW222727   2.654   6.187   0.893
 5602SOL    HW322728   2.748   6.081   0.840
 5602SOL    MW422729   2.710   6.159   0.834
 5603SOL     OW22730   3.655   5.668   1.490
 5603SOL    HW222731   3.576   5.714   1.518
 5603SOL    HW322732   3.690   5.722   1.419
 5603SOL    MW422733   3.649   5.681   1.484
 5604SOL     OW22734   2.939   6.752   0.840
 5604SOL    HW222735   3.031   6.733   0.858
 5604SOL    HW322736   2.912   6.682   0.780
 5604SOL    MW422737   2.947   6.740   0.834
 5605SOL     OW22738   2.732   6.572   0.195
 5605SOL    HW222739   2.718   6.484   0.160
 5605SOL    HW322740   2.683   6.629   0.136
 5605SOL    MW422741   2.724   6.567   0.183
 5606SOL     OW22742   3.213   6.990   0.936
 5606SOL    HW222743   3.186   7.074   0.901
 5606SOL    HW322744   3.173   6.985   1.023
 5606SOL    MW422745   3.206   6.999   0.942
 5607SOL     OW22746   3.132   6.938   1.204
 5607SOL    HW222747   3.143   6.905   1.293
 5607SOL    HW322748   3.051   6.897   1.173
 5607SOL    MW422749   3.122   6.930   1.210
 5608SOL     OW22750   2.145   6.296   0.974
 5608SOL    HW222751   2.095   6.295   1.055
 5608SOL    HW322752   2.165   6.388   0.958
 5608SOL    MW422753   2.141   6.308   0.982
 5609SOL     OW22754   3.212   7.060   1.736
 5609SOL    HW222755   3.212   7.154   1.752
 5609SOL    HW322756   3.257   7.050   1.652
 5609SOL    MW422757   3.218   7.070   1.727
 5610SOL     OW22758   3.451   5.778   0.297
 5610SOL    HW222759   3.444   5.782   0.392
 5610SOL    HW322760   3.463   5.869   0.270
 5610SOL    MW422761   3.452   5.791   0.305
 5611SOL     OW22762   2.740   6.341   0.411
 5611SOL    HW222763   2.720   6.327   0.318
 5611SOL    HW322764   2.833   6.320   0.418
 5611SOL    MW422765   2.750   6.336   0.400
 5612SOL     OW22766   2.067   5.964   1.715
 5612SOL    HW222767   2.024   6.023   1.652
 5612SOL    HW322768   2.135   6.019   1.755
 5612SOL    MW422769   2.071   5.979   1.712
 5613SOL     OW22770   3.179   6.584   1.260
 5613SOL    HW222771   3.242   6.581   1.333
 5613SOL    HW322772   3.095   6.602   1.302
 5613SOL    MW422773   3.175   6.586   1.275
 5614SOL     OW22774   2.723   7.299   0.449
 5614SOL    HW222775   2.781   7.370   0.476
 5614SOL    HW322776   2.746   7.227   0.507
 5614SOL    MW422777   2.734   7.299   0.460
 5615SOL     OW22778   3.518   5.761   1.039
 5615SOL    HW222779   3.563   5.679   1.058
 5615SOL    HW322780   3.538   5.817   1.115
 5615SOL    MW422781   3.528   5.757   1.051
 5616SOL     OW22782   1.966   5.604   1.138
 5616SOL    HW222783   1.957   5.605   1.043
 5616SOL    HW322784   2.060   5.616   1.153
 5616SOL    MW422785   1.978   5.607   1.129
 5617SOL     OW22786   3.603   6.797   0.758
 5617SOL    HW222787   3.582   6.743   0.681
 5617SOL    HW322788   3.699   6.795   0.762
 5617SOL    MW422789   3.612   6.790   0.747
 5618SOL     OW22790   2.295   6.942   1.501
 5618SOL    HW222791   2.216   6.892   1.524
 5618SOL    HW322792   2.365   6.901   1.551
 5618SOL    MW422793   2.293   6.930   1.511
 5619SOL     OW22794   2.179   5.731   0.184
 5619SOL    HW222795   2.108   5.786   0.152
 5619SOL    HW322796   2.221   5.697   0.105
 5619SOL    MW422797   2.175   5.733   0.170
 5620SOL     OW22798   3.303   6.228   1.020
 5620SOL    HW222799   3.226   6.274   0.986
 5620SOL    HW322800   3.360   6.297   1.054
 5620SOL    MW422801   3.300   6.243   1.020
 5621SOL     OW22802   1.935   5.830   0.033
 5621SOL    HW222803   1.902   5.909   0.077
 5621SOL    HW322804   1.990   5.863  -0.038
 5621SOL    MW422805   1.938   5.844   0.030
 5622SOL     OW22806   1.969   7.087   0.222
 5622SOL    HW222807   1.986   7.171   0.264
 5622SOL    HW322808   2.004   7.096   0.134
 5622SOL    MW422809   1.974   7.100   0.216
 5623SOL     OW22810   3.241   7.176   0.439
 5623SOL    HW222811   3.304   7.166   0.368
 5623SOL    HW322812   3.158   7.196   0.394
 5623SOL    MW422813   3.238   7.177   0.424
 5624SOL     OW22814   3.604   6.444   2.125
 5624SOL    HW222815   3.645   6.386   2.190
 5624SOL    HW322816   3.511   6.436   2.142
 5624SOL    MW422817   3.598   6.436   2.135
 5625SOL     OW22818   3.470   6.376   3.120
 5625SOL    HW222819   3.425   6.443   3.171
 5625SOL    HW322820   3.558   6.412   3.106
 5625SOL    MW422821   3.476   6.389   3.124
 5626SOL     OW22822   2.398   6.627   2.354
 5626SOL    HW222823   2.488   6.602   2.338
 5626SOL    HW322824   2.394   6.720   2.331
 5626SOL    MW422825   2.410   6.636   2.349
 5627SOL     OW22826   3.514   7.330   2.496
 5627SOL    HW222827   3.526   7.276   2.574
 5627SOL    HW322828   3.551   7.278   2.425
 5627SOL    MW422829   3.520   7.315   2.497
 5628SOL     OW22830   2.893   7.215   3.497
 5628SOL    HW222831   2.934   7.251   3.418
 5628SOL    HW322832   2.928   7.126   3.504
 5628SOL    MW422833   2.904   7.208   3.488
 5629SOL     OW22834   3.450   6.770   3.101
 5629SOL    HW222835   3.371   6.735   3.059
 5629SOL    HW322836   3.477   6.842   3.045
 5629SOL    MW422837   3.443   6.775   3.088
 5630SOL     OW22838   2.682   6.083   2.367
 5630SOL    HW222839   2.657   6.171   2.395
 5630SOL    HW322840   2.679   6.086   2.271
 5630SOL    MW422841   2.678   6.095   2.359
 5631SOL     OW22842   2.124   6.111   2.295
 5631SOL    HW222843   2.156   6.199   2.277
 5631SOL    HW322844   2.112   6.109   2.390
 5631SOL    MW422845   2.127   6.123   2.307
 5632SOL     OW22846   2.202   6.524   3.196
 5632SOL    HW222847   2.265   6.471   3.147
 5632SOL    HW322848   2.183   6.598   3.139
 5632SOL    MW422849   2.208   6.526   3.183
 5633SOL     OW22850   2.523   5.866   2.382
 5633SOL    HW222851   2.581   5.942   2.384
 5633SOL    HW322852   2.458   5.887   2.315
 5633SOL    MW422853   2.522   5.878   2.373
 5634SOL     OW22854   2.610   6.793   2.557
 5634SOL    HW222855   2.690   6.796   2.609
 5634SOL    HW322856   2.638   6.760   2.471
 5634SOL    MW422857   2.624   6.789   2.552
 5635SOL     OW22858   2.635   7.134   3.460
 5635SOL    HW222859   2.719   7.160   3.499
 5635SOL    HW322860   2.659   7.078   3.386
 5635SOL    MW422861   2.649   7.130   3.455
 5636SOL     OW22862   2.387   6.297   2.548
 5636SOL    HW222863   2.372   6.217   2.599
 5636SOL    HW322864   2.469   6.332   2.582
 5636SOL    MW422865   2.395   6.289   2.560
 5637SOL     OW22866   2.724   6.983   3.233
 5637SOL    HW222867   2.688   7.049   3.173
 5637SOL    HW322868   2.652   6.921   3.246
 5637SOL    MW422869   2.710   6.983   3.227
 5638SOL     OW22870   2.529   6.123   2.925
 5638SOL    HW222871   2.435   6.119   2.943
 5638SOL    HW322872   2.559   6.032   2.934
 5638SOL    MW422873   2.520   6.111   2.928
 5639SOL     OW22874   2.275   6.537   2.829
 5639SOL    HW222875   2.230   6.544   2.745
 5639SOL    HW322876   2.255   6.620   2.873
 5639SOL    MW422877   2.267   6.549   2.823
 5640SOL     OW22878   1.972   7.383   2.704
 5640SOL    HW222879   2.061   7.375   2.739
 5640SOL    HW322880   1.936   7.295   2.709
 5640SOL    MW422881   1.979   7.370   2.709
 5641SOL     OW22882   3.237   6.775   2.073
 5641SOL    HW222883   3.155   6.811   2.039
 5641SOL    HW322884   3.305   6.818   2.022
 5641SOL    MW422885   3.235   6.785   2.061
 5642SOL     OW22886   2.236   6.910   2.739
 5642SOL    HW222887   2.212   6.963   2.815
 5642SOL    HW322888   2.292   6.968   2.687
 5642SOL    MW422889   2.240   6.925   2.742
 5643SOL     OW22890   2.798   6.554   2.549
 5643SOL    HW222891   2.712   6.541   2.589
 5643SOL    HW322892   2.851   6.481   2.581
 5643SOL    MW422893   2.794   6.543   2.558
 5644SOL     OW22894   2.206   7.206   3.334
 5644SOL    HW222895   2.114   7.182   3.319
 5644SOL    HW322896   2.250   7.123   3.351
 5644SOL    MW422897   2.200   7.191   3.333
 5645SOL     OW22898   2.789   6.916   2.266
 5645SOL    HW222899   2.766   6.978   2.334
 5645SOL    HW322900   2.746   6.834   2.292
 5645SOL    MW422901   2.781   6.912   2.277
 5646SOL     OW22902   2.286   5.889   2.234
 5646SOL    HW222903   2.260   5.851   2.150
 5646SOL    HW322904   2.223   5.959   2.250
 5646SOL    MW422905   2.275   5.892   2.225
 5647SOL     OW22906   2.121   6.850   2.271
 5647SOL    HW222907   2.069   6.918   2.227
 5647SOL    HW322908   2.118   6.776   2.211
 5647SOL    MW422909   2.113   6.849   2.258
 5648SOL     OW22910   2.783   7.313   2.049
 5648SOL    HW222911   2.738   7.329   2.132
 5648SOL    HW322912   2.714   7.278   1.991
 5648SOL    MW422913   2.769   7.310   2.051
 5649SOL     OW22914   3.718   6.086   2.024
 5649SOL    HW222915   3.627   6.088   2.052
 5649SOL    HW322916   3.763   6.148   2.082
 5649SOL    MW422917   3.711   6.094   2.034
 5650SOL     OW22918   3.463   6.689   2.374
 5650SOL    HW222919   3.373   6.689   2.409
 5650SOL    HW322920   3.456   6.735   2.291
 5650SOL    MW422921   3.450   6.695   2.368
 5651SOL     OW22922   3.263   6.324   3.446
 5651SOL    HW222923   3.332   6.262   3.423
 5651SOL    HW322924   3.188   6.298   3.393
 5651SOL    MW422925   3.263   6.311   3.437
 5652SOL     OW22926   2.004   7.204   2.998
 5652SOL    HW222927   1.987   7.150   3.075
 5652SOL    HW322928   1.992   7.294   3.028
 5652SOL    MW422929   2.001   7.208   3.012
 5653SOL     OW22930   2.999   6.711   3.438
 5653SOL    HW222931   2.984   6.804   3.423
 5653SOL    HW322932   3.094   6.701   3.438
 5653SOL    MW422933   3.008   6.721   3.435
 5654SOL     OW22934   2.795   6.135   3.639
 5654SOL    HW222935   2.885   6.136   3.606
 5654SOL    HW322936   2.754   6.060   3.597
 5654SOL    MW422937   2.801   6.125   3.630
 5655SOL     OW22938   3.370   6.667   2.766
 5655SOL    HW222939   3.373   6.601   2.697
 5655SOL    HW322940   3.455   6.710   2.762
 5655SOL    MW422941   3.382   6.663   2.757
 5656SOL     OW22942   2.990   6.270   2.335
 5656SOL    HW222943   3.016   6.294   2.246
 5656SOL    HW322944   2.972   6.177   2.331
 5656SOL    MW422945   2.992   6.262   2.322
 5657SOL     OW22946   3.655   6.890   2.186
 5657SOL    HW222947   3.611   6.931   2.261
 5657SOL    HW322948   3.712   6.958   2.151
 5657SOL    MW422949   3.657   6.904   2.191
 5658SOL     OW22950   2.575   5.939   3.589
 5658SOL    HW222951   2.585   5.865   3.529
 5658SOL    HW322952   2.611   5.908   3.672
 5658SOL    MW422953   2.581   5.925   3.591
 5659SOL     OW22954   2.311   7.306   2.504
 5659SOL    HW222955   2.343   7.394   2.482
 5659SOL    HW322956   2.264   7.278   2.426
 5659SOL    MW422957   2.310   7.314   2.491
 5660SOL     OW22958   2.027   7.366   2.081
 5660SOL    HW222959   2.056   7.456   2.073
 5660SOL    HW322960   1.977   7.349   2.002
 5660SOL    MW422961   2.025   7.374   2.070
 5661SOL     OW22962   2.814   5.621   2.966
 5661SOL    HW222963   2.773   5.699   2.928
 5661SOL    HW322964   2.908   5.639   2.961
 5661SOL    MW422965   2.820   5.633   2.961
 5662SOL     OW22966   3.431   7.174   2.052
 5662SOL    HW222967   3.479   7.243   2.098
 5662SOL    HW322968   3.352   7.218   2.021
 5662SOL    MW422969   3.426   7.188   2.055
 5663SOL     OW22970   2.829   6.299   1.996
 5663SOL    HW222971   2.831   6.246   1.917
 5663SOL    HW322972   2.917   6.336   2.002
 5663SOL    MW422973   2.841   6.298   1.985
 5664SOL     OW22974   3.443   6.225   2.332
 5664SOL    HW222975   3.482   6.225   2.419
 5664SOL    HW322976   3.384   6.301   2.332
 5664SOL    MW422977   3.440   6.236   2.343
 5665SOL     OW22978   2.760   6.592   3.461
 5665SOL    HW222979   2.737   6.572   3.551
 5665SOL    HW322980   2.845   6.636   3.466
 5665SOL    MW422981   2.767   6.595   3.473
 5666SOL     OW22982   2.840   5.729   3.221
 5666SOL    HW222983   2.846   5.691   3.134
 5666SOL    HW322984   2.829   5.823   3.206
 5666SOL    MW422985   2.841   5.737   3.209
 5667SOL     OW22986   2.929   6.218   3.055
 5667SOL    HW222987   3.004   6.247   3.002
 5667SOL    HW322988   2.861   6.283   3.039
 5667SOL    MW422989   2.930   6.230   3.045
 5668SOL     OW22990   3.479   6.186   3.332
 5668SOL    HW222991   3.460   6.095   3.311
 5668SOL    HW322992   3.457   6.235   3.253
 5668SOL    MW422993   3.474   6.179   3.319
 5669SOL     OW22994   3.621   7.280   3.236
 5669SOL    HW222995   3.549   7.242   3.287
 5669SOL    HW322996   3.638   7.365   3.277
 5669SOL    MW422997   3.615   7.285   3.248
 5670SOL     OW22998   2.926   5.924   3.438
 5670SOL    HW222999   2.892   5.963   3.357
 5670SOL    HW323000   2.904   5.832   3.431
 5670SOL    MW423001   2.919   5.917   3.428
 5671SOL     OW23002   3.335   6.738   3.514
 5671SOL    HW223003   3.417   6.779   3.544
 5671SOL    HW323004   3.298   6.700   3.594
 5671SOL    MW423005   3.341   6.739   3.529
 5672SOL     OW23006   3.630   6.111   2.498
 5672SOL    HW223007   3.719   6.080   2.515
 5672SOL    HW323008   3.573   6.051   2.546
 5672SOL    MW423009   3.633   6.099   2.507
 5673SOL     OW23010   2.056   5.825   2.527
 5673SOL    HW223011   2.047   5.765   2.453
 5673SOL    HW323012   1.989   5.796   2.590
 5673SOL    MW423013   2.046   5.812   2.525
 5674SOL     OW23014   2.999   6.918   2.088
 5674SOL    HW223015   2.949   6.920   2.170
 5674SOL    HW323016   2.933   6.936   2.020
 5674SOL    MW423017   2.985   6.920   2.090
 5675SOL     OW23018   2.003   5.998   2.890
 5675SOL    HW223019   1.975   6.089   2.899
 5675SOL    HW323020   1.940   5.959   2.829
 5675SOL    MW423021   1.990   6.004   2.884
 5676SOL     OW23022   2.462   7.336   2.196
 5676SOL    HW223023   2.383   7.294   2.229
 5676SOL    HW323024   2.528   7.319   2.263
 5676SOL    MW423025   2.461   7.328   2.209
 5677SOL     OW23026   3.590   6.856   3.593
 5677SOL    HW223027   3.640   6.782   3.625
 5677SOL    HW323028   3.536   6.883   3.668
 5677SOL    MW423029   3.590   6.850   3.606
 5678SOL     OW23030   2.598   6.751   1.903
 5678SOL    HW223031   2.520   6.697   1.890
 5678SOL    HW323032   2.569   6.824   1.956
 5678SOL    MW423033   2.584   6.753   1.908
 5679SOL     OW23034   3.724   6.491   3.095
 5679SOL    HW223035   3.740   6.529   3.008
 5679SOL    HW323036   3.758   6.557   3.156
 5679SOL    MW423037   3.731   6.504   3.091
 5680SOL     OW23038   3.516   7.200   2.764
 5680SOL    HW223039   3.545   7.267   2.825
 5680SOL    HW323040   3.497   7.124   2.819
 5680SOL    MW423041   3.518   7.200   2.779
 5681SOL     OW23042   3.179   7.267   1.971
 5681SOL    HW223043   3.105   7.230   2.021
 5681SOL    HW323044   3.187   7.357   2.004
 5681SOL    MW423045   3.170   7.274   1.983
 5682SOL     OW23046   1.987   6.273   3.060
 5682SOL    HW223047   2.049   6.303   3.126
 5682SOL    HW323048   1.921   6.342   3.054
 5682SOL    MW423049   1.986   6.286   3.067
 5683SOL     OW23050   3.403   6.941   1.913
 5683SOL    HW223051   3.350   6.990   1.849
 5683SOL    HW323052   3.434   7.007   1.974
 5683SOL    MW423053   3.401   6.955   1.911
 5684SOL     OW23054   2.628   5.830   1.968
 5684SOL    HW223055   2.576   5.750   1.956
 5684SOL    HW323056   2.715   5.807   1.936
 5684SOL    MW423057   2.631   5.816   1.962
 5685SOL     OW23058   2.082   7.382   3.512
 5685SOL    HW223059   2.056   7.450   3.450
 5685SOL    HW323060   2.130   7.319   3.460
 5685SOL    MW423061   2.084   7.382   3.498
 5686SOL     OW23062   2.134   6.701   3.019
 5686SOL    HW223063   2.187   6.776   3.044
 5686SOL    HW323064   2.053   6.739   2.985
 5686SOL    MW423065   2.130   6.716   3.019
 5687SOL     OW23066   2.674   6.605   3.007
 5687SOL    HW223067   2.702   6.514   3.019
 5687SOL    HW323068   2.603   6.599   2.943
 5687SOL    MW423069   2.667   6.593   3.002
 5688SOL     OW23070   1.989   6.470   2.425
 5688SOL    HW223071   2.080   6.485   2.452
 5688SOL    HW323072   1.992   6.391   2.371
 5688SOL    MW423073   2.001   6.462   2.423
 5689SOL     OW23074   2.225   6.178   3.679
 5689SOL    HW223075   2.172   6.258   3.686
 5689SOL    HW323076   2.295   6.190   3.744
 5689SOL    MW423077   2.227   6.191   3.687
 5690SOL     OW23078   2.611   5.728   3.386
 5690SOL    HW223079   2.588   5.636   3.388
 5690SOL    HW323080   2.697   5.730   3.343
 5690SOL    MW423081   2.618   5.718   3.382
 5691SOL     OW23082   2.295   6.252   3.425
 5691SOL    HW223083   2.375   6.302   3.411
 5691SOL    HW323084   2.286   6.246   3.520
 5691SOL    MW423085   2.304   6.258   3.435
 5692SOL     OW23086   2.616   7.402   2.799
 5692SOL    HW223087   2.705   7.417   2.829
 5692SOL    HW323088   2.611   7.449   2.715
 5692SOL    MW423089   2.626   7.410   2.792
 5693SOL     OW23090   1.997   7.082   2.464
 5693SOL    HW223091   1.969   7.121   2.546
 5693SOL    HW323092   2.017   6.991   2.486
 5693SOL    MW423093   1.995   7.074   2.477
 5694SOL     OW23094   2.830   7.125   2.499
 5694SOL    HW223095   2.913   7.079   2.483
 5694SOL    HW323096   2.820   7.124   2.595
 5694SOL    MW423097   2.840   7.118   2.509
 5695SOL     OW23098   3.662   6.270   2.813
 5695SOL    HW223099   3.751   6.300   2.795
 5695SOL    HW323100   3.642   6.210   2.742
 5695SOL    MW423101   3.671   6.267   2.802
 5696SOL     OW23102   3.513   6.449   3.693
 5696SOL    HW223103   3.568   6.373   3.674
 5696SOL    HW323104   3.515   6.457   3.788
 5696SOL    MW423105   3.521   6.440   3.701
 5697SOL     OW23106   2.563   7.182   1.904
 5697SOL    HW223107   2.503   7.251   1.874
 5697SOL    HW323108   2.508   7.124   1.957
 5697SOL    MW423109   2.547   7.184   1.906
 5698SOL     OW23110   3.001   5.827   2.127
 5698SOL    HW223111   2.934   5.803   2.064
 5698SOL    HW323112   3.066   5.876   2.076
 5698SOL    MW423113   3.001   5.829   2.112
 5699SOL     OW23114   2.808   6.011   3.212
 5699SOL    HW223115   2.727   6.052   3.240
 5699SOL    HW323116   2.855   6.079   3.164
 5699SOL    MW423117   2.803   6.026   3.210
 5700SOL     OW23118   3.068   6.349   2.835
 5700SOL    HW223119   3.081   6.443   2.845
 5700SOL    HW323120   3.029   6.339   2.749
 5700SOL    MW423121   3.064   6.360   2.825
 5701SOL     OW23122   2.520   6.544   2.639
 5701SOL    HW223123   2.431   6.535   2.672
 5701SOL    HW323124   2.524   6.634   2.607
 5701SOL    MW423125   2.509   6.555   2.639
 5702SOL     OW23126   3.319   6.127   2.634
 5702SOL    HW223127   3.264   6.048   2.633
 5702SOL    HW323128   3.301   6.168   2.718
 5702SOL    MW423129   3.309   6.122   2.643
 5703SOL     OW23130   2.290   5.814   3.451
 5703SOL    HW223131   2.211   5.832   3.503
 5703SOL    HW323132   2.285   5.876   3.378
 5703SOL    MW423133   2.280   5.824   3.448
 5704SOL     OW23134   2.938   6.331   2.591
 5704SOL    HW223135   2.875   6.263   2.615
 5704SOL    HW323136   2.958   6.312   2.499
 5704SOL    MW423137   2.932   6.318   2.583
 5705SOL     OW23138   2.194   7.226   2.293
 5705SOL    HW223139   2.155   7.273   2.219
 5705SOL    HW323140   2.128   7.161   2.318
 5705SOL    MW423141   2.181   7.224   2.287
 5706SOL     OW23142   2.686   6.635   2.317
 5706SOL    HW223143   2.688   6.609   2.224
 5706SOL    HW323144   2.744   6.572   2.360
 5706SOL    MW423145   2.694   6.624   2.311
 5707SOL     OW23146   3.239   7.195   3.089
 5707SOL    HW223147   3.164   7.241   3.127
 5707SOL    HW323148   3.221   7.102   3.106
 5707SOL    MW423149   3.228   7.189   3.097
 5708SOL     OW23150   3.243   7.403   2.519
 5708SOL    HW223151   3.186   7.356   2.458
 5708SOL    HW323152   3.329   7.364   2.506
 5708SOL    MW423153   3.246   7.394   2.509
 5709SOL     OW23154   3.196   5.879   2.650
 5709SOL    HW223155   3.224   5.811   2.711
 5709SOL    HW323156   3.110   5.850   2.620
 5709SOL    MW423157   3.189   5.866   2.654
 5710SOL     OW23158   2.001   6.813   2.584
 5710SOL    HW223159   2.065   6.845   2.647
 5710SOL    HW323160   2.050   6.749   2.532
 5710SOL    MW423161   2.016   6.809   2.585
 5711SOL     OW23162   2.501   6.889   3.566
 5711SOL    HW223163   2.549   6.972   3.553
 5711SOL    HW323164   2.558   6.837   3.622
 5711SOL    MW423165   2.515   6.893   3.572
 5712SOL     OW23166   2.077   7.131   3.706
 5712SOL    HW223167   2.133   7.055   3.721
 5712SOL    HW323168   2.026   7.109   3.628
 5712SOL    MW423169   2.077   7.118   3.697
 5713SOL     OW23170   3.176   5.983   1.985
 5713SOL    HW223171   3.149   6.049   1.921
 5713SOL    HW323172   3.246   6.026   2.035
 5713SOL    MW423173   3.181   5.996   1.982
 5714SOL     OW23174   2.844   5.688   1.922
 5714SOL    HW223175   2.900   5.680   1.844
 5714SOL    HW323176   2.821   5.598   1.944
 5714SOL    MW423177   2.849   5.675   1.915
 5715SOL     OW23178   3.349   6.539   2.127
 5715SOL    HW223179   3.316   6.628   2.117
 5715SOL    HW323180   3.314   6.510   2.212
 5715SOL    MW423181   3.339   6.548   2.138
 5716SOL     OW23182   2.962   6.968   3.315
 5716SOL    HW223183   2.873   6.974   3.283
 5716SOL    HW323184   3.006   7.047   3.283
 5716SOL    MW423185   2.957   6.978   3.307
 5717SOL     OW23186   2.255   5.636   3.657
 5717SOL    HW223187   2.183   5.601   3.605
 5717SOL    HW323188   2.313   5.677   3.592
 5717SOL    MW423189   2.253   5.637   3.642
 5718SOL     OW23190   2.279   7.126   2.956
 5718SOL    HW223191   2.324   7.188   3.013
 5718SOL    HW323192   2.186   7.145   2.969
 5718SOL    MW423193   2.272   7.136   2.963
 5719SOL     OW23194   3.719   6.655   3.310
 5719SOL    HW223195   3.634   6.668   3.269
 5719SOL    HW323196   3.699   6.619   3.397
 5719SOL    MW423197   3.706   6.651   3.315
 5720SOL     OW23198   2.701   7.194   3.064
 5720SOL    HW223199   2.725   7.183   2.973
 5720SOL    HW323200   2.624   7.251   3.062
 5720SOL    MW423201   2.693   7.199   3.053
 5721SOL     OW23202   2.343   6.577   1.919
 5721SOL    HW223203   2.266   6.590   1.975
 5721SOL    HW323204   2.307   6.541   1.838
 5721SOL    MW423205   2.329   6.573   1.916
 5722SOL     OW23206   2.996   6.550   2.162
 5722SOL    HW223207   2.906   6.571   2.137
 5722SOL    HW323208   3.023   6.623   2.218
 5722SOL    MW423209   2.988   6.562   2.165
 5723SOL     OW23210   2.496   6.899   2.854
 5723SOL    HW223211   2.489   6.878   2.948
 5723SOL    HW323212   2.414   6.867   2.817
 5723SOL    MW423213   2.484   6.893   2.861
 5724SOL     OW23214   3.360   5.909   3.256
 5724SOL    HW223215   3.307   5.911   3.336
 5724SOL    HW323216   3.345   5.822   3.219
 5724SOL    MW423217   3.352   5.899   3.261
 5725SOL     OW23218   1.942   6.991   3.517
 5725SOL    HW223219   1.986   6.924   3.463
 5725SOL    HW323220   1.857   6.953   3.537
 5725SOL    MW423221   1.937   6.977   3.513
 5726SOL     OW23222   2.625   5.666   2.569
 5726SOL    HW223223   2.554   5.727   2.551
 5726SOL    HW323224   2.676   5.663   2.488
 5726SOL    MW423225   2.621   5.672   2.556
 5727SOL     OW23226   2.383   6.906   2.318
 5727SOL    HW223227   2.376   6.938   2.408
 5727SOL    HW323228   2.293   6.890   2.290
 5727SOL    MW423229   2.371   6.908   2.325
 5728SOL     OW23230   2.978   7.299   3.227
 5728SOL    HW223231   2.898   7.284   3.177
 5728SOL    HW323232   2.985   7.394   3.234
 5728SOL    MW423233   2.969   7.310   3.221
 5729SOL     OW23234   3.092   7.264   2.717
 5729SOL    HW223235   3.139   7.337   2.676
 5729SOL    HW323236   3.013   7.303   2.753
 5729SOL    MW423237   3.087   7.279   2.716
 5730SOL     OW23238   3.500   7.359   2.992
 5730SOL    HW223239   3.543   7.329   3.072
 5730SOL    HW323240   3.419   7.307   2.989
 5730SOL    MW423241   3.495   7.348   3.002
 5731SOL     OW23242   2.585   6.323   3.699
 5731SOL    HW223243   2.655   6.265   3.671
 5731SOL    HW323244   2.528   6.268   3.754
 5731SOL    MW423245   2.587   6.310   3.703
 5732SOL     OW23246   3.372   6.535   3.332
 5732SOL    HW223247   3.377   6.588   3.412
 5732SOL    HW323248   3.334   6.452   3.360
 5732SOL    MW423249   3.368   6.530   3.347
 5733SOL     OW23250   3.012   5.670   3.578
 5733SOL    HW223251   3.007   5.577   3.559
 5733SOL    HW323252   3.095   5.681   3.624
 5733SOL    MW423253   3.020   5.659   3.582
 5734SOL     OW23254   2.386   6.190   2.032
 5734SOL    HW223255   2.352   6.246   2.102
 5734SOL    HW323256   2.457   6.140   2.072
 5734SOL    MW423257   2.392   6.191   2.046
 5735SOL     OW23258   3.482   6.941   2.854
 5735SOL    HW223259   3.517   6.923   2.767
 5735SOL    HW323260   3.387   6.942   2.841
 5735SOL    MW423261   3.474   6.938   2.841
 5736SOL     OW23262   2.911   6.589   3.223
 5736SOL    HW223263   2.954   6.624   3.301
 5736SOL    HW323264   2.894   6.666   3.169
 5736SOL    MW423265   2.914   6.604   3.226
 5737SOL     OW23266   3.442   6.076   2.096
 5737SOL    HW223267   3.434   6.147   2.033
 5737SOL    HW323268   3.460   6.120   2.179
 5737SOL    MW423269   3.443   6.090   2.098
 5738SOL     OW23270   2.302   5.731   2.525
 5738SOL    HW223271   2.352   5.774   2.456
 5738SOL    HW323272   2.217   5.775   2.525
 5738SOL    MW423273   2.299   5.744   2.516
 5739SOL     OW23274   2.061   6.793   3.385
 5739SOL    HW223275   2.089   6.746   3.463
 5739SOL    HW323276   1.982   6.748   3.356
 5739SOL    MW423277   2.054   6.782   3.391
 5740SOL     OW23278   2.569   6.120   3.352
 5740SOL    HW223279   2.541   6.208   3.376
 5740SOL    HW323280   2.538   6.064   3.423
 5740SOL    MW423281   2.561   6.123   3.364
 5741SOL     OW23282   3.111   6.338   2.071
 5741SOL    HW223283   3.158   6.356   1.990
 5741SOL    HW323284   3.077   6.422   2.099
 5741SOL    MW423285   3.113   6.352   2.064
 5742SOL     OW23286   2.224   6.516   2.565
 5742SOL    HW223287   2.282   6.572   2.513
 5742SOL    HW323288   2.268   6.431   2.567
 5742SOL    MW423289   2.237   6.513   2.558
 5743SOL     OW23290   3.364   5.868   2.402
 5743SOL    HW223291   3.286   5.818   2.427
 5743SOL    HW323292   3.335   5.959   2.402
 5743SOL    MW423293   3.350   5.872   2.405
 5744SOL     OW23294   2.950   5.830   2.561
 5744SOL    HW223295   2.970   5.905   2.505
 5744SOL    HW323296   2.930   5.869   2.646
 5744SOL    MW423297   2.951   5.846   2.565
 5745SOL     OW23298   2.846   7.080   1.893
 5745SOL    HW223299   2.873   7.158   1.845
 5745SOL    HW323300   2.753   7.095   1.912
 5745SOL    MW423301   2.837   7.093   1.889
 5746SOL     OW23302   3.710   6.603   3.580
 5746SOL    HW223303   3.623   6.583   3.616
 5746SOL    HW323304   3.764   6.529   3.605
 5746SOL    MW423305   3.705   6.592   3.588
 5747SOL     OW23306   1.931   7.116   2.737
 5747SOL    HW223307   1.963   7.120   2.828
 5747SOL    HW323308   1.836   7.124   2.745
 5747SOL    MW423309   1.923   7.119   2.750
 5748SOL     OW23310   1.886   6.242   2.284
 5748SOL    HW223311   1.826   6.214   2.354
 5748SOL    HW323312   1.960   6.182   2.290
 5748SOL    MW423313   1.888   6.231   2.293
 5749SOL     OW23314   3.054   6.973   2.444
 5749SOL    HW223315   3.077   6.924   2.522
 5749SOL    HW323316   3.135   7.015   2.416
 5749SOL    MW423317   3.067   6.973   2.451
 5750SOL     OW23318   2.312   5.981   3.173
 5750SOL    HW223319   2.345   6.062   3.213
 5750SOL    HW323320   2.285   6.007   3.085
 5750SOL    MW423321   2.311   5.995   3.167
 5751SOL     OW23322   2.266   5.948   2.909
 5751SOL    HW223323   2.296   5.862   2.880
 5751SOL    HW323324   2.171   5.941   2.912
 5751SOL    MW423325   2.258   5.937   2.907
 5752SOL     OW23326   3.095   6.157   3.600
 5752SOL    HW223327   3.147   6.092   3.553
 5752SOL    HW323328   3.053   6.208   3.530
 5752SOL    MW423329   3.096   6.154   3.583
 5753SOL     OW23330   3.194   5.952   3.461
 5753SOL    HW223331   3.101   5.936   3.448
 5753SOL    HW323332   3.220   5.890   3.529
 5753SOL    MW423333   3.184   5.942   3.468
 5754SOL     OW23334   2.409   5.726   2.800
 5754SOL    HW223335   2.419   5.635   2.826
 5754SOL    HW323336   2.365   5.722   2.715
 5754SOL    MW423337   2.405   5.714   2.792
 5755SOL     OW23338   2.503   7.341   3.346
 5755SOL    HW223339   2.420   7.326   3.391
 5755SOL    HW323340   2.562   7.274   3.381
 5755SOL    MW423341   2.501   7.331   3.356
 5756SOL     OW23342   3.560   6.048   2.971
 5756SOL    HW223343   3.493   6.081   3.031
 5756SOL    HW323344   3.603   6.126   2.937
 5756SOL    MW423345   3.558   6.063   2.975
 5757SOL     OW23346   3.738   6.768   2.941
 5757SOL    HW223347   3.731   6.708   2.866
 5757SOL    HW323348   3.664   6.828   2.930
 5757SOL    MW423349   3.728   6.768   2.930
 5758SOL     OW23350   3.120   6.630   2.859
 5758SOL    HW223351   3.134   6.602   2.950
 5758SOL    HW323352   3.206   6.661   2.831
 5758SOL    MW423353   3.133   6.631   2.868
 5759SOL     OW23354   3.203   6.125   3.138
 5759SOL    HW223355   3.224   6.126   3.045
 5759SOL    HW323356   3.248   6.047   3.171
 5759SOL    MW423357   3.210   6.115   3.130
 5760SOL     OW23358   3.696   6.256   3.680
 5760SOL    HW223359   3.733   6.201   3.749
 5760SOL    HW323360   3.721   6.213   3.598
 5760SOL    MW423361   3.703   6.244   3.679
 5761SOL     OW23362   3.243   6.554   3.731
 5761SOL    HW223363   3.309   6.502   3.685
 5761SOL    HW323364   3.263   6.541   3.824
 5761SOL    MW423365   3.254   6.545   3.738
 5762SOL     OW23366   3.194   5.640   2.080
 5762SOL    HW223367   3.268   5.684   2.123
 5762SOL    HW323368   3.118   5.694   2.102
 5762SOL    MW423369   3.194   5.652   2.088
 5763SOL     OW23370   3.254   6.415   2.358
 5763SOL    HW223371   3.169   6.385   2.328
 5763SOL    HW323372   3.246   6.422   2.453
 5763SOL    MW423373   3.242   6.413   2.367
 5764SOL     OW23374   2.330   6.878   3.089
 5764SOL    HW223375   2.342   6.905   3.180
 5764SOL    HW323376   2.311   6.959   3.042
 5764SOL    MW423377   2.329   6.893   3.094
 5765SOL     OW23378   2.614   5.858   2.912
 5765SOL    HW223379   2.587   5.860   3.003
 5765SOL    HW323380   2.544   5.810   2.867
 5765SOL    MW423381   2.602   5.854   2.919
 5766SOL     OW23382   2.468   7.350   3.074
 5766SOL    HW223383   2.520   7.427   3.051
 5766SOL    HW323384   2.477   7.342   3.169
 5766SOL    MW423385   2.477   7.357   3.085
 5767SOL     OW23386   3.370   6.935   3.306
 5767SOL    HW223387   3.355   6.864   3.369
 5767SOL    HW323388   3.416   6.893   3.234
 5767SOL    MW423389   3.376   6.919   3.306
 5768SOL     OW23390   2.444   6.666   3.423
 5768SOL    HW223391   2.481   6.671   3.335
 5768SOL    HW323392   2.483   6.739   3.470
 5768SOL    MW423393   2.454   6.676   3.418
 5769SOL     OW23394   2.624   6.709   3.235
 5769SOL    HW223395   2.683   6.655   3.288
 5769SOL    HW323396   2.639   6.681   3.145
 5769SOL    MW423397   2.634   6.698   3.231
 5770SOL     OW23398   2.627   6.081   2.084
 5770SOL    HW223399   2.700   6.130   2.047
 5770SOL    HW323400   2.643   5.990   2.058
 5770SOL    MW423401   2.639   6.076   2.077
 5771SOL     OW23402   3.435   7.198   3.407
 5771SOL    HW223403   3.477   7.183   3.492
 5771SOL    HW323404   3.426   7.111   3.369
 5771SOL    MW423405   3.439   7.186   3.414
 5772SOL     OW23406   3.095   5.677   2.998
 5772SOL    HW223407   3.150   5.686   2.920
 5772SOL    HW323408   3.150   5.711   3.069
 5772SOL    MW423409   3.109   5.682   2.997
 5773SOL     OW23410   2.102   6.590   2.182
 5773SOL    HW223411   2.039   6.606   2.111
 5773SOL    HW323412   2.049   6.553   2.253
 5773SOL    MW423413   2.087   6.587   2.182
 5774SOL     OW23414   2.458   6.944   2.041
 5774SOL    HW223415   2.473   6.920   2.133
 5774SOL    HW323416   2.366   6.922   2.025
 5774SOL    MW423417   2.448   6.937   2.051
 5775SOL     OW23418   2.997   7.175   2.193
 5775SOL    HW223419   3.005   7.093   2.144
 5775SOL    HW323420   2.916   7.214   2.160
 5775SOL    MW423421   2.987   7.170   2.183
 5776SOL     OW23422   2.256   7.333   2.762
 5776SOL    HW223423   2.260   7.244   2.797
 5776SOL    HW323424   2.282   7.324   2.671
 5776SOL    MW423425   2.259   7.321   2.754
 5777SOL     OW23426   2.873   6.811   3.005
 5777SOL    HW223427   2.805   6.745   3.021
 5777SOL    HW323428   2.891   6.805   2.912
 5777SOL    MW423429   2.866   6.802   2.996
 5778SOL     OW23430   1.962   7.086   3.256
 5778SOL    HW223431   1.952   7.044   3.342
 5778SOL    HW323432   1.883   7.139   3.246
 5778SOL    MW423433   1.951   7.087   3.267
 5779SOL     OW23434   2.866   5.950   2.826
 5779SOL    HW223435   2.796   5.902   2.871
 5779SOL    HW323436   2.898   6.013   2.890
 5779SOL    MW423437   2.861   5.952   2.840
 5780SOL     OW23438   2.517   6.386   3.446
 5780SOL    HW223439   2.510   6.481   3.434
 5780SOL    HW323440   2.526   6.375   3.541
 5780SOL    MW423441   2.518   6.398   3.456
 5781SOL     OW23442   2.238   6.901   3.704
 5781SOL    HW223443   2.310   6.903   3.641
 5781SOL    HW323444   2.208   6.810   3.703
 5781SOL    MW423445   2.243   6.890   3.696
 5782SOL     OW23446   3.322   5.664   3.171
 5782SOL    HW223447   3.393   5.610   3.135
 5782SOL    HW323448   3.321   5.643   3.264
 5782SOL    MW423449   3.331   5.655   3.179
 5783SOL     OW23450   3.522   7.194   3.655
 5783SOL    HW223451   3.495   7.191   3.746
 5783SOL    HW323452   3.618   7.198   3.658
 5783SOL    MW423453   3.532   7.194   3.667
 5784SOL     OW23454   2.333   6.056   2.639
 5784SOL    HW223455   2.404   6.004   2.602
 5784SOL    HW323456   2.319   6.021   2.726
 5784SOL    MW423457   2.341   6.045   2.646
 5785SOL     OW23458   1.888   7.391   3.711
 5785SOL    HW223459   1.938   7.369   3.633
 5785SOL    HW323460   1.896   7.486   3.719
 5785SOL    MW423461   1.896   7.400   3.702
 5786SOL     OW23462   2.649   7.149   2.715
 5786SOL    HW223463   2.577   7.086   2.728
 5786SOL    HW323464   2.610   7.234   2.733
 5786SOL    MW423465   2.633   7.152   2.718
 5787SOL     OW23466   2.969   5.997   2.363
 5787SOL    HW223467   2.991   5.934   2.295
 5787SOL    HW323468   2.874   5.989   2.374
 5787SOL    MW423469   2.959   5.988   2.355
 5788SOL     OW23470   2.054   5.687   2.295
 5788SOL    HW223471   2.125   5.708   2.234
 5788SOL    HW323472   2.008   5.615   2.253
 5788SOL    MW423473   2.058   5.681   2.281
 5789SOL     OW23474   1.885   6.154   3.438
 5789SOL    HW223475   1.949   6.220   3.413
 5789SOL    HW323476   1.804   6.181   3.395
 5789SOL    MW423477   1.883   6.166   3.430
 5790SOL     OW23478   3.623   7.061   2.395
 5790SOL    HW223479   3.593   6.994   2.456
 5790SOL    HW323480   3.717   7.067   2.409
 5790SOL    MW423481   3.631   7.053   2.405
 5791SOL     OW23482   3.179   6.738   2.325
 5791SOL    HW223483   3.151   6.824   2.358
 5791SOL    HW323484   3.207   6.754   2.235
 5791SOL    MW423485   3.179   6.752   2.317
 5792SOL     OW23486   2.841   5.658   2.378
 5792SOL    HW223487   2.878   5.717   2.443
 5792SOL    HW323488   2.818   5.714   2.304
 5792SOL    MW423489   2.842   5.673   2.377
 5793SOL     OW23490   3.694   6.540   2.800
 5793SOL    HW223491   3.685   6.572   2.711
 5793SOL    HW323492   3.647   6.456   2.800
 5793SOL    MW423493   3.687   6.533   2.790
 5794SOL     OW23494   2.070   6.380   3.379
 5794SOL    HW223495   2.091   6.449   3.317
 5794SOL    HW323496   2.150   6.327   3.384
 5794SOL    MW423497   2.083   6.381   3.373
 5795SOL     OW23498   3.606   6.471   2.501
 5795SOL    HW223499   3.700   6.460   2.489
 5795SOL    HW323500   3.582   6.543   2.442
 5795SOL    MW423501   3.616   6.479   2.492
 5796SOL     OW23502   2.055   6.395   3.646
 5796SOL    HW223503   1.981   6.339   3.672
 5796SOL    HW323504   2.050   6.398   3.551
 5796SOL    MW423505   2.044   6.388   3.636
 5797SOL     OW23506   2.221   5.682   3.096
 5797SOL    HW223507   2.264   5.766   3.116
 5797SOL    HW323508   2.294   5.620   3.089
 5797SOL    MW423509   2.236   5.685   3.097
 5798SOL     OW23510   2.262   6.349   2.274
 5798SOL    HW223511   2.262   6.444   2.259
 5798SOL    HW323512   2.339   6.333   2.328
 5798SOL    MW423513   2.272   6.360   2.279
 5799SOL     OW23514   3.038   6.208   3.338
 5799SOL    HW223515   3.074   6.181   3.254
 5799SOL    HW323516   2.951   6.242   3.317
 5799SOL    MW423517   3.032   6.209   3.325
 5800SOL     OW23518   2.021   6.080   2.563
 5800SOL    HW223519   2.083   6.087   2.636
 5800SOL    HW323520   2.021   5.987   2.540
 5800SOL    MW423521   2.029   6.069   2.570
 5801SOL     OW23522   2.703   6.341   3.047
 5801SOL    HW223523   2.661   6.259   3.023
 5801SOL    HW323524   2.704   6.340   3.143
 5801SOL    MW423525   2.696   6.330   3.056
 5802SOL     OW23526   2.507   5.811   3.152
 5802SOL    HW223527   2.438   5.874   3.173
 5802SOL    HW323528   2.534   5.775   3.237
 5802SOL    MW423529   2.501   5.814   3.165
 5803SOL     OW23530   1.890   6.652   2.021
 5803SOL    HW223531   1.859   6.717   2.084
 5803SOL    HW323532   1.839   6.574   2.040
 5803SOL    MW423533   1.880   6.649   2.031
 5804SOL     OW23534   3.302   5.664   2.769
 5804SOL    HW223535   3.390   5.673   2.806
 5804SOL    HW323536   3.312   5.605   2.695
 5804SOL    MW423537   3.316   5.658   2.763
 5805SOL     OW23538   3.334   6.403   2.613
 5805SOL    HW223539   3.414   6.418   2.562
 5805SOL    HW323540   3.327   6.308   2.619
 5805SOL    MW423541   3.343   6.392   2.608
 5806SOL     OW23542   2.474   7.452   1.963
 5806SOL    HW223543   2.379   7.452   1.955
 5806SOL    HW323544   2.490   7.398   2.041
 5806SOL    MW423545   2.464   7.446   1.972
 5807SOL     OW23546   2.784   6.329   3.310
 5807SOL    HW223547   2.853   6.396   3.307
 5807SOL    HW323548   2.717   6.367   3.366
 5807SOL    MW423549   2.785   6.342   3.317
 5808SOL     OW23550   2.202   6.629   3.558
 5808SOL    HW223551   2.156   6.545   3.560
 5808SOL    HW323552   2.259   6.623   3.482
 5808SOL    MW423553   2.204   6.617   3.550
 5809SOL     OW23554   3.319   6.272   1.879
 5809SOL    HW223555   3.247   6.248   1.821
 5809SOL    HW323556   3.385   6.309   1.821
 5809SOL    MW423557   3.318   6.274   1.864
 5810SOL     OW23558   2.453   7.004   2.559
 5810SOL    HW223559   2.518   6.937   2.580
 5810SOL    HW323560   2.505   7.081   2.536
 5810SOL    MW423561   2.468   7.006   2.558
 5811SOL     OW23562   2.714   6.169   2.689
 5811SOL    HW223563   2.654   6.187   2.761
 5811SOL    HW323564   2.748   6.081   2.708
 5811SOL    MW423565   2.710   6.159   2.702
 5812SOL     OW23566   2.939   6.752   2.708
 5812SOL    HW223567   3.031   6.733   2.726
 5812SOL    HW323568   2.912   6.682   2.648
 5812SOL    MW423569   2.947   6.740   2.702
 5813SOL     OW23570   2.732   6.572   2.063
 5813SOL    HW223571   2.718   6.484   2.028
 5813SOL    HW323572   2.683   6.629   2.004
 5813SOL    MW423573   2.724   6.567   2.051
 5814SOL     OW23574   3.213   6.990   2.804
 5814SOL    HW223575   3.186   7.074   2.769
 5814SOL    HW323576   3.173   6.985   2.891
 5814SOL    MW423577   3.206   6.999   2.810
 5815SOL     OW23578   3.132   6.938   3.072
 5815SOL    HW223579   3.143   6.905   3.161
 5815SOL    HW323580   3.051   6.897   3.041
 5815SOL    MW423581   3.122   6.930   3.078
 5816SOL     OW23582   2.145   6.296   2.842
 5816SOL    HW223583   2.095   6.295   2.923
 5816SOL    HW323584   2.165   6.388   2.826
 5816SOL    MW423585   2.141   6.308   2.850
 5817SOL     OW23586   3.212   7.060   3.604
 5817SOL    HW223587   3.212   7.154   3.620
 5817SOL    HW323588   3.257   7.050   3.520
 5817SOL    MW423589   3.218   7.070   3.595
 5818SOL     OW23590   3.451   5.778   2.165
 5818SOL    HW223591   3.444   5.782   2.260
 5818SOL    HW323592   3.463   5.869   2.138
 5818SOL    MW423593   3.452   5.791   2.173
 5819SOL     OW23594   2.740   6.341   2.279
 5819SOL    HW223595   2.720   6.327   2.186
 5819SOL    HW323596   2.833   6.320   2.286
 5819SOL    MW423597   2.750   6.336   2.268
 5820SOL     OW23598   2.067   5.964   3.583
 5820SOL    HW223599   2.024   6.023   3.520
 5820SOL    HW323600   2.135   6.019   3.623
 5820SOL    MW423601   2.071   5.979   3.580
 5821SOL     OW23602   3.179   6.584   3.128
 5821SOL    HW223603   3.242   6.581   3.201
 5821SOL    HW323604   3.095   6.602   3.170
 5821SOL    MW423605   3.175   6.586   3.143
 5822SOL     OW23606   2.723   7.299   2.317
 5822SOL    HW223607   2.781   7.370   2.344
 5822SOL    HW323608   2.746   7.227   2.375
 5822SOL    MW423609   2.734   7.299   2.328
 5823SOL     OW23610   1.966   5.604   3.006
 5823SOL    HW223611   1.957   5.605   2.911
 5823SOL    HW323612   2.060   5.616   3.021
 5823SOL    MW423613   1.978   5.607   2.997
 5824SOL     OW23614   3.603   6.797   2.626
 5824SOL    HW223615   3.582   6.743   2.549
 5824SOL    HW323616   3.699   6.795   2.630
 5824SOL    MW423617   3.612   6.790   2.615
 5825SOL     OW23618   2.295   6.942   3.369
 5825SOL    HW223619   2.216   6.892   3.392
 5825SOL    HW323620   2.365   6.901   3.419
 5825SOL    MW423621   2.293   6.930   3.379
 5826SOL     OW23622   2.179   5.731   2.052
 5826SOL    HW223623   2.108   5.786   2.020
 5826SOL    HW323624   2.221   5.697   1.973
 5826SOL    MW423625   2.175   5.733   2.038
 5827SOL     OW23626   3.303   6.228   2.888
 5827SOL    HW223627   3.226   6.274   2.854
 5827SOL    HW323628   3.360   6.297   2.922
 5827SOL    MW423629   3.300   6.243   2.888
 5828SOL     OW23630   1.935   5.830   1.901
 5828SOL    HW223631   1.902   5.909   1.945
 5828SOL    HW323632   1.990   5.863   1.830
 5828SOL    MW423633   1.938   5.844   1.898
 5829SOL     OW23634   1.969   7.087   2.090
 5829SOL    HW223635   1.986   7.171   2.132
 5829SOL    HW323636   2.004   7.096   2.002
 5829SOL    MW423637   1.974   7.100   2.084
 5830SOL     OW23638   3.241   7.176   2.307
 5830SOL    HW223639   3.304   7.166   2.236
 5830SOL    HW323640   3.158   7.196   2.262
 5830SOL    MW423641   3.238   7.177   2.292
 5831SOL     OW23642   3.604   6.444   3.993
 5831SOL    HW223643   3.645   6.386   4.058
 5831SOL    HW323644   3.511   6.436   4.010
 5831SOL    MW423645   3.598   6.436   4.003
 5832SOL     OW23646   2.398   6.627   4.222
 5832SOL    HW223647   2.488   6.602   4.206
 5832SOL    HW323648   2.394   6.720   4.199
 5832SOL    MW423649   2.410   6.636   4.217
 5833SOL     OW23650   3.514   7.330   4.364
 5833SOL    HW223651   3.526   7.276   4.442
 5833SOL    HW323652   3.551   7.278   4.293
 5833SOL    MW423653   3.520   7.315   4.365
 5834SOL     OW23654   2.893   7.215   5.365
 5834SOL    HW223655   2.934   7.251   5.286
 5834SOL    HW323656   2.928   7.126   5.372
 5834SOL    MW423657   2.904   7.208   5.356
 5835SOL     OW23658   3.450   6.770   4.969
 5835SOL    HW223659   3.371   6.735   4.927
 5835SOL    HW323660   3.477   6.842   4.913
 5835SOL    MW423661   3.443   6.775   4.956
 5836SOL     OW23662   2.682   6.083   4.235
 5836SOL    HW223663   2.657   6.171   4.263
 5836SOL    HW323664   2.679   6.086   4.139
 5836SOL    MW423665   2.678   6.095   4.227
 5837SOL     OW23666   2.124   6.111   4.163
 5837SOL    HW223667   2.156   6.199   4.145
 5837SOL    HW323668   2.112   6.109   4.258
 5837SOL    MW423669   2.127   6.123   4.175
 5838SOL     OW23670   2.202   6.524   5.064
 5838SOL    HW223671   2.265   6.471   5.015
 5838SOL    HW323672   2.183   6.598   5.007
 5838SOL    MW423673   2.208   6.526   5.051
 5839SOL     OW23674   2.523   5.866   4.250
 5839SOL    HW223675   2.581   5.942   4.252
 5839SOL    HW323676   2.458   5.887   4.183
 5839SOL    MW423677   2.522   5.878   4.241
 5840SOL     OW23678   2.610   6.793   4.425
 5840SOL    HW223679   2.690   6.796   4.477
 5840SOL    HW323680   2.638   6.760   4.339
 5840SOL    MW423681   2.624   6.789   4.420
 5841SOL     OW23682   2.635   7.134   5.328
 5841SOL    HW223683   2.719   7.160   5.367
 5841SOL    HW323684   2.659   7.078   5.254
 5841SOL    MW423685   2.649   7.130   5.323
 5842SOL     OW23686   2.387   6.297   4.416
 5842SOL    HW223687   2.372   6.217   4.467
 5842SOL    HW323688   2.469   6.332   4.450
 5842SOL    MW423689   2.395   6.289   4.428
 5843SOL     OW23690   2.724   6.983   5.101
 5843SOL    HW223691   2.688   7.049   5.041
 5843SOL    HW323692   2.652   6.921   5.114
 5843SOL    MW423693   2.710   6.983   5.095
 5844SOL     OW23694   2.275   6.537   4.697
 5844SOL    HW223695   2.230   6.544   4.613
 5844SOL    HW323696   2.255   6.620   4.741
 5844SOL    MW423697   2.267   6.549   4.691
 5845SOL     OW23698   1.972   7.383   4.572
 5845SOL    HW223699   2.061   7.375   4.607
 5845SOL    HW323700   1.936   7.295   4.577
 5845SOL    MW423701   1.979   7.370   4.577
 5846SOL     OW23702   3.237   6.775   3.941
 5846SOL    HW223703   3.155   6.811   3.907
 5846SOL    HW323704   3.305   6.818   3.890
 5846SOL    MW423705   3.235   6.785   3.929
 5847SOL     OW23706   2.236   6.910   4.607
 5847SOL    HW223707   2.212   6.963   4.683
 5847SOL    HW323708   2.292   6.968   4.555
 5847SOL    MW423709   2.240   6.925   4.610
 5848SOL     OW23710   2.798   6.554   4.417
 5848SOL    HW223711   2.712   6.541   4.457
 5848SOL    HW323712   2.851   6.481   4.449
 5848SOL    MW423713   2.794   6.543   4.426
 5849SOL     OW23714   2.206   7.206   5.202
 5849SOL    HW223715   2.114   7.182   5.187
 5849SOL    HW323716   2.250   7.123   5.219
 5849SOL    MW423717   2.200   7.191   5.201
 5850SOL     OW23718   2.789   6.916   4.134
 5850SOL    HW223719   2.766   6.978   4.202
 5850SOL    HW323720   2.746   6.834   4.160
 5850SOL    MW423721   2.781   6.912   4.145
 5851SOL     OW23722   3.662   5.917   4.590
 5851SOL    HW223723   3.599   5.897   4.659
 5851SOL    HW323724   3.652   5.846   4.527
 5851SOL    MW423725   3.652   5.904   4.591
 5852SOL     OW23726   2.286   5.889   4.102
 5852SOL    HW223727   2.260   5.851   4.018
 5852SOL    HW323728   2.223   5.959   4.118
 5852SOL    MW423729   2.275   5.892   4.093
 5853SOL     OW23730   2.121   6.850   4.139
 5853SOL    HW223731   2.069   6.918   4.095
 5853SOL    HW323732   2.118   6.776   4.079
 5853SOL    MW423733   2.113   6.849   4.126
 5854SOL     OW23734   2.783   7.313   3.917
 5854SOL    HW223735   2.738   7.329   4.000
 5854SOL    HW323736   2.714   7.278   3.859
 5854SOL    MW423737   2.769   7.310   3.919
 5855SOL     OW23738   3.718   6.086   3.892
 5855SOL    HW223739   3.627   6.088   3.920
 5855SOL    HW323740   3.763   6.148   3.950
 5855SOL    MW423741   3.711   6.094   3.902
 5856SOL     OW23742   3.463   6.689   4.242
 5856SOL    HW223743   3.373   6.689   4.277
 5856SOL    HW323744   3.456   6.735   4.159
 5856SOL    MW423745   3.450   6.695   4.236
 5857SOL     OW23746   2.004   7.204   4.866
 5857SOL    HW223747   1.987   7.150   4.943
 5857SOL    HW323748   1.992   7.294   4.896
 5857SOL    MW423749   2.001   7.208   4.880
 5858SOL     OW23750   2.999   6.711   5.306
 5858SOL    HW223751   2.984   6.804   5.291
 5858SOL    HW323752   3.094   6.701   5.306
 5858SOL    MW423753   3.008   6.721   5.303
 5859SOL     OW23754   2.795   6.135   5.507
 5859SOL    HW223755   2.885   6.136   5.474
 5859SOL    HW323756   2.754   6.060   5.465
 5859SOL    MW423757   2.801   6.125   5.498
 5860SOL     OW23758   3.370   6.667   4.634
 5860SOL    HW223759   3.373   6.601   4.565
 5860SOL    HW323760   3.455   6.710   4.630
 5860SOL    MW423761   3.382   6.663   4.625
 5861SOL     OW23762   2.990   6.270   4.203
 5861SOL    HW223763   3.016   6.294   4.114
 5861SOL    HW323764   2.972   6.177   4.199
 5861SOL    MW423765   2.992   6.262   4.190
 5862SOL     OW23766   3.655   6.890   4.054
 5862SOL    HW223767   3.611   6.931   4.129
 5862SOL    HW323768   3.712   6.958   4.019
 5862SOL    MW423769   3.657   6.904   4.059
 5863SOL     OW23770   2.575   5.939   5.457
 5863SOL    HW223771   2.585   5.865   5.397
 5863SOL    HW323772   2.611   5.908   5.540
 5863SOL    MW423773   2.581   5.925   5.459
 5864SOL     OW23774   2.311   7.306   4.372
 5864SOL    HW223775   2.343   7.394   4.350
 5864SOL    HW323776   2.264   7.278   4.294
 5864SOL    MW423777   2.310   7.314   4.359
 5865SOL     OW23778   3.695   5.668   4.421
 5865SOL    HW223779   3.749   5.619   4.483
 5865SOL    HW323780   3.638   5.602   4.382
 5865SOL    MW423781   3.695   5.652   4.423
 5866SOL     OW23782   2.027   7.366   3.949
 5866SOL    HW223783   2.056   7.456   3.941
 5866SOL    HW323784   1.977   7.349   3.870
 5866SOL    MW423785   2.025   7.374   3.938
 5867SOL     OW23786   3.431   7.174   3.920
 5867SOL    HW223787   3.479   7.243   3.966
 5867SOL    HW323788   3.352   7.218   3.889
 5867SOL    MW423789   3.426   7.188   3.923
 5868SOL     OW23790   2.829   6.299   3.864
 5868SOL    HW223791   2.831   6.246   3.785
 5868SOL    HW323792   2.917   6.336   3.870
 5868SOL    MW423793   2.841   6.298   3.853
 5869SOL     OW23794   3.443   6.225   4.200
 5869SOL    HW223795   3.482   6.225   4.287
 5869SOL    HW323796   3.384   6.301   4.200
 5869SOL    MW423797   3.440   6.236   4.211
 5870SOL     OW23798   2.760   6.592   5.329
 5870SOL    HW223799   2.737   6.572   5.419
 5870SOL    HW323800   2.845   6.636   5.334
 5870SOL    MW423801   2.767   6.595   5.341
 5871SOL     OW23802   2.840   5.729   5.089
 5871SOL    HW223803   2.846   5.691   5.002
 5871SOL    HW323804   2.829   5.823   5.074
 5871SOL    MW423805   2.841   5.737   5.077
 5872SOL     OW23806   3.479   6.186   5.200
 5872SOL    HW223807   3.460   6.095   5.179
 5872SOL    HW323808   3.457   6.235   5.121
 5872SOL    MW423809   3.474   6.179   5.187
 5873SOL     OW23810   3.621   7.280   5.104
 5873SOL    HW223811   3.549   7.242   5.155
 5873SOL    HW323812   3.638   7.365   5.145
 5873SOL    MW423813   3.615   7.285   5.116
 5874SOL     OW23814   2.926   5.924   5.306
 5874SOL    HW223815   2.892   5.963   5.225
 5874SOL    HW323816   2.904   5.832   5.299
 5874SOL    MW423817   2.919   5.917   5.296
 5875SOL     OW23818   3.335   6.738   5.382
 5875SOL    HW223819   3.417   6.779   5.412
 5875SOL    HW323820   3.298   6.700   5.462
 5875SOL    MW423821   3.341   6.739   5.397
 5876SOL     OW23822   3.630   6.111   4.366
 5876SOL    HW223823   3.719   6.080   4.383
 5876SOL    HW323824   3.573   6.051   4.414
 5876SOL    MW423825   3.633   6.099   4.375
 5877SOL     OW23826   2.056   5.825   4.395
 5877SOL    HW223827   2.047   5.765   4.321
 5877SOL    HW323828   1.989   5.796   4.458
 5877SOL    MW423829   2.046   5.812   4.393
 5878SOL     OW23830   2.999   6.918   3.956
 5878SOL    HW223831   2.949   6.920   4.038
 5878SOL    HW323832   2.933   6.936   3.888
 5878SOL    MW423833   2.985   6.920   3.958
 5879SOL     OW23834   2.462   7.336   4.064
 5879SOL    HW223835   2.383   7.294   4.097
 5879SOL    HW323836   2.528   7.319   4.131
 5879SOL    MW423837   2.461   7.328   4.077
 5880SOL     OW23838   3.590   6.856   5.461
 5880SOL    HW223839   3.640   6.782   5.493
 5880SOL    HW323840   3.536   6.883   5.536
 5880SOL    MW423841   3.590   6.850   5.474
 5881SOL     OW23842   2.598   6.751   3.771
 5881SOL    HW223843   2.520   6.697   3.758
 5881SOL    HW323844   2.569   6.824   3.824
 5881SOL    MW423845   2.584   6.753   3.776
 5882SOL     OW23846   3.724   6.491   4.963
 5882SOL    HW223847   3.740   6.529   4.876
 5882SOL    HW323848   3.758   6.557   5.024
 5882SOL    MW423849   3.731   6.504   4.959
 5883SOL     OW23850   3.516   7.200   4.632
 5883SOL    HW223851   3.545   7.267   4.693
 5883SOL    HW323852   3.497   7.124   4.687
 5883SOL    MW423853   3.518   7.200   4.647
 5884SOL     OW23854   3.179   7.267   3.839
 5884SOL    HW223855   3.105   7.230   3.889
 5884SOL    HW323856   3.187   7.357   3.872
 5884SOL    MW423857   3.170   7.274   3.851
 5885SOL     OW23858   3.403   6.941   3.781
 5885SOL    HW223859   3.350   6.990   3.717
 5885SOL    HW323860   3.434   7.007   3.842
 5885SOL    MW423861   3.401   6.955   3.779
 5886SOL     OW23862   2.628   5.830   3.836
 5886SOL    HW223863   2.576   5.750   3.824
 5886SOL    HW323864   2.715   5.807   3.804
 5886SOL    MW423865   2.631   5.816   3.830
 5887SOL     OW23866   2.082   7.382   5.380
 5887SOL    HW223867   2.056   7.450   5.318
 5887SOL    HW323868   2.130   7.319   5.328
 5887SOL    MW423869   2.084   7.382   5.366
 5888SOL     OW23870   2.134   6.701   4.887
 5888SOL    HW223871   2.187   6.776   4.912
 5888SOL    HW323872   2.053   6.739   4.853
 5888SOL    MW423873   2.130   6.716   4.887
 5889SOL     OW23874   2.674   6.605   4.875
 5889SOL    HW223875   2.702   6.514   4.887
 5889SOL    HW323876   2.603   6.599   4.811
 5889SOL    MW423877   2.667   6.593   4.870
 5890SOL     OW23878   1.989   6.470   4.293
 5890SOL    HW223879   2.080   6.485   4.320
 5890SOL    HW323880   1.992   6.391   4.239
 5890SOL    MW423881   2.001   6.462   4.291
 5891SOL     OW23882   2.225   6.178   5.547
 5891SOL    HW223883   2.172   6.258   5.554
 5891SOL    HW323884   2.295   6.190   5.612
 5891SOL    MW423885   2.227   6.191   5.555
 5892SOL     OW23886   2.295   6.252   5.293
 5892SOL    HW223887   2.375   6.302   5.279
 5892SOL    HW323888   2.286   6.246   5.388
 5892SOL    MW423889   2.304   6.258   5.303
 5893SOL     OW23890   2.616   7.402   4.667
 5893SOL    HW223891   2.705   7.417   4.697
 5893SOL    HW323892   2.611   7.449   4.583
 5893SOL    MW423893   2.626   7.410   4.660
 5894SOL     OW23894   3.272   5.777   5.564
 5894SOL    HW223895   3.328   5.704   5.590
 5894SOL    HW323896   3.242   5.815   5.646
 5894SOL    MW423897   3.276   5.772   5.577
 5895SOL     OW23898   1.997   7.082   4.332
 5895SOL    HW223899   1.969   7.121   4.414
 5895SOL    HW323900   2.017   6.991   4.354
 5895SOL    MW423901   1.995   7.074   4.345
 5896SOL     OW23902   2.830   7.125   4.367
 5896SOL    HW223903   2.913   7.079   4.351
 5896SOL    HW323904   2.820   7.124   4.463
 5896SOL    MW423905   2.840   7.118   4.377
 5897SOL     OW23906   3.662   6.270   4.681
 5897SOL    HW223907   3.751   6.300   4.663
 5897SOL    HW323908   3.642   6.210   4.610
 5897SOL    MW423909   3.671   6.267   4.670
 5898SOL     OW23910   3.513   6.449   5.561
 5898SOL    HW223911   3.568   6.373   5.542
 5898SOL    HW323912   3.515   6.457   5.656
 5898SOL    MW423913   3.521   6.440   5.569
 5899SOL     OW23914   2.563   7.182   3.772
 5899SOL    HW223915   2.503   7.251   3.742
 5899SOL    HW323916   2.508   7.124   3.825
 5899SOL    MW423917   2.547   7.184   3.774
 5900SOL     OW23918   2.808   6.011   5.080
 5900SOL    HW223919   2.727   6.052   5.108
 5900SOL    HW323920   2.855   6.079   5.032
 5900SOL    MW423921   2.803   6.026   5.078
 5901SOL     OW23922   2.520   6.544   4.507
 5901SOL    HW223923   2.431   6.535   4.540
 5901SOL    HW323924   2.524   6.634   4.475
 5901SOL    MW423925   2.509   6.555   4.507
 5902SOL     OW23926   3.319   6.127   4.502
 5902SOL    HW223927   3.264   6.048   4.501
 5902SOL    HW323928   3.301   6.168   4.586
 5902SOL    MW423929   3.309   6.122   4.511
 5903SOL     OW23930   2.938   6.331   4.459
 5903SOL    HW223931   2.875   6.263   4.483
 5903SOL    HW323932   2.958   6.312   4.367
 5903SOL    MW423933   2.932   6.318   4.451
 5904SOL     OW23934   2.194   7.226   4.161
 5904SOL    HW223935   2.155   7.273   4.087
 5904SOL    HW323936   2.128   7.161   4.186
 5904SOL    MW423937   2.181   7.224   4.155
 5905SOL     OW23938   2.686   6.635   4.185
 5905SOL    HW223939   2.688   6.609   4.092
 5905SOL    HW323940   2.744   6.572   4.228
 5905SOL    MW423941   2.694   6.624   4.179
 5906SOL     OW23942   3.239   7.195   4.957
 5906SOL    HW223943   3.164   7.241   4.995
 5906SOL    HW323944   3.221   7.102   4.974
 5906SOL    MW423945   3.228   7.189   4.965
 5907SOL     OW23946   3.243   7.403   4.387
 5907SOL    HW223947   3.186   7.356   4.326
 5907SOL    HW323948   3.329   7.364   4.374
 5907SOL    MW423949   3.246   7.394   4.377
 5908SOL     OW23950   3.196   5.879   4.518
 5908SOL    HW223951   3.224   5.811   4.579
 5908SOL    HW323952   3.110   5.850   4.488
 5908SOL    MW423953   3.189   5.866   4.522
 5909SOL     OW23954   2.001   6.813   4.452
 5909SOL    HW223955   2.065   6.845   4.515
 5909SOL    HW323956   2.050   6.749   4.400
 5909SOL    MW423957   2.016   6.809   4.453
 5910SOL     OW23958   2.501   6.889   5.434
 5910SOL    HW223959   2.549   6.972   5.421
 5910SOL    HW323960   2.558   6.837   5.490
 5910SOL    MW423961   2.515   6.893   5.440
 5911SOL     OW23962   2.077   7.131   5.574
 5911SOL    HW223963   2.133   7.055   5.589
 5911SOL    HW323964   2.026   7.109   5.496
 5911SOL    MW423965   2.077   7.118   5.565
 5912SOL     OW23966   2.844   5.688   3.790
 5912SOL    HW223967   2.900   5.680   3.712
 5912SOL    HW323968   2.821   5.598   3.812
 5912SOL    MW423969   2.849   5.675   3.783
 5913SOL     OW23970   3.349   6.539   3.995
 5913SOL    HW223971   3.316   6.628   3.985
 5913SOL    HW323972   3.314   6.510   4.080
 5913SOL    MW423973   3.339   6.548   4.006
 5914SOL     OW23974   2.962   6.968   5.183
 5914SOL    HW223975   2.873   6.974   5.151
 5914SOL    HW323976   3.006   7.047   5.151
 5914SOL    MW423977   2.957   6.978   5.175
 5915SOL     OW23978   2.255   5.636   5.525
 5915SOL    HW223979   2.183   5.601   5.473
 5915SOL    HW323980   2.313   5.677   5.460
 5915SOL    MW423981   2.253   5.637   5.510
 5916SOL     OW23982   2.279   7.126   4.824
 5916SOL    HW223983   2.324   7.188   4.881
 5916SOL    HW323984   2.186   7.145   4.837
 5916SOL    MW423985   2.272   7.136   4.831
 5917SOL     OW23986   3.719   6.655   5.178
 5917SOL    HW223987   3.634   6.668   5.137
 5917SOL    HW323988   3.699   6.619   5.265
 5917SOL    MW423989   3.706   6.651   5.183
 5918SOL     OW23990   2.701   7.194   4.932
 5918SOL    HW223991   2.725   7.183   4.841
 5918SOL    HW323992   2.624   7.251   4.930
 5918SOL    MW423993   2.693   7.199   4.921
 5919SOL     OW23994   2.343   6.577   3.787
 5919SOL    HW223995   2.266   6.590   3.843
 5919SOL    HW323996   2.307   6.541   3.706
 5919SOL    MW423997   2.329   6.573   3.784
 5920SOL     OW23998   2.996   6.550   4.030
 5920SOL    HW223999   2.906   6.571   4.005
 5920SOL    HW324000   3.023   6.623   4.086
 5920SOL    MW424001   2.988   6.562   4.033
 5921SOL     OW24002   2.496   6.899   4.722
 5921SOL    HW224003   2.489   6.878   4.816
 5921SOL    HW324004   2.414   6.867   4.685
 5921SOL    MW424005   2.484   6.893   4.729
 5922SOL     OW24006   3.360   5.909   5.124
 5922SOL    HW224007   3.307   5.911   5.204
 5922SOL    HW324008   3.345   5.822   5.087
 5922SOL    MW424009   3.352   5.899   5.129
 5923SOL     OW24010   3.696   5.833   4.997
 5923SOL    HW224011   3.677   5.900   4.932
 5923SOL    HW324012   3.753   5.771   4.952
 5923SOL    MW424013   3.700   5.834   4.983
 5924SOL     OW24014   1.942   6.991   5.385
 5924SOL    HW224015   1.986   6.924   5.331
 5924SOL    HW324016   1.857   6.953   5.405
 5924SOL    MW424017   1.937   6.977   5.381
 5925SOL     OW24018   2.625   5.666   4.437
 5925SOL    HW224019   2.554   5.727   4.419
 5925SOL    HW324020   2.676   5.663   4.356
 5925SOL    MW424021   2.621   5.672   4.424
 5926SOL     OW24022   2.383   6.906   4.186
 5926SOL    HW224023   2.376   6.938   4.276
 5926SOL    HW324024   2.293   6.890   4.158
 5926SOL    MW424025   2.371   6.908   4.193
 5927SOL     OW24026   2.978   7.299   5.095
 5927SOL    HW224027   2.898   7.284   5.045
 5927SOL    HW324028   2.985   7.394   5.102
 5927SOL    MW424029   2.969   7.310   5.089
 5928SOL     OW24030   3.092   7.264   4.585
 5928SOL    HW224031   3.139   7.337   4.544
 5928SOL    HW324032   3.013   7.303   4.621
 5928SOL    MW424033   3.087   7.279   4.584
 5929SOL     OW24034   3.500   7.359   4.860
 5929SOL    HW224035   3.543   7.329   4.940
 5929SOL    HW324036   3.419   7.307   4.857
 5929SOL    MW424037   3.495   7.348   4.870
 5930SOL     OW24038   2.585   6.323   5.567
 5930SOL    HW224039   2.655   6.265   5.539
 5930SOL    HW324040   2.528   6.268   5.622
 5930SOL    MW424041   2.587   6.310   5.571
 5931SOL     OW24042   3.012   5.670   5.446
 5931SOL    HW224043   3.007   5.577   5.427
 5931SOL    HW324044   3.095   5.681   5.492
 5931SOL    MW424045   3.020   5.659   5.450
 5932SOL     OW24046   2.386   6.190   3.900
 5932SOL    HW224047   2.352   6.246   3.970
 5932SOL    HW324048   2.457   6.140   3.940
 5932SOL    MW424049   2.392   6.191   3.914
 5933SOL     OW24050   3.482   6.941   4.722
 5933SOL    HW224051   3.517   6.923   4.635
 5933SOL    HW324052   3.387   6.942   4.709
 5933SOL    MW424053   3.474   6.938   4.709
 5934SOL     OW24054   2.911   6.589   5.091
 5934SOL    HW224055   2.954   6.624   5.169
 5934SOL    HW324056   2.894   6.666   5.037
 5934SOL    MW424057   2.914   6.604   5.094
 5935SOL     OW24058   2.302   5.731   4.393
 5935SOL    HW224059   2.352   5.774   4.324
 5935SOL    HW324060   2.217   5.775   4.393
 5935SOL    MW424061   2.299   5.744   4.384
 5936SOL     OW24062   2.061   6.793   5.253
 5936SOL    HW224063   2.089   6.746   5.331
 5936SOL    HW324064   1.982   6.748   5.224
 5936SOL    MW424065   2.054   6.782   5.259
 5937SOL     OW24066   3.111   6.338   3.939
 5937SOL    HW224067   3.158   6.356   3.858
 5937SOL    HW324068   3.077   6.422   3.967
 5937SOL    MW424069   3.113   6.352   3.932
 5938SOL     OW24070   2.224   6.516   4.433
 5938SOL    HW224071   2.282   6.572   4.381
 5938SOL    HW324072   2.268   6.431   4.435
 5938SOL    MW424073   2.237   6.513   4.426
 5939SOL     OW24074   2.846   7.080   3.761
 5939SOL    HW224075   2.873   7.158   3.713
 5939SOL    HW324076   2.753   7.095   3.780
 5939SOL    MW424077   2.837   7.093   3.757
 5940SOL     OW24078   3.710   6.603   5.448
 5940SOL    HW224079   3.623   6.583   5.484
 5940SOL    HW324080   3.764   6.529   5.473
 5940SOL    MW424081   3.705   6.592   5.456
 5941SOL     OW24082   1.931   7.116   4.605
 5941SOL    HW224083   1.963   7.120   4.696
 5941SOL    HW324084   1.836   7.124   4.613
 5941SOL    MW424085   1.923   7.119   4.618
 5942SOL     OW24086   1.886   6.242   4.152
 5942SOL    HW224087   1.826   6.214   4.222
 5942SOL    HW324088   1.960   6.182   4.158
 5942SOL    MW424089   1.888   6.231   4.161
 5943SOL     OW24090   3.054   6.973   4.312
 5943SOL    HW224091   3.077   6.924   4.390
 5943SOL    HW324092   3.135   7.015   4.284
 5943SOL    MW424093   3.067   6.973   4.319
 5944SOL     OW24094   3.095   6.157   5.468
 5944SOL    HW224095   3.147   6.092   5.421
 5944SOL    HW324096   3.053   6.208   5.398
 5944SOL    MW424097   3.096   6.154   5.451
 5945SOL     OW24098   3.194   5.952   5.329
 5945SOL    HW224099   3.101   5.936   5.316
 5945SOL    HW324100   3.220   5.890   5.397
 5945SOL    MW424101   3.184   5.942   5.336
 5946SOL     OW24102   2.409   5.726   4.668
 5946SOL    HW224103   2.419   5.635   4.694
 5946SOL    HW324104   2.365   5.722   4.583
 5946SOL    MW424105   2.405   5.714   4.660
 5947SOL     OW24106   2.503   7.341   5.214
 5947SOL    HW224107   2.420   7.326   5.259
 5947SOL    HW324108   2.562   7.274   5.249
 5947SOL    MW424109   2.501   7.331   5.224
 5948SOL     OW24110   3.560   6.048   4.839
 5948SOL    HW224111   3.493   6.081   4.899
 5948SOL    HW324112   3.603   6.126   4.805
 5948SOL    MW424113   3.558   6.063   4.843
 5949SOL     OW24114   3.738   6.768   4.809
 5949SOL    HW224115   3.731   6.708   4.734
 5949SOL    HW324116   3.664   6.828   4.798
 5949SOL    MW424117   3.728   6.768   4.798
 5950SOL     OW24118   3.120   6.630   4.727
 5950SOL    HW224119   3.134   6.602   4.818
 5950SOL    HW324120   3.206   6.661   4.699
 5950SOL    MW424121   3.133   6.631   4.736
 5951SOL     OW24122   3.696   6.256   5.548
 5951SOL    HW224123   3.733   6.201   5.617
 5951SOL    HW324124   3.721   6.213   5.466
 5951SOL    MW424125   3.703   6.244   5.547
 5952SOL     OW24126   3.243   6.554   5.600
 5952SOL    HW224127   3.309   6.502   5.554
 5952SOL    HW324128   3.263   6.541   5.693
 5952SOL    MW424129   3.254   6.545   5.607
 5953SOL     OW24130   3.254   6.415   4.226
 5953SOL    HW224131   3.169   6.385   4.196
 5953SOL    HW324132   3.246   6.422   4.321
 5953SOL    MW424133   3.242   6.413   4.235
 5954SOL     OW24134   2.330   6.878   4.957
 5954SOL    HW224135   2.342   6.905   5.048
 5954SOL    HW324136   2.311   6.959   4.910
 5954SOL    MW424137   2.329   6.893   4.962
 5955SOL     OW24138   2.468   7.350   4.942
 5955SOL    HW224139   2.520   7.427   4.919
 5955SOL    HW324140   2.477   7.342   5.037
 5955SOL    MW424141   2.477   7.357   4.953
 5956SOL     OW24142   3.370   6.935   5.174
 5956SOL    HW224143   3.355   6.864   5.237
 5956SOL    HW324144   3.416   6.893   5.102
 5956SOL    MW424145   3.376   6.919   5.174
 5957SOL     OW24146   2.444   6.666   5.291
 5957SOL    HW224147   2.481   6.671   5.203
 5957SOL    HW324148   2.483   6.739   5.338
 5957SOL    MW424149   2.454   6.676   5.286
 5958SOL     OW24150   2.624   6.709   5.103
 5958SOL    HW224151   2.683   6.655   5.156
 5958SOL    HW324152   2.639   6.681   5.013
 5958SOL    MW424153   2.634   6.698   5.099
 5959SOL     OW24154   2.627   6.081   3.952
 5959SOL    HW224155   2.700   6.130   3.915
 5959SOL    HW324156   2.643   5.990   3.926
 5959SOL    MW424157   2.639   6.076   3.945
 5960SOL     OW24158   3.435   7.198   5.275
 5960SOL    HW224159   3.477   7.183   5.360
 5960SOL    HW324160   3.426   7.111   5.237
 5960SOL    MW424161   3.439   7.186   5.282
 5961SOL     OW24162   2.102   6.590   4.050
 5961SOL    HW224163   2.039   6.606   3.979
 5961SOL    HW324164   2.049   6.553   4.121
 5961SOL    MW424165   2.087   6.587   4.050
 5962SOL     OW24166   2.458   6.944   3.909
 5962SOL    HW224167   2.473   6.920   4.001
 5962SOL    HW324168   2.366   6.922   3.893
 5962SOL    MW424169   2.448   6.937   3.919
 5963SOL     OW24170   2.997   7.175   4.061
 5963SOL    HW224171   3.005   7.093   4.012
 5963SOL    HW324172   2.916   7.214   4.028
 5963SOL    MW424173   2.987   7.170   4.051
 5964SOL     OW24174   2.256   7.333   4.630
 5964SOL    HW224175   2.260   7.244   4.665
 5964SOL    HW324176   2.282   7.324   4.539
 5964SOL    MW424177   2.259   7.321   4.622
 5965SOL     OW24178   2.873   6.811   4.873
 5965SOL    HW224179   2.805   6.745   4.889
 5965SOL    HW324180   2.891   6.805   4.780
 5965SOL    MW424181   2.866   6.802   4.864
 5966SOL     OW24182   1.962   7.086   5.124
 5966SOL    HW224183   1.952   7.044   5.210
 5966SOL    HW324184   1.883   7.139   5.114
 5966SOL    MW424185   1.951   7.087   5.135
 5967SOL     OW24186   2.517   6.386   5.314
 5967SOL    HW224187   2.510   6.481   5.302
 5967SOL    HW324188   2.526   6.375   5.409
 5967SOL    MW424189   2.518   6.398   5.324
 5968SOL     OW24190   2.238   6.901   5.572
 5968SOL    HW224191   2.310   6.903   5.509
 5968SOL    HW324192   2.208   6.810   5.571
 5968SOL    MW424193   2.243   6.890   5.564
 5969SOL     OW24194   3.322   5.664   5.039
 5969SOL    HW224195   3.393   5.610   5.003
 5969SOL    HW324196   3.321   5.643   5.132
 5969SOL    MW424197   3.331   5.655   5.047
 5970SOL     OW24198   3.522   7.194   5.523
 5970SOL    HW224199   3.495   7.191   5.614
 5970SOL    HW324200   3.618   7.198   5.526
 5970SOL    MW424201   3.532   7.194   5.535
 5971SOL     OW24202   2.333   6.056   4.507
 5971SOL    HW224203   2.404   6.004   4.470
 5971SOL    HW324204   2.319   6.021   4.594
 5971SOL    MW424205   2.341   6.045   4.514
 5972SOL     OW24206   1.888   7.391   5.579
 5972SOL    HW224207   1.938   7.369   5.501
 5972SOL    HW324208   1.896   7.486   5.587
 5972SOL    MW424209   1.896   7.400   5.570
 5973SOL     OW24210   2.649   7.149   4.583
 5973SOL    HW224211   2.577   7.086   4.596
 5973SOL    HW324212   2.610   7.234   4.601
 5973SOL    MW424213   2.633   7.152   4.586
 5974SOL     OW24214   2.054   5.687   4.163
 5974SOL    HW224215   2.125   5.708   4.102
 5974SOL    HW324216   2.008   5.615   4.121
 5974SOL    MW424217   2.058   5.681   4.149
 5975SOL     OW24218   1.885   6.154   5.306
 5975SOL    HW224219   1.949   6.220   5.281
 5975SOL    HW324220   1.804   6.181   5.263
 5975SOL    MW424221   1.883   6.166   5.298
 5976SOL     OW24222   3.623   7.061   4.263
 5976SOL    HW224223   3.593   6.994   4.324
 5976SOL    HW324224   3.717   7.067   4.277
 5976SOL    MW424225   3.631   7.053   4.273
 5977SOL     OW24226   3.179   6.738   4.193
 5977SOL    HW224227   3.151   6.824   4.226
 5977SOL    HW324228   3.207   6.754   4.103
 5977SOL    MW424229   3.179   6.752   4.185
 5978SOL     OW24230   3.694   6.540   4.668
 5978SOL    HW224231   3.685   6.572   4.579
 5978SOL    HW324232   3.647   6.456   4.668
 5978SOL    MW424233   3.687   6.533   4.658
 5979SOL     OW24234   2.070   6.380   5.247
 5979SOL    HW224235   2.091   6.449   5.185
 5979SOL    HW324236   2.150   6.327   5.252
 5979SOL    MW424237   2.083   6.381   5.241
 5980SOL     OW24238   3.606   6.471   4.369
 5980SOL    HW224239   3.700   6.460   4.357
 5980SOL    HW324240   3.582   6.543   4.310
 5980SOL    MW424241   3.616   6.479   4.360
 5981SOL     OW24242   2.055   6.395   5.514
 5981SOL    HW224243   1.981   6.339   5.540
 5981SOL    HW324244   2.050   6.398   5.419
 5981SOL    MW424245   2.044   6.388   5.504
 5982SOL     OW24246   2.262   6.349   4.142
 5982SOL    HW224247   2.262   6.444   4.127
 5982SOL    HW324248   2.339   6.333   4.196
 5982SOL    MW424249   2.272   6.360   4.147
 5983SOL     OW24250   2.021   6.080   4.431
 5983SOL    HW224251   2.083   6.087   4.504
 5983SOL    HW324252   2.021   5.987   4.408
 5983SOL    MW424253   2.029   6.069   4.438
 5984SOL     OW24254   2.703   6.341   4.915
 5984SOL    HW224255   2.661   6.259   4.891
 5984SOL    HW324256   2.704   6.340   5.011
 5984SOL    MW424257   2.696   6.330   4.924
 5985SOL     OW24258   1.890   6.652   3.889
 5985SOL    HW224259   1.859   6.717   3.952
 5985SOL    HW324260   1.839   6.574   3.908
 5985SOL    MW424261   1.880   6.649   3.899
 5986SOL     OW24262   3.302   5.664   4.637
 5986SOL    HW224263   3.390   5.673   4.674
 5986SOL    HW324264   3.312   5.605   4.563
 5986SOL    MW424265   3.316   5.658   4.631
 5987SOL     OW24266   3.334   6.403   4.481
 5987SOL    HW224267   3.414   6.418   4.430
 5987SOL    HW324268   3.327   6.308   4.487
 5987SOL    MW424269   3.343   6.392   4.476
 5988SOL     OW24270   2.474   7.452   3.831
 5988SOL    HW224271   2.379   7.452   3.823
 5988SOL    HW324272   2.490   7.398   3.909
 5988SOL    MW424273   2.464   7.446   3.840
 5989SOL     OW24274   2.784   6.329   5.178
 5989SOL    HW224275   2.853   6.396   5.175
 5989SOL    HW324276   2.717   6.367   5.234
 5989SOL    MW424277   2.785   6.342   5.185
 5990SOL     OW24278   2.202   6.629   5.426
 5990SOL    HW224279   2.156   6.545   5.428
 5990SOL    HW324280   2.259   6.623   5.350
 5990SOL    MW424281   2.204   6.617   5.418
 5991SOL     OW24282   2.453   7.004   4.427
 5991SOL    HW224283   2.518   6.937   4.448
 5991SOL    HW324284   2.505   7.081   4.404
 5991SOL    MW424285   2.468   7.006   4.426
 5992SOL     OW24286   3.655   5.668   5.226
 5992SOL    HW224287   3.576   5.714   5.254
 5992SOL    HW324288   3.690   5.722   5.155
 5992SOL    MW424289   3.649   5.681   5.220
 5993SOL     OW24290   2.939   6.752   4.576
 5993SOL    HW224291   3.031   6.733   4.594
 5993SOL    HW324292   2.912   6.682   4.516
 5993SOL    MW424293   2.947   6.740   4.570
 5994SOL     OW24294   2.732   6.572   3.931
 5994SOL    HW224295   2.718   6.484   3.896
 5994SOL    HW324296   2.683   6.629   3.872
 5994SOL    MW424297   2.724   6.567   3.919
 5995SOL     OW24298   3.213   6.990   4.672
 5995SOL    HW224299   3.186   7.074   4.637
 5995SOL    HW324300   3.173   6.985   4.759
 5995SOL    MW424301   3.206   6.999   4.678
 5996SOL     OW24302   3.132   6.938   4.940
 5996SOL    HW224303   3.143   6.905   5.029
 5996SOL    HW324304   3.051   6.897   4.909
 5996SOL    MW424305   3.122   6.930   4.946
 5997SOL     OW24306   3.212   7.060   5.472
 5997SOL    HW224307   3.212   7.154   5.488
 5997SOL    HW324308   3.257   7.050   5.388
 5997SOL    MW424309   3.218   7.070   5.463
 5998SOL     OW24310   2.740   6.341   4.147
 5998SOL    HW224311   2.720   6.327   4.054
 5998SOL    HW324312   2.833   6.320   4.154
 5998SOL    MW424313   2.750   6.336   4.136
 5999SOL     OW24314   2.067   5.964   5.451
 5999SOL    HW224315   2.024   6.023   5.388
 5999SOL    HW324316   2.135   6.019   5.491
 5999SOL    MW424317   2.071   5.979   5.448
 6000SOL     OW24318   3.179   6.584   4.996
 6000SOL    HW224319   3.242   6.581   5.069
 6000SOL    HW324320   3.095   6.602   5.038
 6000SOL    MW424321   3.175   6.586   5.011
 6001SOL     OW24322   2.723   7.299   4.185
 6001SOL    HW224323   2.781   7.370   4.212
 6001SOL    HW324324   2.746   7.227   4.243
 6001SOL    MW424325   2.734   7.299   4.196
 6002SOL     OW24326   3.518   5.761   4.775
 6002SOL    HW224327   3.563   5.679   4.794
 6002SOL    HW324328   3.538   5.817   4.851
 6002SOL    MW424329   3.528   5.757   4.787
 6003SOL     OW24330   1.966   5.604   4.874
 6003SOL    HW224331   1.957   5.605   4.779
 6003SOL    HW324332   2.060   5.616   4.889
 6003SOL    MW424333   1.978   5.607   4.865
 6004SOL     OW24334   3.603   6.797   4.494
 6004SOL    HW224335   3.582   6.743   4.417
 6004SOL    HW324336   3.699   6.795   4.498
 6004SOL    MW424337   3.612   6.790   4.483
 6005SOL     OW24338   2.295   6.942   5.237
 6005SOL    HW224339   2.216   6.892   5.260
 6005SOL    HW324340   2.365   6.901   5.287
 6005SOL    MW424341   2.293   6.930   5.247
 6006SOL     OW24342   2.179   5.731   3.920
 6006SOL    HW224343   2.108   5.786   3.888
 6006SOL    HW324344   2.221   5.697   3.841
 6006SOL    MW424345   2.175   5.733   3.906
 6007SOL     OW24346   1.935   5.830   3.769
 6007SOL    HW224347   1.902   5.909   3.813
 6007SOL    HW324348   1.990   5.863   3.698
 6007SOL    MW424349   1.938   5.844   3.766
 6008SOL     OW24350   1.969   7.087   3.958
 6008SOL    HW224351   1.986   7.171   4.000
 6008SOL    HW324352   2.004   7.096   3.870
 6008SOL    MW424353   1.974   7.100   3.952
 6009SOL     OW24354   3.241   7.176   4.175
 6009SOL    HW224355   3.304   7.166   4.104
 6009SOL    HW324356   3.158   7.196   4.130
 6009SOL    MW424357   3.238   7.177   4.160
 6010SOL     OW24358   3.604   6.444   5.862
 6010SOL    HW224359   3.645   6.386   5.927
 6010SOL    HW324360   3.511   6.436   5.879
 6010SOL    MW424361   3.598   6.436   5.872
 6011SOL     OW24362   2.398   6.627   6.091
 6011SOL    HW224363   2.488   6.602   6.075
 6011SOL    HW324364   2.394   6.720   6.068
 6011SOL    MW424365   2.410   6.636   6.086
 6012SOL     OW24366   3.514   7.330   6.233
 6012SOL    HW224367   3.526   7.276   6.311
 6012SOL    HW324368   3.551   7.278   6.162
 6012SOL    MW424369   3.520   7.315   6.234
 6013SOL     OW24370   2.682   6.083   6.104
 6013SOL    HW224371   2.657   6.171   6.132
 6013SOL    HW324372   2.679   6.086   6.008
 6013SOL    MW424373   2.678   6.095   6.096
 6014SOL     OW24374   2.124   6.111   6.032
 6014SOL    HW224375   2.156   6.199   6.014
 6014SOL    HW324376   2.112   6.109   6.127
 6014SOL    MW424377   2.127   6.123   6.044
 6015SOL     OW24378   2.523   5.866   6.119
 6015SOL    HW224379   2.581   5.942   6.121
 6015SOL    HW324380   2.458   5.887   6.052
 6015SOL    MW424381   2.522   5.878   6.110
 6016SOL     OW24382   2.610   6.793   6.294
 6016SOL    HW224383   2.690   6.796   6.346
 6016SOL    HW324384   2.638   6.760   6.208
 6016SOL    MW424385   2.624   6.789   6.289
 6017SOL     OW24386   2.387   6.297   6.285
 6017SOL    HW224387   2.372   6.217   6.336
 6017SOL    HW324388   2.469   6.332   6.319
 6017SOL    MW424389   2.395   6.289   6.297
 6018SOL     OW24390   2.529   6.123   6.662
 6018SOL    HW224391   2.435   6.119   6.680
 6018SOL    HW324392   2.559   6.032   6.671
 6018SOL    MW424393   2.520   6.111   6.665
 6019SOL     OW24394   2.275   6.537   6.566
 6019SOL    HW224395   2.230   6.544   6.482
 6019SOL    HW324396   2.255   6.620   6.610
 6019SOL    MW424397   2.267   6.549   6.560
 6020SOL     OW24398   1.972   7.383   6.441
 6020SOL    HW224399   2.061   7.375   6.476
 6020SOL    HW324400   1.936   7.295   6.446
 6020SOL    MW424401   1.979   7.370   6.446
 6021SOL     OW24402   3.237   6.775   5.810
 6021SOL    HW224403   3.155   6.811   5.776
 6021SOL    HW324404   3.305   6.818   5.759
 6021SOL    MW424405   3.235   6.785   5.798
 6022SOL     OW24406   2.236   6.910   6.476
 6022SOL    HW224407   2.212   6.963   6.552
 6022SOL    HW324408   2.292   6.968   6.424
 6022SOL    MW424409   2.240   6.925   6.479
 6023SOL     OW24410   2.798   6.554   6.286
 6023SOL    HW224411   2.712   6.541   6.326
 6023SOL    HW324412   2.851   6.481   6.318
 6023SOL    MW424413   2.794   6.543   6.295
 6024SOL     OW24414   2.789   6.916   6.003
 6024SOL    HW224415   2.766   6.978   6.071
 6024SOL    HW324416   2.746   6.834   6.029
 6024SOL    MW424417   2.781   6.912   6.014
 6025SOL     OW24418   3.662   5.917   6.459
 6025SOL    HW224419   3.599   5.897   6.528
 6025SOL    HW324420   3.652   5.846   6.396
 6025SOL    MW424421   3.652   5.904   6.460
 6026SOL     OW24422   2.286   5.889   5.971
 6026SOL    HW224423   2.260   5.851   5.887
 6026SOL    HW324424   2.223   5.959   5.987
 6026SOL    MW424425   2.275   5.892   5.962
 6027SOL     OW24426   2.121   6.850   6.008
 6027SOL    HW224427   2.069   6.918   5.964
 6027SOL    HW324428   2.118   6.776   5.948
 6027SOL    MW424429   2.113   6.849   5.995
 6028SOL     OW24430   2.783   7.313   5.786
 6028SOL    HW224431   2.738   7.329   5.869
 6028SOL    HW324432   2.714   7.278   5.728
 6028SOL    MW424433   2.769   7.310   5.788
 6029SOL     OW24434   3.718   6.086   5.761
 6029SOL    HW224435   3.627   6.088   5.789
 6029SOL    HW324436   3.763   6.148   5.819
 6029SOL    MW424437   3.711   6.094   5.771
 6030SOL     OW24438   3.463   6.689   6.111
 6030SOL    HW224439   3.373   6.689   6.146
 6030SOL    HW324440   3.456   6.735   6.028
 6030SOL    MW424441   3.450   6.695   6.105
 6031SOL     OW24442   2.004   7.204   6.735
 6031SOL    HW224443   1.987   7.150   6.812
 6031SOL    HW324444   1.992   7.294   6.765
 6031SOL    MW424445   2.001   7.208   6.749
 6032SOL     OW24446   3.370   6.667   6.503
 6032SOL    HW224447   3.373   6.601   6.434
 6032SOL    HW324448   3.455   6.710   6.499
 6032SOL    MW424449   3.382   6.663   6.494
 6033SOL     OW24450   2.990   6.270   6.072
 6033SOL    HW224451   3.016   6.294   5.983
 6033SOL    HW324452   2.972   6.177   6.068
 6033SOL    MW424453   2.992   6.262   6.059
 6034SOL     OW24454   3.655   6.890   5.923
 6034SOL    HW224455   3.611   6.931   5.998
 6034SOL    HW324456   3.712   6.958   5.888
 6034SOL    MW424457   3.657   6.904   5.928
 6035SOL     OW24458   2.311   7.306   6.241
 6035SOL    HW224459   2.343   7.394   6.219
 6035SOL    HW324460   2.264   7.278   6.163
 6035SOL    MW424461   2.310   7.314   6.228
 6036SOL     OW24462   3.695   5.668   6.290
 6036SOL    HW224463   3.749   5.619   6.352
 6036SOL    HW324464   3.638   5.602   6.251
 6036SOL    MW424465   3.695   5.652   6.292
 6037SOL     OW24466   2.027   7.366   5.818
 6037SOL    HW224467   2.056   7.456   5.810
 6037SOL    HW324468   1.977   7.349   5.739
 6037SOL    MW424469   2.025   7.374   5.807
 6038SOL     OW24470   2.814   5.621   6.703
 6038SOL    HW224471   2.773   5.699   6.665
 6038SOL    HW324472   2.908   5.639   6.698
 6038SOL    MW424473   2.820   5.633   6.698
 6039SOL     OW24474   3.431   7.174   5.789
 6039SOL    HW224475   3.479   7.243   5.835
 6039SOL    HW324476   3.352   7.218   5.758
 6039SOL    MW424477   3.426   7.188   5.792
 6040SOL     OW24478   2.829   6.299   5.733
 6040SOL    HW224479   2.831   6.246   5.654
 6040SOL    HW324480   2.917   6.336   5.739
 6040SOL    MW424481   2.841   6.298   5.722
 6041SOL     OW24482   3.443   6.225   6.069
 6041SOL    HW224483   3.482   6.225   6.156
 6041SOL    HW324484   3.384   6.301   6.069
 6041SOL    MW424485   3.440   6.236   6.080
 6042SOL     OW24486   2.929   6.218   6.792
 6042SOL    HW224487   3.004   6.247   6.739
 6042SOL    HW324488   2.861   6.283   6.776
 6042SOL    MW424489   2.930   6.230   6.782
 6043SOL     OW24490   3.630   6.111   6.235
 6043SOL    HW224491   3.719   6.080   6.252
 6043SOL    HW324492   3.573   6.051   6.283
 6043SOL    MW424493   3.633   6.099   6.244
 6044SOL     OW24494   2.056   5.825   6.264
 6044SOL    HW224495   2.047   5.765   6.190
 6044SOL    HW324496   1.989   5.796   6.327
 6044SOL    MW424497   2.046   5.812   6.262
 6045SOL     OW24498   2.999   6.918   5.825
 6045SOL    HW224499   2.949   6.920   5.907
 6045SOL    HW324500   2.933   6.936   5.757
 6045SOL    MW424501   2.985   6.920   5.827
 6046SOL     OW24502   2.003   5.998   6.627
 6046SOL    HW224503   1.975   6.089   6.636
 6046SOL    HW324504   1.940   5.959   6.566
 6046SOL    MW424505   1.990   6.004   6.621
 6047SOL     OW24506   2.462   7.336   5.933
 6047SOL    HW224507   2.383   7.294   5.966
 6047SOL    HW324508   2.528   7.319   6.000
 6047SOL    MW424509   2.461   7.328   5.946
 6048SOL     OW24510   2.598   6.751   5.640
 6048SOL    HW224511   2.520   6.697   5.627
 6048SOL    HW324512   2.569   6.824   5.693
 6048SOL    MW424513   2.584   6.753   5.645
 6049SOL     OW24514   3.724   6.491   6.832
 6049SOL    HW224515   3.740   6.529   6.745
 6049SOL    HW324516   3.758   6.557   6.893
 6049SOL    MW424517   3.731   6.504   6.828
 6050SOL     OW24518   3.516   7.200   6.501
 6050SOL    HW224519   3.545   7.267   6.562
 6050SOL    HW324520   3.497   7.124   6.556
 6050SOL    MW424521   3.518   7.200   6.516
 6051SOL     OW24522   3.179   7.267   5.708
 6051SOL    HW224523   3.105   7.230   5.758
 6051SOL    HW324524   3.187   7.357   5.741
 6051SOL    MW424525   3.170   7.274   5.720
 6052SOL     OW24526   3.403   6.941   5.650
 6052SOL    HW224527   3.350   6.990   5.586
 6052SOL    HW324528   3.434   7.007   5.711
 6052SOL    MW424529   3.401   6.955   5.648
 6053SOL     OW24530   2.628   5.830   5.705
 6053SOL    HW224531   2.576   5.750   5.693
 6053SOL    HW324532   2.715   5.807   5.673
 6053SOL    MW424533   2.631   5.816   5.699
 6054SOL     OW24534   2.134   6.701   6.756
 6054SOL    HW224535   2.187   6.776   6.781
 6054SOL    HW324536   2.053   6.739   6.722
 6054SOL    MW424537   2.130   6.716   6.756
 6055SOL     OW24538   2.674   6.605   6.744
 6055SOL    HW224539   2.702   6.514   6.756
 6055SOL    HW324540   2.603   6.599   6.680
 6055SOL    MW424541   2.667   6.593   6.739
 6056SOL     OW24542   1.989   6.470   6.162
 6056SOL    HW224543   2.080   6.485   6.189
 6056SOL    HW324544   1.992   6.391   6.108
 6056SOL    MW424545   2.001   6.462   6.160
 6057SOL     OW24546   2.616   7.402   6.536
 6057SOL    HW224547   2.705   7.417   6.566
 6057SOL    HW324548   2.611   7.449   6.452
 6057SOL    MW424549   2.626   7.410   6.529
 6058SOL     OW24550   1.997   7.082   6.201
 6058SOL    HW224551   1.969   7.121   6.283
 6058SOL    HW324552   2.017   6.991   6.223
 6058SOL    MW424553   1.995   7.074   6.214
 6059SOL     OW24554   2.830   7.125   6.236
 6059SOL    HW224555   2.913   7.079   6.220
 6059SOL    HW324556   2.820   7.124   6.332
 6059SOL    MW424557   2.840   7.118   6.246
 6060SOL     OW24558   3.662   6.270   6.550
 6060SOL    HW224559   3.751   6.300   6.532
 6060SOL    HW324560   3.642   6.210   6.479
 6060SOL    MW424561   3.671   6.267   6.539
 6061SOL     OW24562   2.563   7.182   5.641
 6061SOL    HW224563   2.503   7.251   5.611
 6061SOL    HW324564   2.508   7.124   5.694
 6061SOL    MW424565   2.547   7.184   5.643
 6062SOL     OW24566   3.001   5.827   5.864
 6062SOL    HW224567   2.934   5.803   5.801
 6062SOL    HW324568   3.066   5.876   5.813
 6062SOL    MW424569   3.001   5.829   5.849
 6063SOL     OW24570   3.068   6.349   6.572
 6063SOL    HW224571   3.081   6.443   6.582
 6063SOL    HW324572   3.029   6.339   6.486
 6063SOL    MW424573   3.064   6.360   6.562
 6064SOL     OW24574   2.520   6.544   6.376
 6064SOL    HW224575   2.431   6.535   6.409
 6064SOL    HW324576   2.524   6.634   6.344
 6064SOL    MW424577   2.509   6.555   6.376
 6065SOL     OW24578   3.319   6.127   6.371
 6065SOL    HW224579   3.264   6.048   6.370
 6065SOL    HW324580   3.301   6.168   6.455
 6065SOL    MW424581   3.309   6.122   6.380
 6066SOL     OW24582   2.938   6.331   6.328
 6066SOL    HW224583   2.875   6.263   6.352
 6066SOL    HW324584   2.958   6.312   6.236
 6066SOL    MW424585   2.932   6.318   6.320
 6067SOL     OW24586   2.194   7.226   6.030
 6067SOL    HW224587   2.155   7.273   5.956
 6067SOL    HW324588   2.128   7.161   6.055
 6067SOL    MW424589   2.181   7.224   6.024
 6068SOL     OW24590   2.686   6.635   6.054
 6068SOL    HW224591   2.688   6.609   5.961
 6068SOL    HW324592   2.744   6.572   6.097
 6068SOL    MW424593   2.694   6.624   6.048
 6069SOL     OW24594   3.243   7.403   6.256
 6069SOL    HW224595   3.186   7.356   6.195
 6069SOL    HW324596   3.329   7.364   6.243
 6069SOL    MW424597   3.246   7.394   6.246
 6070SOL     OW24598   3.196   5.879   6.387
 6070SOL    HW224599   3.224   5.811   6.448
 6070SOL    HW324600   3.110   5.850   6.357
 6070SOL    MW424601   3.189   5.866   6.391
 6071SOL     OW24602   2.001   6.813   6.321
 6071SOL    HW224603   2.065   6.845   6.384
 6071SOL    HW324604   2.050   6.749   6.269
 6071SOL    MW424605   2.016   6.809   6.322
 6072SOL     OW24606   3.176   5.983   5.722
 6072SOL    HW224607   3.149   6.049   5.658
 6072SOL    HW324608   3.246   6.026   5.772
 6072SOL    MW424609   3.181   5.996   5.719
 6073SOL     OW24610   2.844   5.688   5.659
 6073SOL    HW224611   2.900   5.680   5.581
 6073SOL    HW324612   2.821   5.598   5.681
 6073SOL    MW424613   2.849   5.675   5.652
 6074SOL     OW24614   3.349   6.539   5.864
 6074SOL    HW224615   3.316   6.628   5.854
 6074SOL    HW324616   3.314   6.510   5.949
 6074SOL    MW424617   3.339   6.548   5.875
 6075SOL     OW24618   2.279   7.126   6.693
 6075SOL    HW224619   2.324   7.188   6.750
 6075SOL    HW324620   2.186   7.145   6.706
 6075SOL    MW424621   2.272   7.136   6.700
 6076SOL     OW24622   2.701   7.194   6.801
 6076SOL    HW224623   2.725   7.183   6.710
 6076SOL    HW324624   2.624   7.251   6.799
 6076SOL    MW424625   2.693   7.199   6.790
 6077SOL     OW24626   2.343   6.577   5.656
 6077SOL    HW224627   2.266   6.590   5.712
 6077SOL    HW324628   2.307   6.541   5.575
 6077SOL    MW424629   2.329   6.573   5.653
 6078SOL     OW24630   2.996   6.550   5.899
 6078SOL    HW224631   2.906   6.571   5.874
 6078SOL    HW324632   3.023   6.623   5.955
 6078SOL    MW424633   2.988   6.562   5.902
 6079SOL     OW24634   2.496   6.899   6.591
 6079SOL    HW224635   2.489   6.878   6.685
 6079SOL    HW324636   2.414   6.867   6.554
 6079SOL    MW424637   2.484   6.893   6.598
 6080SOL     OW24638   2.625   5.666   6.306
 6080SOL    HW224639   2.554   5.727   6.288
 6080SOL    HW324640   2.676   5.663   6.225
 6080SOL    MW424641   2.621   5.672   6.293
 6081SOL     OW24642   2.383   6.906   6.055
 6081SOL    HW224643   2.376   6.938   6.145
 6081SOL    HW324644   2.293   6.890   6.027
 6081SOL    MW424645   2.371   6.908   6.062
 6082SOL     OW24646   3.092   7.264   6.454
 6082SOL    HW224647   3.139   7.337   6.413
 6082SOL    HW324648   3.013   7.303   6.490
 6082SOL    MW424649   3.087   7.279   6.453
 6083SOL     OW24650   3.500   7.359   6.729
 6083SOL    HW224651   3.543   7.329   6.809
 6083SOL    HW324652   3.419   7.307   6.726
 6083SOL    MW424653   3.495   7.348   6.739
 6084SOL     OW24654   2.386   6.190   5.769
 6084SOL    HW224655   2.352   6.246   5.839
 6084SOL    HW324656   2.457   6.140   5.809
 6084SOL    MW424657   2.392   6.191   5.783
 6085SOL     OW24658   3.482   6.941   6.591
 6085SOL    HW224659   3.517   6.923   6.504
 6085SOL    HW324660   3.387   6.942   6.578
 6085SOL    MW424661   3.474   6.938   6.578
 6086SOL     OW24662   3.442   6.076   5.833
 6086SOL    HW224663   3.434   6.147   5.770
 6086SOL    HW324664   3.460   6.120   5.916
 6086SOL    MW424665   3.443   6.090   5.835
 6087SOL     OW24666   2.302   5.731   6.262
 6087SOL    HW224667   2.352   5.774   6.193
 6087SOL    HW324668   2.217   5.775   6.262
 6087SOL    MW424669   2.299   5.744   6.253
 6088SOL     OW24670   3.111   6.338   5.808
 6088SOL    HW224671   3.158   6.356   5.727
 6088SOL    HW324672   3.077   6.422   5.836
 6088SOL    MW424673   3.113   6.352   5.801
 6089SOL     OW24674   2.224   6.516   6.302
 6089SOL    HW224675   2.282   6.572   6.250
 6089SOL    HW324676   2.268   6.431   6.304
 6089SOL    MW424677   2.237   6.513   6.295
 6090SOL     OW24678   3.364   5.868   6.139
 6090SOL    HW224679   3.286   5.818   6.164
 6090SOL    HW324680   3.335   5.959   6.139
 6090SOL    MW424681   3.350   5.872   6.142
 6091SOL     OW24682   2.950   5.830   6.298
 6091SOL    HW224683   2.970   5.905   6.242
 6091SOL    HW324684   2.930   5.869   6.383
 6091SOL    MW424685   2.951   5.846   6.302
 6092SOL     OW24686   2.846   7.080   5.630
 6092SOL    HW224687   2.873   7.158   5.582
 6092SOL    HW324688   2.753   7.095   5.649
 6092SOL    MW424689   2.837   7.093   5.626
 6093SOL     OW24690   1.931   7.116   6.474
 6093SOL    HW224691   1.963   7.120   6.565
 6093SOL    HW324692   1.836   7.124   6.482
 6093SOL    MW424693   1.923   7.119   6.487
 6094SOL     OW24694   1.886   6.242   6.021
 6094SOL    HW224695   1.826   6.214   6.091
 6094SOL    HW324696   1.960   6.182   6.027
 6094SOL    MW424697   1.888   6.231   6.030
 6095SOL     OW24698   3.054   6.973   6.181
 6095SOL    HW224699   3.077   6.924   6.259
 6095SOL    HW324700   3.135   7.015   6.153
 6095SOL    MW424701   3.067   6.973   6.188
 6096SOL     OW24702   2.266   5.948   6.646
 6096SOL    HW224703   2.296   5.862   6.617
 6096SOL    HW324704   2.171   5.941   6.649
 6096SOL    MW424705   2.258   5.937   6.644
 6097SOL     OW24706   2.409   5.726   6.537
 6097SOL    HW224707   2.419   5.635   6.563
 6097SOL    HW324708   2.365   5.722   6.452
 6097SOL    MW424709   2.405   5.714   6.529
 6098SOL     OW24710   3.560   6.048   6.708
 6098SOL    HW224711   3.493   6.081   6.768
 6098SOL    HW324712   3.603   6.126   6.674
 6098SOL    MW424713   3.558   6.063   6.712
 6099SOL     OW24714   3.738   6.768   6.678
 6099SOL    HW224715   3.731   6.708   6.603
 6099SOL    HW324716   3.664   6.828   6.667
 6099SOL    MW424717   3.728   6.768   6.667
 6100SOL     OW24718   3.120   6.630   6.596
 6100SOL    HW224719   3.134   6.602   6.687
 6100SOL    HW324720   3.206   6.661   6.568
 6100SOL    MW424721   3.133   6.631   6.605
 6101SOL     OW24722   3.194   5.640   5.817
 6101SOL    HW224723   3.268   5.684   5.860
 6101SOL    HW324724   3.118   5.694   5.839
 6101SOL    MW424725   3.194   5.652   5.825
 6102SOL     OW24726   3.254   6.415   6.095
 6102SOL    HW224727   3.169   6.385   6.065
 6102SOL    HW324728   3.246   6.422   6.190
 6102SOL    MW424729   3.242   6.413   6.104
 6103SOL     OW24730   2.614   5.858   6.649
 6103SOL    HW224731   2.587   5.860   6.740
 6103SOL    HW324732   2.544   5.810   6.604
 6103SOL    MW424733   2.602   5.854   6.656
 6104SOL     OW24734   2.627   6.081   5.821
 6104SOL    HW224735   2.700   6.130   5.784
 6104SOL    HW324736   2.643   5.990   5.795
 6104SOL    MW424737   2.639   6.076   5.814
 6105SOL     OW24738   3.095   5.677   6.735
 6105SOL    HW224739   3.150   5.686   6.657
 6105SOL    HW324740   3.150   5.711   6.806
 6105SOL    MW424741   3.109   5.682   6.734
 6106SOL     OW24742   2.102   6.590   5.919
 6106SOL    HW224743   2.039   6.606   5.848
 6106SOL    HW324744   2.049   6.553   5.990
 6106SOL    MW424745   2.087   6.587   5.919
 6107SOL     OW24746   2.458   6.944   5.778
 6107SOL    HW224747   2.473   6.920   5.870
 6107SOL    HW324748   2.366   6.922   5.762
 6107SOL    MW424749   2.448   6.937   5.788
 6108SOL     OW24750   2.997   7.175   5.930
 6108SOL    HW224751   3.005   7.093   5.881
 6108SOL    HW324752   2.916   7.214   5.897
 6108SOL    MW424753   2.987   7.170   5.920
 6109SOL     OW24754   2.256   7.333   6.499
 6109SOL    HW224755   2.260   7.244   6.534
 6109SOL    HW324756   2.282   7.324   6.408
 6109SOL    MW424757   2.259   7.321   6.491
 6110SOL     OW24758   2.873   6.811   6.742
 6110SOL    HW224759   2.805   6.745   6.758
 6110SOL    HW324760   2.891   6.805   6.649
 6110SOL    MW424761   2.866   6.802   6.733
 6111SOL     OW24762   2.866   5.950   6.563
 6111SOL    HW224763   2.796   5.902   6.608
 6111SOL    HW324764   2.898   6.013   6.627
 6111SOL    MW424765   2.861   5.952   6.577
 6112SOL     OW24766   2.333   6.056   6.376
 6112SOL    HW224767   2.404   6.004   6.339
 6112SOL    HW324768   2.319   6.021   6.463
 6112SOL    MW424769   2.341   6.045   6.383
 6113SOL     OW24770   2.649   7.149   6.452
 6113SOL    HW224771   2.577   7.086   6.465
 6113SOL    HW324772   2.610   7.234   6.470
 6113SOL    MW424773   2.633   7.152   6.455
 6114SOL     OW24774   2.969   5.997   6.100
 6114SOL    HW224775   2.991   5.934   6.032
 6114SOL    HW324776   2.874   5.989   6.111
 6114SOL    MW424777   2.959   5.988   6.092
 6115SOL     OW24778   2.054   5.687   6.032
 6115SOL    HW224779   2.125   5.708   5.971
 6115SOL    HW324780   2.008   5.615   5.990
 6115SOL    MW424781   2.058   5.681   6.018
 6116SOL     OW24782   3.623   7.061   6.132
 6116SOL    HW224783   3.593   6.994   6.193
 6116SOL    HW324784   3.717   7.067   6.146
 6116SOL    MW424785   3.631   7.053   6.142
 6117SOL     OW24786   3.179   6.738   6.062
 6117SOL    HW224787   3.151   6.824   6.095
 6117SOL    HW324788   3.207   6.754   5.972
 6117SOL    MW424789   3.179   6.752   6.054
 6118SOL     OW24790   2.841   5.658   6.115
 6118SOL    HW224791   2.878   5.717   6.180
 6118SOL    HW324792   2.818   5.714   6.041
 6118SOL    MW424793   2.842   5.673   6.114
 6119SOL     OW24794   3.694   6.540   6.537
 6119SOL    HW224795   3.685   6.572   6.448
 6119SOL    HW324796   3.647   6.456   6.537
 6119SOL    MW424797   3.687   6.533   6.527
 6120SOL     OW24798   3.606   6.471   6.238
 6120SOL    HW224799   3.700   6.460   6.226
 6120SOL    HW324800   3.582   6.543   6.179
 6120SOL    MW424801   3.616   6.479   6.229
 6121SOL     OW24802   2.262   6.349   6.011
 6121SOL    HW224803   2.262   6.444   5.996
 6121SOL    HW324804   2.339   6.333   6.065
 6121SOL    MW424805   2.272   6.360   6.016
 6122SOL     OW24806   2.021   6.080   6.300
 6122SOL    HW224807   2.083   6.087   6.373
 6122SOL    HW324808   2.021   5.987   6.277
 6122SOL    MW424809   2.029   6.069   6.307
 6123SOL     OW24810   2.703   6.341   6.784
 6123SOL    HW224811   2.661   6.259   6.760
 6123SOL    HW324812   2.704   6.340   6.880
 6123SOL    MW424813   2.696   6.330   6.793
 6124SOL     OW24814   1.890   6.652   5.758
 6124SOL    HW224815   1.859   6.717   5.821
 6124SOL    HW324816   1.839   6.574   5.777
 6124SOL    MW424817   1.880   6.649   5.768
 6125SOL     OW24818   3.302   5.664   6.506
 6125SOL    HW224819   3.390   5.673   6.543
 6125SOL    HW324820   3.312   5.605   6.432
 6125SOL    MW424821   3.316   5.658   6.500
 6126SOL     OW24822   3.334   6.403   6.350
 6126SOL    HW224823   3.414   6.418   6.299
 6126SOL    HW324824   3.327   6.308   6.356
 6126SOL    MW424825   3.343   6.392   6.345
 6127SOL     OW24826   2.474   7.452   5.700
 6127SOL    HW224827   2.379   7.452   5.692
 6127SOL    HW324828   2.490   7.398   5.778
 6127SOL    MW424829   2.464   7.446   5.709
 6128SOL     OW24830   3.319   6.272   5.615
 6128SOL    HW224831   3.247   6.248   5.557
 6128SOL    HW324832   3.385   6.309   5.557
 6128SOL    MW424833   3.318   6.274   5.600
 6129SOL     OW24834   2.453   7.004   6.296
 6129SOL    HW224835   2.518   6.937   6.317
 6129SOL    HW324836   2.505   7.081   6.273
 6129SOL    MW424837   2.468   7.006   6.295
 6130SOL     OW24838   2.714   6.169   6.426
 6130SOL    HW224839   2.654   6.187   6.498
 6130SOL    HW324840   2.748   6.081   6.445
 6130SOL    MW424841   2.710   6.159   6.439
 6131SOL     OW24842   2.939   6.752   6.445
 6131SOL    HW224843   3.031   6.733   6.463
 6131SOL    HW324844   2.912   6.682   6.385
 6131SOL    MW424845   2.947   6.740   6.439
 6132SOL     OW24846   2.732   6.572   5.800
 6132SOL    HW224847   2.718   6.484   5.765
 6132SOL    HW324848   2.683   6.629   5.741
 6132SOL    MW424849   2.724   6.567   5.788
 6133SOL     OW24850   3.213   6.990   6.541
 6133SOL    HW224851   3.186   7.074   6.506
 6133SOL    HW324852   3.173   6.985   6.628
 6133SOL    MW424853   3.206   6.999   6.547
 6134SOL     OW24854   2.145   6.296   6.579
 6134SOL    HW224855   2.095   6.295   6.660
 6134SOL    HW324856   2.165   6.388   6.563
 6134SOL    MW424857   2.141   6.308   6.587
 6135SOL     OW24858   3.451   5.778   5.902
 6135SOL    HW224859   3.444   5.782   5.997
 6135SOL    HW324860   3.463   5.869   5.875
 6135SOL    MW424861   3.452   5.791   5.910
 6136SOL     OW24862   2.740   6.341   6.016
 6136SOL    HW224863   2.720   6.327   5.923
 6136SOL    HW324864   2.833   6.320   6.023
 6136SOL    MW424865   2.750   6.336   6.005
 6137SOL     OW24866   2.723   7.299   6.054
 6137SOL    HW224867   2.781   7.370   6.081
 6137SOL    HW324868   2.746   7.227   6.112
 6137SOL    MW424869   2.734   7.299   6.065
 6138SOL     OW24870   3.518   5.761   6.644
 6138SOL    HW224871   3.563   5.679   6.663
 6138SOL    HW324872   3.538   5.817   6.720
 6138SOL    MW424873   3.528   5.757   6.656
 6139SOL     OW24874   1.966   5.604   6.743
 6139SOL    HW224875   1.957   5.605   6.648
 6139SOL    HW324876   2.060   5.616   6.758
 6139SOL    MW424877   1.978   5.607   6.734
 6140SOL     OW24878   3.603   6.797   6.363
 6140SOL    HW224879   3.582   6.743   6.286
 6140SOL    HW324880   3.699   6.795   6.367
 6140SOL    MW424881   3.612   6.790   6.352
 6141SOL     OW24882   2.179   5.731   5.789
 6141SOL    HW224883   2.108   5.786   5.757
 6141SOL    HW324884   2.221   5.697   5.710
 6141SOL    MW424885   2.175   5.733   5.775
 6142SOL     OW24886   3.303   6.228   6.625
 6142SOL    HW224887   3.226   6.274   6.591
 6142SOL    HW324888   3.360   6.297   6.659
 6142SOL    MW424889   3.300   6.243   6.625
 6143SOL     OW24890   1.935   5.830   5.638
 6143SOL    HW224891   1.902   5.909   5.682
 6143SOL    HW324892   1.990   5.863   5.567
 6143SOL    MW424893   1.938   5.844   5.635
 6144SOL     OW24894   1.969   7.087   5.827
 6144SOL    HW224895   1.986   7.171   5.869
 6144SOL    HW324896   2.004   7.096   5.739
 6144SOL    MW424897   1.974   7.100   5.821
 6145SOL     OW24898   3.241   7.176   6.044
 6145SOL    HW224899   3.304   7.166   5.973
 6145SOL    HW324900   3.158   7.196   5.999
 6145SOL    MW424901   3.238   7.177   6.029
 6146SOL     OW24902   5.338   0.771   1.252
 6146SOL    HW224903   5.293   0.838   1.303
 6146SOL    HW324904   5.426   0.807   1.238
 6146SOL    MW424905   5.344   0.784   1.256
 6147SOL     OW24906   4.266   1.022   0.486
 6147SOL    HW224907   4.356   0.997   0.470
 6147SOL    HW324908   4.262   1.115   0.463
 6147SOL    MW424909   4.278   1.031   0.481
 6148SOL     OW24910   5.382   1.725   0.628
 6148SOL    HW224911   5.394   1.671   0.706
 6148SOL    HW324912   5.419   1.673   0.557
 6148SOL    MW424913   5.388   1.710   0.629
 6149SOL     OW24914   4.761   1.610   1.629
 6149SOL    HW224915   4.802   1.646   1.550
 6149SOL    HW324916   4.796   1.521   1.636
 6149SOL    MW424917   4.772   1.603   1.620
 6150SOL     OW24918   5.318   1.165   1.233
 6150SOL    HW224919   5.239   1.130   1.191
 6150SOL    HW324920   5.345   1.237   1.177
 6150SOL    MW424921   5.311   1.170   1.220
 6151SOL     OW24922   4.550   0.478   0.499
 6151SOL    HW224923   4.525   0.566   0.527
 6151SOL    HW324924   4.547   0.481   0.403
 6151SOL    MW424925   4.546   0.490   0.491
 6152SOL     OW24926   3.992   0.506   0.427
 6152SOL    HW224927   4.024   0.594   0.409
 6152SOL    HW324928   3.980   0.504   0.522
 6152SOL    MW424929   3.995   0.518   0.439
 6153SOL     OW24930   4.070   0.919   1.328
 6153SOL    HW224931   4.133   0.866   1.279
 6153SOL    HW324932   4.051   0.993   1.271
 6153SOL    MW424933   4.076   0.921   1.315
 6154SOL     OW24934   4.391   0.261   0.514
 6154SOL    HW224935   4.449   0.337   0.516
 6154SOL    HW324936   4.326   0.282   0.447
 6154SOL    MW424937   4.390   0.273   0.505
 6155SOL     OW24938   4.478   1.188   0.689
 6155SOL    HW224939   4.558   1.191   0.741
 6155SOL    HW324940   4.506   1.155   0.603
 6155SOL    MW424941   4.492   1.184   0.684
 6156SOL     OW24942   4.503   1.529   1.592
 6156SOL    HW224943   4.587   1.555   1.631
 6156SOL    HW324944   4.527   1.473   1.518
 6156SOL    MW424945   4.517   1.525   1.587
 6157SOL     OW24946   4.255   0.692   0.680
 6157SOL    HW224947   4.240   0.612   0.731
 6157SOL    HW324948   4.337   0.727   0.714
 6157SOL    MW424949   4.263   0.684   0.692
 6158SOL     OW24950   4.592   1.378   1.365
 6158SOL    HW224951   4.556   1.444   1.305
 6158SOL    HW324952   4.520   1.316   1.378
 6158SOL    MW424953   4.578   1.378   1.359
 6159SOL     OW24954   4.397   0.518   1.057
 6159SOL    HW224955   4.303   0.514   1.075
 6159SOL    HW324956   4.427   0.427   1.066
 6159SOL    MW424957   4.388   0.506   1.060
 6160SOL     OW24958   4.143   0.932   0.961
 6160SOL    HW224959   4.098   0.939   0.877
 6160SOL    HW324960   4.123   1.015   1.005
 6160SOL    MW424961   4.135   0.944   0.955
 6161SOL     OW24962   3.840   1.778   0.836
 6161SOL    HW224963   3.929   1.770   0.871
 6161SOL    HW324964   3.804   1.690   0.841
 6161SOL    MW424965   3.847   1.765   0.841
 6162SOL     OW24966   4.104   1.305   0.871
 6162SOL    HW224967   4.080   1.358   0.947
 6162SOL    HW324968   4.160   1.363   0.819
 6162SOL    MW424969   4.108   1.320   0.874
 6163SOL     OW24970   4.666   0.949   0.681
 6163SOL    HW224971   4.580   0.936   0.721
 6163SOL    HW324972   4.719   0.876   0.713
 6163SOL    MW424973   4.662   0.938   0.690
 6164SOL     OW24974   4.074   1.601   1.466
 6164SOL    HW224975   3.982   1.577   1.451
 6164SOL    HW324976   4.118   1.518   1.483
 6164SOL    MW424977   4.068   1.586   1.465
 6165SOL     OW24978   4.657   1.311   0.398
 6165SOL    HW224979   4.634   1.373   0.466
 6165SOL    HW324980   4.614   1.229   0.424
 6165SOL    MW424981   4.649   1.307   0.409
 6166SOL     OW24982   5.530   0.312   0.854
 6166SOL    HW224983   5.467   0.292   0.923
 6166SOL    HW324984   5.520   0.241   0.791
 6166SOL    MW424985   5.520   0.299   0.855
 6167SOL     OW24986   4.154   0.284   0.366
 6167SOL    HW224987   4.128   0.246   0.282
 6167SOL    HW324988   4.091   0.354   0.382
 6167SOL    MW424989   4.143   0.287   0.357
 6168SOL     OW24990   3.989   1.245   0.403
 6168SOL    HW224991   3.937   1.313   0.359
 6168SOL    HW324992   3.986   1.171   0.343
 6168SOL    MW424993   3.981   1.244   0.390
 6169SOL     OW24994   5.331   1.084   0.506
 6169SOL    HW224995   5.241   1.084   0.541
 6169SOL    HW324996   5.324   1.130   0.423
 6169SOL    MW424997   5.318   1.090   0.500
 6170SOL     OW24998   5.131   0.719   1.578
 6170SOL    HW224999   5.200   0.657   1.555
 6170SOL    HW325000   5.056   0.693   1.525
 6170SOL    MW425001   5.131   0.706   1.569
 6171SOL     OW25002   3.872   1.599   1.130
 6171SOL    HW225003   3.855   1.545   1.207
 6171SOL    HW325004   3.860   1.689   1.160
 6171SOL    MW425005   3.869   1.603   1.144
 6172SOL     OW25006   4.867   1.106   1.570
 6172SOL    HW225007   4.852   1.199   1.555
 6172SOL    HW325008   4.962   1.096   1.570
 6172SOL    MW425009   4.876   1.116   1.567
 6173SOL     OW25010   4.663   0.530   1.771
 6173SOL    HW225011   4.753   0.531   1.738
 6173SOL    HW325012   4.622   0.455   1.729
 6173SOL    MW425013   4.669   0.520   1.762
 6174SOL     OW25014   5.238   1.062   0.898
 6174SOL    HW225015   5.241   0.996   0.829
 6174SOL    HW325016   5.323   1.105   0.894
 6174SOL    MW425017   5.250   1.058   0.889
 6175SOL     OW25018   4.858   0.665   0.467
 6175SOL    HW225019   4.884   0.689   0.378
 6175SOL    HW325020   4.840   0.572   0.463
 6175SOL    MW425021   4.860   0.657   0.454
 6176SOL     OW25022   4.443   0.334   1.721
 6176SOL    HW225023   4.453   0.260   1.661
 6176SOL    HW325024   4.479   0.303   1.804
 6176SOL    MW425025   4.449   0.320   1.723
 6177SOL     OW25026   4.179   1.701   0.636
 6177SOL    HW225027   4.211   1.789   0.614
 6177SOL    HW325028   4.132   1.673   0.558
 6177SOL    MW425029   4.178   1.709   0.623
 6178SOL     OW25030   5.563   0.063   0.685
 6178SOL    HW225031   5.617   0.014   0.747
 6178SOL    HW325032   5.506  -0.003   0.646
 6178SOL    MW425033   5.563   0.047   0.687
 6179SOL     OW25034   4.682   0.016   1.098
 6179SOL    HW225035   4.641   0.094   1.060
 6179SOL    HW325036   4.776   0.034   1.093
 6179SOL    MW425037   4.688   0.028   1.093
 6180SOL     OW25038   4.628   0.987   1.593
 6180SOL    HW225039   4.605   0.967   1.683
 6180SOL    HW325040   4.713   1.031   1.598
 6180SOL    MW425041   4.635   0.990   1.605
 6181SOL     OW25042   4.708   0.124   1.353
 6181SOL    HW225043   4.714   0.086   1.266
 6181SOL    HW325044   4.697   0.218   1.338
 6181SOL    MW425045   4.709   0.132   1.341
 6182SOL     OW25046   4.797   0.613   1.187
 6182SOL    HW225047   4.872   0.642   1.134
 6182SOL    HW325048   4.729   0.678   1.171
 6182SOL    MW425049   4.798   0.625   1.177
 6183SOL     OW25050   5.347   0.581   1.464
 6183SOL    HW225051   5.328   0.490   1.443
 6183SOL    HW325052   5.325   0.630   1.385
 6183SOL    MW425053   5.342   0.574   1.451
 6184SOL     OW25054   5.489   1.675   1.368
 6184SOL    HW225055   5.417   1.637   1.419
 6184SOL    HW325056   5.506   1.760   1.409
 6184SOL    MW425057   5.483   1.680   1.380
 6185SOL     OW25058   4.794   0.319   1.570
 6185SOL    HW225059   4.760   0.358   1.489
 6185SOL    HW325060   4.772   0.227   1.563
 6185SOL    MW425061   4.787   0.312   1.560
 6186SOL     OW25062   5.203   1.133   1.646
 6186SOL    HW225063   5.285   1.174   1.676
 6186SOL    HW325064   5.166   1.095   1.726
 6186SOL    MW425065   5.209   1.134   1.661
 6187SOL     OW25066   5.498   0.506   0.630
 6187SOL    HW225067   5.587   0.475   0.647
 6187SOL    HW325068   5.441   0.446   0.678
 6187SOL    MW425069   5.501   0.494   0.639
 6188SOL     OW25070   3.924   0.220   0.659
 6188SOL    HW225071   3.915   0.160   0.585
 6188SOL    HW325072   3.857   0.191   0.722
 6188SOL    MW425073   3.914   0.207   0.657
 6189SOL     OW25074   4.867   1.313   0.220
 6189SOL    HW225075   4.817   1.315   0.302
 6189SOL    HW325076   4.801   1.331   0.152
 6189SOL    MW425077   4.853   1.315   0.222
 6190SOL     OW25078   3.871   0.393   1.022
 6190SOL    HW225079   3.843   0.484   1.031
 6190SOL    HW325080   3.808   0.354   0.961
 6190SOL    MW425081   3.858   0.399   1.016
 6191SOL     OW25082   5.458   1.251   1.725
 6191SOL    HW225083   5.508   1.177   1.757
 6191SOL    HW325084   5.404   1.278   1.800
 6191SOL    MW425085   5.458   1.245   1.738
 6192SOL     OW25086   5.592   0.886   1.227
 6192SOL    HW225087   5.608   0.924   1.140
 6192SOL    HW325088   5.626   0.952   1.288
 6192SOL    MW425089   5.599   0.899   1.223
 6193SOL     OW25090   5.384   1.595   0.896
 6193SOL    HW225091   5.413   1.662   0.957
 6193SOL    HW325092   5.365   1.519   0.951
 6193SOL    MW425093   5.386   1.595   0.911
 6194SOL     OW25094   3.855   0.668   1.192
 6194SOL    HW225095   3.917   0.698   1.258
 6194SOL    HW325096   3.789   0.737   1.186
 6194SOL    MW425097   3.854   0.681   1.199
 6195SOL     OW25098   3.950   1.777   1.644
 6195SOL    HW225099   3.924   1.845   1.582
 6195SOL    HW325100   3.998   1.714   1.592
 6195SOL    MW425101   3.952   1.777   1.630
 6196SOL     OW25102   4.002   1.096   1.151
 6196SOL    HW225103   4.055   1.171   1.176
 6196SOL    HW325104   3.921   1.134   1.117
 6196SOL    MW425105   3.998   1.111   1.151
 6197SOL     OW25106   4.542   1.000   1.139
 6197SOL    HW225107   4.570   0.909   1.151
 6197SOL    HW325108   4.471   0.994   1.075
 6197SOL    MW425109   4.535   0.988   1.134
 6198SOL     OW25110   3.857   0.865   0.557
 6198SOL    HW225111   3.948   0.880   0.584
 6198SOL    HW325112   3.860   0.786   0.503
 6198SOL    MW425113   3.869   0.857   0.555
 6199SOL     OW25114   4.093   0.573   1.811
 6199SOL    HW225115   4.040   0.653   1.818
 6199SOL    HW325116   4.163   0.585   1.876
 6199SOL    MW425117   4.095   0.586   1.819
 6200SOL     OW25118   4.479   0.123   1.518
 6200SOL    HW225119   4.456   0.031   1.520
 6200SOL    HW325120   4.565   0.125   1.475
 6200SOL    MW425121   4.486   0.113   1.514
 6201SOL     OW25122   4.163   0.647   1.557
 6201SOL    HW225123   4.243   0.697   1.543
 6201SOL    HW325124   4.154   0.641   1.652
 6201SOL    MW425125   4.172   0.653   1.567
 6202SOL     OW25126   4.484   1.797   0.931
 6202SOL    HW225127   4.573   1.812   0.961
 6202SOL    HW325128   4.479   1.844   0.847
 6202SOL    MW425129   4.494   1.805   0.924
 6203SOL     OW25130   5.140   0.172   1.828
 6203SOL    HW225131   5.196   0.099   1.854
 6203SOL    HW325132   5.110   0.210   1.910
 6203SOL    MW425133   5.144   0.167   1.841
 6204SOL     OW25134   3.865   1.477   0.596
 6204SOL    HW225135   3.837   1.516   0.678
 6204SOL    HW325136   3.885   1.386   0.618
 6204SOL    MW425137   3.863   1.469   0.609
 6205SOL     OW25138   4.698   1.520   0.631
 6205SOL    HW225139   4.781   1.474   0.615
 6205SOL    HW325140   4.688   1.519   0.727
 6205SOL    MW425141   4.708   1.513   0.641
 6206SOL     OW25142   5.530   0.665   0.945
 6206SOL    HW225143   5.619   0.695   0.927
 6206SOL    HW325144   5.510   0.605   0.874
 6206SOL    MW425145   5.539   0.662   0.934
 6207SOL     OW25146   5.381   0.844   1.825
 6207SOL    HW225147   5.436   0.768   1.806
 6207SOL    HW325148   5.383   0.852   1.920
 6207SOL    MW425149   5.389   0.835   1.833
 6208SOL     OW25150   4.676   0.406   1.344
 6208SOL    HW225151   4.595   0.447   1.372
 6208SOL    HW325152   4.723   0.474   1.296
 6208SOL    MW425153   4.671   0.421   1.342
 6209SOL     OW25154   4.936   0.744   0.967
 6209SOL    HW225155   4.949   0.838   0.977
 6209SOL    HW325156   4.897   0.734   0.881
 6209SOL    MW425157   4.932   0.755   0.957
 6210SOL     OW25158   4.388   0.939   0.771
 6210SOL    HW225159   4.299   0.930   0.804
 6210SOL    HW325160   4.392   1.029   0.739
 6210SOL    MW425161   4.377   0.950   0.771
 6211SOL     OW25162   5.187   0.522   0.766
 6211SOL    HW225163   5.132   0.443   0.765
 6211SOL    HW325164   5.169   0.563   0.850
 6211SOL    MW425165   5.177   0.517   0.775
 6212SOL     OW25166   4.158   0.209   1.583
 6212SOL    HW225167   4.079   0.227   1.635
 6212SOL    HW325168   4.153   0.271   1.510
 6212SOL    MW425169   4.148   0.219   1.580
 6213SOL     OW25170   4.806   0.726   0.723
 6213SOL    HW225171   4.743   0.658   0.747
 6213SOL    HW325172   4.826   0.707   0.631
 6213SOL    MW425173   4.800   0.713   0.715
 6214SOL     OW25174   4.062   1.621   0.425
 6214SOL    HW225175   4.023   1.668   0.351
 6214SOL    HW325176   3.996   1.556   0.450
 6214SOL    MW425177   4.049   1.619   0.419
 6215SOL     OW25178   5.107   1.590   1.221
 6215SOL    HW225179   5.032   1.636   1.259
 6215SOL    HW325180   5.089   1.497   1.238
 6215SOL    MW425181   5.096   1.584   1.229
 6216SOL     OW25182   5.111   1.798   0.651
 6216SOL    HW225183   5.054   1.751   0.590
 6216SOL    HW325184   5.197   1.759   0.638
 6216SOL    MW425185   5.114   1.789   0.641
 6217SOL     OW25186   5.064   0.274   0.782
 6217SOL    HW225187   5.092   0.206   0.843
 6217SOL    HW325188   4.978   0.245   0.752
 6217SOL    MW425189   5.057   0.261   0.786
 6218SOL     OW25190   3.869   1.208   0.716
 6218SOL    HW225191   3.933   1.240   0.779
 6218SOL    HW325192   3.918   1.144   0.664
 6218SOL    MW425193   3.884   1.204   0.717
 6219SOL     OW25194   4.369   1.284   1.698
 6219SOL    HW225195   4.417   1.367   1.685
 6219SOL    HW325196   4.426   1.232   1.754
 6219SOL    MW425197   4.383   1.288   1.704
 6220SOL     OW25198   3.945   1.526   1.838
 6220SOL    HW225199   4.001   1.450   1.853
 6220SOL    HW325200   3.894   1.504   1.760
 6220SOL    MW425201   3.945   1.513   1.829
 6221SOL     OW25202   4.830   1.363   1.447
 6221SOL    HW225203   4.741   1.369   1.415
 6221SOL    HW325204   4.874   1.442   1.415
 6221SOL    MW425205   4.825   1.373   1.439
 6222SOL     OW25206   4.123   0.031   1.789
 6222SOL    HW225207   4.051  -0.004   1.737
 6222SOL    HW325208   4.181   0.072   1.724
 6222SOL    MW425209   4.121   0.032   1.774
 6223SOL     OW25210   4.147   1.521   1.088
 6223SOL    HW225211   4.192   1.583   1.145
 6223SOL    HW325212   4.054   1.540   1.101
 6223SOL    MW425213   4.140   1.531   1.095
 6224SOL     OW25214   5.587   1.050   1.442
 6224SOL    HW225215   5.502   1.063   1.401
 6224SOL    HW325216   5.567   1.014   1.529
 6224SOL    MW425217   5.574   1.046   1.447
 6225SOL     OW25218   4.569   1.589   1.196
 6225SOL    HW225219   4.593   1.578   1.105
 6225SOL    HW325220   4.492   1.646   1.194
 6225SOL    MW425221   4.561   1.594   1.185
 6226SOL     OW25222   4.364   1.294   0.986
 6226SOL    HW225223   4.357   1.273   1.080
 6226SOL    HW325224   4.282   1.262   0.949
 6226SOL    MW425225   4.352   1.288   0.993
 6227SOL     OW25226   5.228   0.304   1.388
 6227SOL    HW225227   5.175   0.306   1.468
 6227SOL    HW325228   5.213   0.217   1.351
 6227SOL    MW425229   5.220   0.294   1.393
 6228SOL     OW25230   5.564   0.228   1.261
 6228SOL    HW225231   5.545   0.295   1.196
 6228SOL    HW325232   5.621   0.166   1.216
 6228SOL    MW425233   5.568   0.229   1.247
 6229SOL     OW25234   3.810   1.386   1.649
 6229SOL    HW225235   3.854   1.319   1.595
 6229SOL    HW325236   3.725   1.348   1.669
 6229SOL    MW425237   3.805   1.372   1.645
 6230SOL     OW25238   4.493   0.061   0.701
 6230SOL    HW225239   4.422   0.122   0.683
 6230SOL    HW325240   4.544   0.058   0.620
 6230SOL    MW425241   4.489   0.067   0.688
 6231SOL     OW25242   4.251   1.301   0.450
 6231SOL    HW225243   4.244   1.333   0.540
 6231SOL    HW325244   4.161   1.285   0.422
 6231SOL    MW425245   4.239   1.303   0.457
 6232SOL     OW25246   4.846   1.694   1.359
 6232SOL    HW225247   4.766   1.679   1.309
 6232SOL    HW325248   4.853   1.789   1.366
 6232SOL    MW425249   4.837   1.705   1.353
 6233SOL     OW25250   4.960   1.659   0.849
 6233SOL    HW225251   5.007   1.732   0.808
 6233SOL    HW325252   4.881   1.698   0.885
 6233SOL    MW425253   4.955   1.674   0.848
 6234SOL     OW25254   5.368   1.754   1.124
 6234SOL    HW225255   5.411   1.724   1.204
 6234SOL    HW325256   5.287   1.702   1.121
 6234SOL    MW425257   5.363   1.743   1.134
 6235SOL     OW25258   4.453   0.718   1.831
 6235SOL    HW225259   4.523   0.660   1.803
 6235SOL    HW325260   4.396   0.663   1.886
 6235SOL    MW425261   4.455   0.705   1.835
 6236SOL     OW25262   5.240   0.930   1.464
 6236SOL    HW225263   5.245   0.983   1.544
 6236SOL    HW325264   5.202   0.847   1.492
 6236SOL    MW425265   5.236   0.925   1.479
 6237SOL     OW25266   4.880   0.065   1.710
 6237SOL    HW225267   4.875  -0.028   1.691
 6237SOL    HW325268   4.963   0.076   1.756
 6237SOL    MW425269   4.888   0.054   1.714
 6238SOL     OW25270   5.350   1.336   0.986
 6238SOL    HW225271   5.385   1.318   0.899
 6238SOL    HW325272   5.255   1.337   0.973
 6238SOL    MW425273   5.342   1.333   0.973
 6239SOL     OW25274   4.779   0.984   1.355
 6239SOL    HW225275   4.822   1.019   1.433
 6239SOL    HW325276   4.762   1.061   1.301
 6239SOL    MW425277   4.782   0.999   1.358
 6240SOL     OW25278   4.170   0.126   0.657
 6240SOL    HW225279   4.220   0.169   0.588
 6240SOL    HW325280   4.085   0.170   0.657
 6240SOL    MW425281   4.167   0.139   0.648
 6241SOL     OW25282   3.929   1.188   1.517
 6241SOL    HW225283   3.957   1.141   1.595
 6241SOL    HW325284   3.850   1.143   1.488
 6241SOL    MW425285   3.922   1.177   1.523
 6242SOL     OW25286   4.437   0.515   1.484
 6242SOL    HW225287   4.409   0.603   1.508
 6242SOL    HW325288   4.406   0.459   1.555
 6242SOL    MW425289   4.429   0.518   1.496
 6243SOL     OW25290   4.979   0.733   0.203
 6243SOL    HW225291   5.026   0.751   0.122
 6243SOL    HW325292   4.945   0.817   0.231
 6243SOL    MW425293   4.981   0.747   0.196
 6244SOL     OW25294   4.092   0.911   0.697
 6244SOL    HW225295   4.150   0.967   0.645
 6244SOL    HW325296   4.136   0.826   0.699
 6244SOL    MW425297   4.105   0.908   0.690
 6245SOL     OW25298   5.232   0.263   0.534
 6245SOL    HW225299   5.154   0.213   0.559
 6245SOL    HW325300   5.203   0.354   0.534
 6245SOL    MW425301   5.218   0.267   0.537
 6246SOL     OW25302   4.818   0.225   0.693
 6246SOL    HW225303   4.838   0.300   0.637
 6246SOL    HW325304   4.798   0.264   0.778
 6246SOL    MW425305   4.819   0.241   0.697
 6247SOL     OW25306   5.578   0.998   1.712
 6247SOL    HW225307   5.491   0.978   1.748
 6247SOL    HW325308   5.632   0.924   1.737
 6247SOL    MW425309   5.573   0.987   1.720
 6248SOL     OW25310   3.799   1.511   0.869
 6248SOL    HW225311   3.831   1.515   0.960
 6248SOL    HW325312   3.704   1.519   0.877
 6248SOL    MW425313   3.791   1.514   0.882
 6249SOL     OW25314   5.322   1.849   1.850
 6249SOL    HW225315   5.367   1.773   1.815
 6249SOL    HW325316   5.360   1.862   1.937
 6249SOL    MW425317   5.332   1.842   1.856
 6250SOL     OW25318   4.922   1.368   0.576
 6250SOL    HW225319   4.945   1.319   0.654
 6250SOL    HW325320   5.003   1.410   0.548
 6250SOL    MW425321   4.935   1.368   0.583
 6251SOL     OW25322   4.180   0.376   1.305
 6251SOL    HW225323   4.213   0.457   1.345
 6251SOL    HW325324   4.153   0.402   1.217
 6251SOL    MW425325   4.179   0.390   1.299
 6252SOL     OW25326   4.134   0.343   1.041
 6252SOL    HW225327   4.164   0.257   1.012
 6252SOL    HW325328   4.039   0.336   1.044
 6252SOL    MW425329   4.126   0.332   1.039
 6253SOL     OW25330   4.963   0.552   1.732
 6253SOL    HW225331   5.015   0.487   1.685
 6253SOL    HW325332   4.921   0.603   1.662
 6253SOL    MW425333   4.964   0.549   1.715
 6254SOL     OW25334   5.062   0.347   1.593
 6254SOL    HW225335   4.969   0.331   1.580
 6254SOL    HW325336   5.088   0.285   1.661
 6254SOL    MW425337   5.052   0.337   1.600
 6255SOL     OW25338   4.277   0.121   0.932
 6255SOL    HW225339   4.287   0.030   0.958
 6255SOL    HW325340   4.233   0.117   0.847
 6255SOL    MW425341   4.273   0.109   0.924
 6256SOL     OW25342   4.371   1.736   1.478
 6256SOL    HW225343   4.288   1.721   1.523
 6256SOL    HW325344   4.430   1.669   1.513
 6256SOL    MW425345   4.369   1.726   1.488
 6257SOL     OW25346   5.428   0.443   1.103
 6257SOL    HW225347   5.361   0.476   1.163
 6257SOL    HW325348   5.471   0.521   1.069
 6257SOL    MW425349   5.426   0.458   1.107
 6258SOL     OW25350   5.606   1.163   1.073
 6258SOL    HW225351   5.599   1.103   0.998
 6258SOL    HW325352   5.532   1.223   1.062
 6258SOL    MW425353   5.596   1.163   1.062
 6259SOL     OW25354   4.988   1.025   0.991
 6259SOL    HW225355   5.002   0.997   1.082
 6259SOL    HW325356   5.074   1.056   0.963
 6259SOL    MW425357   5.001   1.026   1.000
 6260SOL     OW25358   5.071   0.520   1.270
 6260SOL    HW225359   5.092   0.521   1.177
 6260SOL    HW325360   5.116   0.442   1.303
 6260SOL    MW425361   5.078   0.510   1.262
 6261SOL     OW25362   5.564   0.651   1.812
 6261SOL    HW225363   5.601   0.596   1.881
 6261SOL    HW325364   5.589   0.608   1.730
 6261SOL    MW425365   5.571   0.639   1.811
 6262SOL     OW25366   5.111   0.949   1.863
 6262SOL    HW225367   5.177   0.897   1.817
 6262SOL    HW325368   5.131   0.936   1.956
 6262SOL    MW425369   5.122   0.940   1.870
 6263SOL     OW25370   5.062   0.035   0.212
 6263SOL    HW225371   5.136   0.079   0.255
 6263SOL    HW325372   4.986   0.089   0.234
 6263SOL    MW425373   5.062   0.047   0.220
 6264SOL     OW25374   5.122   0.810   0.490
 6264SOL    HW225375   5.037   0.780   0.460
 6264SOL    HW325376   5.114   0.817   0.585
 6264SOL    MW425377   5.110   0.808   0.499
 6265SOL     OW25378   4.198   1.273   1.221
 6265SOL    HW225379   4.210   1.300   1.312
 6265SOL    HW325380   4.179   1.354   1.174
 6265SOL    MW425381   4.197   1.288   1.226
 6266SOL     OW25382   4.482   0.253   1.044
 6266SOL    HW225383   4.455   0.255   1.135
 6266SOL    HW325384   4.412   0.205   0.999
 6266SOL    MW425385   4.470   0.249   1.051
 6267SOL     OW25386   4.336   1.745   1.206
 6267SOL    HW225387   4.388   1.822   1.183
 6267SOL    HW325388   4.345   1.737   1.301
 6267SOL    MW425389   4.345   1.752   1.217
 6268SOL     OW25390   5.238   1.330   1.438
 6268SOL    HW225391   5.223   1.259   1.501
 6268SOL    HW325392   5.284   1.288   1.366
 6268SOL    MW425393   5.244   1.314   1.438
 6269SOL     OW25394   4.312   1.061   1.555
 6269SOL    HW225395   4.349   1.066   1.467
 6269SOL    HW325396   4.351   1.134   1.602
 6269SOL    MW425397   4.322   1.071   1.550
 6270SOL     OW25398   4.492   1.104   1.367
 6270SOL    HW225399   4.551   1.050   1.420
 6270SOL    HW325400   4.507   1.076   1.277
 6270SOL    MW425401   4.502   1.093   1.363
 6271SOL     OW25402   5.303   1.593   1.539
 6271SOL    HW225403   5.345   1.578   1.624
 6271SOL    HW325404   5.294   1.506   1.501
 6271SOL    MW425405   5.307   1.581   1.546
 6272SOL     OW25406   4.963   0.072   1.130
 6272SOL    HW225407   5.018   0.081   1.052
 6272SOL    HW325408   5.018   0.106   1.201
 6272SOL    MW425409   4.977   0.077   1.129
 6273SOL     OW25410   4.124   1.728   0.894
 6273SOL    HW225411   4.128   1.639   0.929
 6273SOL    HW325412   4.150   1.719   0.803
 6273SOL    MW425413   4.127   1.716   0.886
 6274SOL     OW25414   4.741   1.206   1.137
 6274SOL    HW225415   4.673   1.140   1.153
 6274SOL    HW325416   4.759   1.200   1.044
 6274SOL    MW425417   4.734   1.197   1.128
 6275SOL     OW25418   3.830   1.481   1.388
 6275SOL    HW225419   3.820   1.439   1.474
 6275SOL    HW325420   3.751   1.534   1.378
 6275SOL    MW425421   3.819   1.482   1.399
 6276SOL     OW25422   4.734   0.345   0.958
 6276SOL    HW225423   4.664   0.297   1.003
 6276SOL    HW325424   4.766   0.408   1.022
 6276SOL    MW425425   4.729   0.347   0.972
 6277SOL     OW25426   4.385   0.781   1.578
 6277SOL    HW225427   4.378   0.876   1.566
 6277SOL    HW325428   4.394   0.770   1.673
 6277SOL    MW425429   4.386   0.793   1.588
 6278SOL     OW25430   4.106   1.296   1.836
 6278SOL    HW225431   4.178   1.298   1.773
 6278SOL    HW325432   4.076   1.205   1.835
 6278SOL    MW425433   4.111   1.285   1.828
 6279SOL     OW25434   5.190   0.059   1.303
 6279SOL    HW225435   5.261   0.005   1.267
 6279SOL    HW325436   5.189   0.038   1.396
 6279SOL    MW425437   5.199   0.050   1.311
 6280SOL     OW25438   5.390   1.589   1.787
 6280SOL    HW225439   5.363   1.586   1.878
 6280SOL    HW325440   5.486   1.593   1.790
 6280SOL    MW425441   5.400   1.589   1.799
 6281SOL     OW25442   4.201   0.451   0.771
 6281SOL    HW225443   4.272   0.399   0.734
 6281SOL    HW325444   4.187   0.416   0.858
 6281SOL    MW425445   4.209   0.440   0.778
 6282SOL     OW25446   3.756   1.786   1.843
 6282SOL    HW225447   3.806   1.764   1.765
 6282SOL    HW325448   3.764   1.881   1.851
 6282SOL    MW425449   3.764   1.795   1.834
 6283SOL     OW25450   4.517   1.544   0.847
 6283SOL    HW225451   4.445   1.481   0.860
 6283SOL    HW325452   4.478   1.629   0.865
 6283SOL    MW425453   4.501   1.547   0.850
 6284SOL     OW25454   4.837   0.392   0.495
 6284SOL    HW225455   4.859   0.329   0.427
 6284SOL    HW325456   4.742   0.384   0.506
 6284SOL    MW425457   4.827   0.383   0.487
 6285SOL     OW25458   3.753   0.549   1.570
 6285SOL    HW225459   3.817   0.615   1.545
 6285SOL    HW325460   3.672   0.576   1.527
 6285SOL    MW425461   3.751   0.561   1.562
 6286SOL     OW25462   5.491   1.456   0.527
 6286SOL    HW225463   5.461   1.389   0.588
 6286SOL    HW325464   5.585   1.462   0.541
 6286SOL    MW425465   5.499   1.448   0.537
 6287SOL     OW25466   5.047   1.133   0.457
 6287SOL    HW225467   5.019   1.219   0.490
 6287SOL    HW325468   5.075   1.149   0.367
 6287SOL    MW425469   5.047   1.147   0.449
 6288SOL     OW25470   4.709   0.053   0.510
 6288SOL    HW225471   4.746   0.112   0.575
 6288SOL    HW325472   4.686   0.109   0.436
 6288SOL    MW425473   4.710   0.068   0.509
 6289SOL     OW25474   5.562   0.935   0.932
 6289SOL    HW225475   5.553   0.967   0.843
 6289SOL    HW325476   5.515   0.851   0.932
 6289SOL    MW425477   5.555   0.928   0.922
 6290SOL     OW25478   3.938   0.775   1.511
 6290SOL    HW225479   3.959   0.844   1.449
 6290SOL    HW325480   4.018   0.722   1.516
 6290SOL    MW425481   3.951   0.776   1.505
 6291SOL     OW25482   5.474   0.866   0.633
 6291SOL    HW225483   5.568   0.855   0.621
 6291SOL    HW325484   5.450   0.938   0.574
 6291SOL    MW425485   5.484   0.874   0.624
 6292SOL     OW25486   3.923   0.790   1.778
 6292SOL    HW225487   3.849   0.734   1.804
 6292SOL    HW325488   3.918   0.793   1.683
 6292SOL    MW425489   3.912   0.783   1.768
 6293SOL     OW25490   4.089   0.077   1.228
 6293SOL    HW225491   4.132   0.161   1.248
 6293SOL    HW325492   4.162   0.015   1.221
 6293SOL    MW425493   4.104   0.080   1.229
 6294SOL     OW25494   4.130   0.744   0.406
 6294SOL    HW225495   4.130   0.839   0.391
 6294SOL    HW325496   4.207   0.728   0.460
 6294SOL    MW425497   4.140   0.755   0.411
 6295SOL     OW25498   4.906   0.603   1.470
 6295SOL    HW225499   4.942   0.576   1.386
 6295SOL    HW325500   4.819   0.637   1.449
 6295SOL    MW425501   4.900   0.604   1.457
 6296SOL     OW25502   3.889   0.475   0.695
 6296SOL    HW225503   3.951   0.482   0.768
 6296SOL    HW325504   3.889   0.382   0.672
 6296SOL    MW425505   3.897   0.464   0.702
 6297SOL     OW25506   4.571   0.736   1.179
 6297SOL    HW225507   4.529   0.654   1.155
 6297SOL    HW325508   4.572   0.735   1.275
 6297SOL    MW425509   4.564   0.725   1.188
 6298SOL     OW25510   5.242   1.869   1.578
 6298SOL    HW225511   5.245   1.775   1.561
 6298SOL    HW325512   5.265   1.877   1.670
 6298SOL    MW425513   5.245   1.857   1.588
 6299SOL     OW25514   4.375   0.206   1.284
 6299SOL    HW225515   4.306   0.269   1.305
 6299SOL    HW325516   4.402   0.170   1.369
 6299SOL    MW425517   4.369   0.209   1.297
 6300SOL     OW25518   5.170   0.059   0.901
 6300SOL    HW225519   5.258   0.068   0.938
 6300SOL    HW325520   5.180   0.000   0.827
 6300SOL    MW425521   5.184   0.053   0.895
 6301SOL     OW25522   5.202   0.798   0.745
 6301SOL    HW225523   5.282   0.813   0.694
 6301SOL    HW325524   5.195   0.703   0.751
 6301SOL    MW425525   5.211   0.787   0.740
 6302SOL     OW25526   4.652   0.724   1.442
 6302SOL    HW225527   4.721   0.791   1.439
 6302SOL    HW325528   4.585   0.762   1.498
 6302SOL    MW425529   4.653   0.737   1.449
 6303SOL     OW25530   4.070   1.024   1.690
 6303SOL    HW225531   4.024   0.940   1.692
 6303SOL    HW325532   4.127   1.018   1.614
 6303SOL    MW425533   4.072   1.012   1.682
 6304SOL     OW25534   5.187   0.667   0.011
 6304SOL    HW225535   5.115   0.643  -0.047
 6304SOL    HW325536   5.253   0.704  -0.047
 6304SOL    MW425537   5.186   0.669  -0.004
 6305SOL     OW25538   4.321   1.399   0.691
 6305SOL    HW225539   4.386   1.332   0.712
 6305SOL    HW325540   4.373   1.476   0.668
 6305SOL    MW425541   4.336   1.401   0.690
 6306SOL     OW25542   4.582   0.564   0.821
 6306SOL    HW225543   4.522   0.582   0.893
 6306SOL    HW325544   4.616   0.476   0.840
 6306SOL    MW425545   4.578   0.554   0.834
 6307SOL     OW25546   5.523   0.063   1.490
 6307SOL    HW225547   5.444   0.109   1.518
 6307SOL    HW325548   5.558   0.117   1.419
 6307SOL    MW425549   5.517   0.076   1.484
 6308SOL     OW25550   4.807   1.147   0.840
 6308SOL    HW225551   4.899   1.128   0.858
 6308SOL    HW325552   4.780   1.077   0.780
 6308SOL    MW425553   4.815   1.135   0.834
 6309SOL     OW25554   5.081   1.385   0.936
 6309SOL    HW225555   5.054   1.469   0.901
 6309SOL    HW325556   5.041   1.380   1.023
 6309SOL    MW425557   5.074   1.394   0.942
 6310SOL     OW25558   5.000   1.333   1.204
 6310SOL    HW225559   5.011   1.300   1.293
 6310SOL    HW325560   4.919   1.292   1.173
 6310SOL    MW425561   4.990   1.325   1.210
 6311SOL     OW25562   4.013   0.691   0.974
 6311SOL    HW225563   3.963   0.690   1.055
 6311SOL    HW325564   4.033   0.783   0.958
 6311SOL    MW425565   4.009   0.703   0.982
 6312SOL     OW25566   5.080   1.455   1.736
 6312SOL    HW225567   5.080   1.549   1.752
 6312SOL    HW325568   5.125   1.445   1.652
 6312SOL    MW425569   5.086   1.465   1.727
 6313SOL     OW25570   3.935   0.359   1.715
 6313SOL    HW225571   3.892   0.418   1.652
 6313SOL    HW325572   4.003   0.414   1.755
 6313SOL    MW425573   3.939   0.374   1.712
 6314SOL     OW25574   5.047   0.979   1.260
 6314SOL    HW225575   5.110   0.976   1.333
 6314SOL    HW325576   4.963   0.997   1.302
 6314SOL    MW425577   5.043   0.981   1.275
 6315SOL     OW25578   4.591   1.694   0.449
 6315SOL    HW225579   4.649   1.765   0.476
 6315SOL    HW325580   4.614   1.622   0.507
 6315SOL    MW425581   4.602   1.694   0.460
 6316SOL     OW25582   5.386   0.156   1.039
 6316SOL    HW225583   5.431   0.074   1.058
 6316SOL    HW325584   5.406   0.212   1.115
 6316SOL    MW425585   5.396   0.152   1.051
 6317SOL     OW25586   3.834  -0.001   1.138
 6317SOL    HW225587   3.825   0.000   1.043
 6317SOL    HW325588   3.928   0.011   1.153
 6317SOL    MW425589   3.846   0.002   1.129
 6318SOL     OW25590   5.471   1.192   0.758
 6318SOL    HW225591   5.450   1.138   0.681
 6318SOL    HW325592   5.567   1.190   0.762
 6318SOL    MW425593   5.480   1.185   0.747
 6319SOL     OW25594   4.163   1.337   1.501
 6319SOL    HW225595   4.084   1.287   1.524
 6319SOL    HW325596   4.233   1.296   1.551
 6319SOL    MW425597   4.161   1.325   1.511
 6320SOL     OW25598   5.171   0.623   1.020
 6320SOL    HW225599   5.094   0.669   0.986
 6320SOL    HW325600   5.228   0.692   1.054
 6320SOL    MW425601   5.168   0.638   1.020
 6321SOL     OW25602   3.837   1.482   0.222
 6321SOL    HW225603   3.854   1.566   0.264
 6321SOL    HW325604   3.872   1.491   0.134
 6321SOL    MW425605   3.842   1.495   0.216
 6322SOL     OW25606   5.109   1.571   0.439
 6322SOL    HW225607   5.172   1.561   0.368
 6322SOL    HW325608   5.026   1.591   0.394
 6322SOL    MW425609   5.106   1.572   0.424
 6323SOL     OW25610   5.472   0.839   2.125
 6323SOL    HW225611   5.513   0.781   2.190
 6323SOL    HW325612   5.379   0.831   2.142
 6323SOL    MW425613   5.466   0.831   2.135
 6324SOL     OW25614   5.338   0.771   3.120
 6324SOL    HW225615   5.293   0.838   3.171
 6324SOL    HW325616   5.426   0.807   3.106
 6324SOL    MW425617   5.344   0.784   3.124
 6325SOL     OW25618   4.266   1.022   2.354
 6325SOL    HW225619   4.356   0.997   2.338
 6325SOL    HW325620   4.262   1.115   2.331
 6325SOL    MW425621   4.278   1.031   2.349
 6326SOL     OW25622   5.382   1.725   2.496
 6326SOL    HW225623   5.394   1.671   2.574
 6326SOL    HW325624   5.419   1.673   2.425
 6326SOL    MW425625   5.388   1.710   2.497
 6327SOL     OW25626   4.761   1.610   3.497
 6327SOL    HW225627   4.802   1.646   3.418
 6327SOL    HW325628   4.796   1.521   3.504
 6327SOL    MW425629   4.772   1.603   3.488
 6328SOL     OW25630   5.318   1.165   3.101
 6328SOL    HW225631   5.239   1.130   3.059
 6328SOL    HW325632   5.345   1.237   3.045
 6328SOL    MW425633   5.311   1.170   3.088
 6329SOL     OW25634   4.550   0.478   2.367
 6329SOL    HW225635   4.525   0.566   2.395
 6329SOL    HW325636   4.547   0.481   2.271
 6329SOL    MW425637   4.546   0.490   2.359
 6330SOL     OW25638   3.992   0.506   2.295
 6330SOL    HW225639   4.024   0.594   2.277
 6330SOL    HW325640   3.980   0.504   2.390
 6330SOL    MW425641   3.995   0.518   2.307
 6331SOL     OW25642   4.070   0.919   3.196
 6331SOL    HW225643   4.133   0.866   3.147
 6331SOL    HW325644   4.051   0.993   3.139
 6331SOL    MW425645   4.076   0.921   3.183
 6332SOL     OW25646   4.391   0.261   2.382
 6332SOL    HW225647   4.449   0.337   2.384
 6332SOL    HW325648   4.326   0.282   2.315
 6332SOL    MW425649   4.390   0.273   2.373
 6333SOL     OW25650   4.478   1.188   2.557
 6333SOL    HW225651   4.558   1.191   2.609
 6333SOL    HW325652   4.506   1.155   2.471
 6333SOL    MW425653   4.492   1.184   2.552
 6334SOL     OW25654   4.503   1.529   3.460
 6334SOL    HW225655   4.587   1.555   3.499
 6334SOL    HW325656   4.527   1.473   3.386
 6334SOL    MW425657   4.517   1.525   3.455
 6335SOL     OW25658   4.255   0.692   2.548
 6335SOL    HW225659   4.240   0.612   2.599
 6335SOL    HW325660   4.337   0.727   2.582
 6335SOL    MW425661   4.263   0.684   2.560
 6336SOL     OW25662   4.592   1.378   3.233
 6336SOL    HW225663   4.556   1.444   3.173
 6336SOL    HW325664   4.520   1.316   3.246
 6336SOL    MW425665   4.578   1.378   3.227
 6337SOL     OW25666   4.397   0.518   2.925
 6337SOL    HW225667   4.303   0.514   2.943
 6337SOL    HW325668   4.427   0.427   2.934
 6337SOL    MW425669   4.388   0.506   2.928
 6338SOL     OW25670   4.143   0.932   2.829
 6338SOL    HW225671   4.098   0.939   2.745
 6338SOL    HW325672   4.123   1.015   2.873
 6338SOL    MW425673   4.135   0.944   2.823
 6339SOL     OW25674   3.840   1.778   2.704
 6339SOL    HW225675   3.929   1.770   2.739
 6339SOL    HW325676   3.804   1.690   2.709
 6339SOL    MW425677   3.847   1.765   2.709
 6340SOL     OW25678   5.105   1.170   2.073
 6340SOL    HW225679   5.023   1.206   2.039
 6340SOL    HW325680   5.173   1.213   2.022
 6340SOL    MW425681   5.103   1.180   2.061
 6341SOL     OW25682   4.104   1.305   2.739
 6341SOL    HW225683   4.080   1.358   2.815
 6341SOL    HW325684   4.160   1.363   2.687
 6341SOL    MW425685   4.108   1.320   2.742
 6342SOL     OW25686   4.666   0.949   2.549
 6342SOL    HW225687   4.580   0.936   2.589
 6342SOL    HW325688   4.719   0.876   2.581
 6342SOL    MW425689   4.662   0.938   2.558
 6343SOL     OW25690   4.074   1.601   3.334
 6343SOL    HW225691   3.982   1.577   3.319
 6343SOL    HW325692   4.118   1.518   3.351
 6343SOL    MW425693   4.068   1.586   3.333
 6344SOL     OW25694   4.657   1.311   2.266
 6344SOL    HW225695   4.634   1.373   2.334
 6344SOL    HW325696   4.614   1.229   2.292
 6344SOL    MW425697   4.649   1.307   2.277
 6345SOL     OW25698   5.530   0.312   2.722
 6345SOL    HW225699   5.467   0.292   2.791
 6345SOL    HW325700   5.520   0.241   2.659
 6345SOL    MW425701   5.520   0.299   2.723
 6346SOL     OW25702   4.154   0.284   2.234
 6346SOL    HW225703   4.128   0.246   2.150
 6346SOL    HW325704   4.091   0.354   2.250
 6346SOL    MW425705   4.143   0.287   2.225
 6347SOL     OW25706   3.989   1.245   2.271
 6347SOL    HW225707   3.937   1.313   2.227
 6347SOL    HW325708   3.986   1.171   2.211
 6347SOL    MW425709   3.981   1.244   2.258
 6348SOL     OW25710   4.651   1.708   2.049
 6348SOL    HW225711   4.606   1.724   2.132
 6348SOL    HW325712   4.582   1.673   1.991
 6348SOL    MW425713   4.637   1.705   2.051
 6349SOL     OW25714   5.586   0.481   2.024
 6349SOL    HW225715   5.495   0.483   2.052
 6349SOL    HW325716   5.631   0.543   2.082
 6349SOL    MW425717   5.579   0.489   2.034
 6350SOL     OW25718   5.331   1.084   2.374
 6350SOL    HW225719   5.241   1.084   2.409
 6350SOL    HW325720   5.324   1.130   2.291
 6350SOL    MW425721   5.318   1.090   2.368
 6351SOL     OW25722   5.131   0.719   3.446
 6351SOL    HW225723   5.200   0.657   3.423
 6351SOL    HW325724   5.056   0.693   3.393
 6351SOL    MW425725   5.131   0.706   3.437
 6352SOL     OW25726   3.872   1.599   2.998
 6352SOL    HW225727   3.855   1.545   3.075
 6352SOL    HW325728   3.860   1.689   3.028
 6352SOL    MW425729   3.869   1.603   3.012
 6353SOL     OW25730   4.867   1.106   3.438
 6353SOL    HW225731   4.852   1.199   3.423
 6353SOL    HW325732   4.962   1.096   3.438
 6353SOL    MW425733   4.876   1.116   3.435
 6354SOL     OW25734   4.663   0.530   3.639
 6354SOL    HW225735   4.753   0.531   3.606
 6354SOL    HW325736   4.622   0.455   3.597
 6354SOL    MW425737   4.669   0.520   3.630
 6355SOL     OW25738   5.238   1.062   2.766
 6355SOL    HW225739   5.241   0.996   2.697
 6355SOL    HW325740   5.323   1.105   2.762
 6355SOL    MW425741   5.250   1.058   2.757
 6356SOL     OW25742   4.858   0.665   2.335
 6356SOL    HW225743   4.884   0.689   2.246
 6356SOL    HW325744   4.840   0.572   2.331
 6356SOL    MW425745   4.860   0.657   2.322
 6357SOL     OW25746   5.523   1.285   2.186
 6357SOL    HW225747   5.479   1.326   2.261
 6357SOL    HW325748   5.580   1.353   2.151
 6357SOL    MW425749   5.525   1.299   2.191
 6358SOL     OW25750   4.443   0.334   3.589
 6358SOL    HW225751   4.453   0.260   3.529
 6358SOL    HW325752   4.479   0.303   3.672
 6358SOL    MW425753   4.449   0.320   3.591
 6359SOL     OW25754   4.179   1.701   2.504
 6359SOL    HW225755   4.211   1.789   2.482
 6359SOL    HW325756   4.132   1.673   2.426
 6359SOL    MW425757   4.178   1.709   2.491
 6360SOL     OW25758   5.563   0.063   2.553
 6360SOL    HW225759   5.617   0.014   2.615
 6360SOL    HW325760   5.506  -0.003   2.514
 6360SOL    MW425761   5.563   0.047   2.555
 6361SOL     OW25762   3.895   1.761   2.081
 6361SOL    HW225763   3.924   1.851   2.073
 6361SOL    HW325764   3.845   1.744   2.002
 6361SOL    MW425765   3.893   1.769   2.070
 6362SOL     OW25766   4.682   0.016   2.966
 6362SOL    HW225767   4.641   0.094   2.928
 6362SOL    HW325768   4.776   0.034   2.961
 6362SOL    MW425769   4.688   0.028   2.961
 6363SOL     OW25770   5.299   1.569   2.052
 6363SOL    HW225771   5.347   1.638   2.098
 6363SOL    HW325772   5.220   1.613   2.021
 6363SOL    MW425773   5.294   1.583   2.055
 6364SOL     OW25774   4.697   0.694   1.996
 6364SOL    HW225775   4.699   0.641   1.917
 6364SOL    HW325776   4.785   0.731   2.002
 6364SOL    MW425777   4.709   0.693   1.985
 6365SOL     OW25778   5.311   0.620   2.332
 6365SOL    HW225779   5.350   0.620   2.419
 6365SOL    HW325780   5.252   0.696   2.332
 6365SOL    MW425781   5.308   0.631   2.343
 6366SOL     OW25782   4.628   0.987   3.461
 6366SOL    HW225783   4.605   0.967   3.551
 6366SOL    HW325784   4.713   1.031   3.466
 6366SOL    MW425785   4.635   0.990   3.473
 6367SOL     OW25786   4.708   0.124   3.221
 6367SOL    HW225787   4.714   0.086   3.134
 6367SOL    HW325788   4.697   0.218   3.206
 6367SOL    MW425789   4.709   0.132   3.209
 6368SOL     OW25790   4.797   0.613   3.055
 6368SOL    HW225791   4.872   0.642   3.002
 6368SOL    HW325792   4.729   0.678   3.039
 6368SOL    MW425793   4.798   0.625   3.045
 6369SOL     OW25794   5.347   0.581   3.332
 6369SOL    HW225795   5.328   0.490   3.311
 6369SOL    HW325796   5.325   0.630   3.253
 6369SOL    MW425797   5.342   0.574   3.319
 6370SOL     OW25798   5.489   1.675   3.236
 6370SOL    HW225799   5.417   1.637   3.287
 6370SOL    HW325800   5.506   1.760   3.277
 6370SOL    MW425801   5.483   1.680   3.248
 6371SOL     OW25802   4.794   0.319   3.438
 6371SOL    HW225803   4.760   0.358   3.357
 6371SOL    HW325804   4.772   0.227   3.431
 6371SOL    MW425805   4.787   0.312   3.428
 6372SOL     OW25806   5.203   1.133   3.514
 6372SOL    HW225807   5.285   1.174   3.544
 6372SOL    HW325808   5.166   1.095   3.594
 6372SOL    MW425809   5.209   1.134   3.529
 6373SOL     OW25810   5.498   0.506   2.498
 6373SOL    HW225811   5.587   0.475   2.515
 6373SOL    HW325812   5.441   0.446   2.546
 6373SOL    MW425813   5.501   0.494   2.507
 6374SOL     OW25814   3.924   0.220   2.527
 6374SOL    HW225815   3.915   0.160   2.453
 6374SOL    HW325816   3.857   0.191   2.590
 6374SOL    MW425817   3.914   0.207   2.525
 6375SOL     OW25818   4.867   1.313   2.088
 6375SOL    HW225819   4.817   1.315   2.170
 6375SOL    HW325820   4.801   1.331   2.020
 6375SOL    MW425821   4.853   1.315   2.090
 6376SOL     OW25822   3.871   0.393   2.890
 6376SOL    HW225823   3.843   0.484   2.899
 6376SOL    HW325824   3.808   0.354   2.829
 6376SOL    MW425825   3.858   0.399   2.884
 6377SOL     OW25826   4.330   1.731   2.196
 6377SOL    HW225827   4.251   1.689   2.229
 6377SOL    HW325828   4.396   1.714   2.263
 6377SOL    MW425829   4.329   1.723   2.209
 6378SOL     OW25830   5.458   1.251   3.593
 6378SOL    HW225831   5.508   1.177   3.625
 6378SOL    HW325832   5.404   1.278   3.668
 6378SOL    MW425833   5.458   1.245   3.606
 6379SOL     OW25834   4.466   1.146   1.903
 6379SOL    HW225835   4.388   1.092   1.890
 6379SOL    HW325836   4.437   1.219   1.956
 6379SOL    MW425837   4.452   1.148   1.908
 6380SOL     OW25838   5.592   0.886   3.095
 6380SOL    HW225839   5.608   0.924   3.008
 6380SOL    HW325840   5.626   0.952   3.156
 6380SOL    MW425841   5.599   0.899   3.091
 6381SOL     OW25842   5.384   1.595   2.764
 6381SOL    HW225843   5.413   1.662   2.825
 6381SOL    HW325844   5.365   1.519   2.819
 6381SOL    MW425845   5.386   1.595   2.779
 6382SOL     OW25846   5.047   1.662   1.971
 6382SOL    HW225847   4.973   1.625   2.021
 6382SOL    HW325848   5.055   1.752   2.004
 6382SOL    MW425849   5.038   1.669   1.983
 6383SOL     OW25850   3.855   0.668   3.060
 6383SOL    HW225851   3.917   0.698   3.126
 6383SOL    HW325852   3.789   0.737   3.054
 6383SOL    MW425853   3.854   0.681   3.067
 6384SOL     OW25854   5.271   1.336   1.913
 6384SOL    HW225855   5.218   1.385   1.849
 6384SOL    HW325856   5.302   1.402   1.974
 6384SOL    MW425857   5.269   1.350   1.911
 6385SOL     OW25858   4.496   0.225   1.968
 6385SOL    HW225859   4.444   0.145   1.956
 6385SOL    HW325860   4.583   0.202   1.936
 6385SOL    MW425861   4.499   0.211   1.962
 6386SOL     OW25862   3.950   1.777   3.512
 6386SOL    HW225863   3.924   1.845   3.450
 6386SOL    HW325864   3.998   1.714   3.460
 6386SOL    MW425865   3.952   1.777   3.498
 6387SOL     OW25866   4.002   1.096   3.019
 6387SOL    HW225867   4.055   1.171   3.044
 6387SOL    HW325868   3.921   1.134   2.985
 6387SOL    MW425869   3.998   1.111   3.019
 6388SOL     OW25870   4.542   1.000   3.007
 6388SOL    HW225871   4.570   0.909   3.019
 6388SOL    HW325872   4.471   0.994   2.943
 6388SOL    MW425873   4.535   0.988   3.002
 6389SOL     OW25874   3.857   0.865   2.425
 6389SOL    HW225875   3.948   0.880   2.452
 6389SOL    HW325876   3.860   0.786   2.371
 6389SOL    MW425877   3.869   0.857   2.423
 6390SOL     OW25878   4.093   0.573   3.679
 6390SOL    HW225879   4.040   0.653   3.686
 6390SOL    HW325880   4.163   0.585   3.744
 6390SOL    MW425881   4.095   0.586   3.687
 6391SOL     OW25882   4.479   0.123   3.386
 6391SOL    HW225883   4.456   0.031   3.388
 6391SOL    HW325884   4.565   0.125   3.343
 6391SOL    MW425885   4.486   0.113   3.382
 6392SOL     OW25886   4.163   0.647   3.425
 6392SOL    HW225887   4.243   0.697   3.411
 6392SOL    HW325888   4.154   0.641   3.520
 6392SOL    MW425889   4.172   0.653   3.435
 6393SOL     OW25890   4.484   1.797   2.799
 6393SOL    HW225891   4.573   1.812   2.829
 6393SOL    HW325892   4.479   1.844   2.715
 6393SOL    MW425893   4.494   1.805   2.792
 6394SOL     OW25894   5.140   0.172   3.696
 6394SOL    HW225895   5.196   0.099   3.722
 6394SOL    HW325896   5.110   0.210   3.778
 6394SOL    MW425897   5.144   0.167   3.709
 6395SOL     OW25898   3.865   1.477   2.464
 6395SOL    HW225899   3.837   1.516   2.546
 6395SOL    HW325900   3.885   1.386   2.486
 6395SOL    MW425901   3.863   1.469   2.477
 6396SOL     OW25902   4.698   1.520   2.499
 6396SOL    HW225903   4.781   1.474   2.483
 6396SOL    HW325904   4.688   1.519   2.595
 6396SOL    MW425905   4.708   1.513   2.509
 6397SOL     OW25906   5.530   0.665   2.813
 6397SOL    HW225907   5.619   0.695   2.795
 6397SOL    HW325908   5.510   0.605   2.742
 6397SOL    MW425909   5.539   0.662   2.802
 6398SOL     OW25910   5.381   0.844   3.693
 6398SOL    HW225911   5.436   0.768   3.674
 6398SOL    HW325912   5.383   0.852   3.788
 6398SOL    MW425913   5.389   0.835   3.701
 6399SOL     OW25914   4.431   1.577   1.904
 6399SOL    HW225915   4.371   1.646   1.874
 6399SOL    HW325916   4.376   1.519   1.957
 6399SOL    MW425917   4.415   1.579   1.906
 6400SOL     OW25918   4.869   0.222   2.127
 6400SOL    HW225919   4.802   0.198   2.064
 6400SOL    HW325920   4.934   0.271   2.076
 6400SOL    MW425921   4.869   0.224   2.112
 6401SOL     OW25922   4.676   0.406   3.212
 6401SOL    HW225923   4.595   0.447   3.240
 6401SOL    HW325924   4.723   0.474   3.164
 6401SOL    MW425925   4.671   0.421   3.210
 6402SOL     OW25926   4.936   0.744   2.835
 6402SOL    HW225927   4.949   0.838   2.845
 6402SOL    HW325928   4.897   0.734   2.749
 6402SOL    MW425929   4.932   0.755   2.825
 6403SOL     OW25930   4.388   0.939   2.639
 6403SOL    HW225931   4.299   0.930   2.672
 6403SOL    HW325932   4.392   1.029   2.607
 6403SOL    MW425933   4.377   0.950   2.639
 6404SOL     OW25934   5.187   0.522   2.634
 6404SOL    HW225935   5.132   0.443   2.633
 6404SOL    HW325936   5.169   0.563   2.718
 6404SOL    MW425937   5.177   0.517   2.643
 6405SOL     OW25938   4.158   0.209   3.451
 6405SOL    HW225939   4.079   0.227   3.503
 6405SOL    HW325940   4.153   0.271   3.378
 6405SOL    MW425941   4.148   0.219   3.448
 6406SOL     OW25942   4.806   0.726   2.591
 6406SOL    HW225943   4.743   0.658   2.615
 6406SOL    HW325944   4.826   0.707   2.499
 6406SOL    MW425945   4.800   0.713   2.583
 6407SOL     OW25946   4.062   1.621   2.293
 6407SOL    HW225947   4.023   1.668   2.219
 6407SOL    HW325948   3.996   1.556   2.318
 6407SOL    MW425949   4.049   1.619   2.287
 6408SOL     OW25950   4.554   1.030   2.317
 6408SOL    HW225951   4.556   1.004   2.224
 6408SOL    HW325952   4.612   0.967   2.360
 6408SOL    MW425953   4.562   1.019   2.311
 6409SOL     OW25954   5.107   1.590   3.089
 6409SOL    HW225955   5.032   1.636   3.127
 6409SOL    HW325956   5.089   1.497   3.106
 6409SOL    MW425957   5.096   1.584   3.097
 6410SOL     OW25958   5.111   1.798   2.519
 6410SOL    HW225959   5.054   1.751   2.458
 6410SOL    HW325960   5.197   1.759   2.506
 6410SOL    MW425961   5.114   1.789   2.509
 6411SOL     OW25962   5.064   0.274   2.650
 6411SOL    HW225963   5.092   0.206   2.711
 6411SOL    HW325964   4.978   0.245   2.620
 6411SOL    MW425965   5.057   0.261   2.654
 6412SOL     OW25966   3.869   1.208   2.584
 6412SOL    HW225967   3.933   1.240   2.647
 6412SOL    HW325968   3.918   1.144   2.532
 6412SOL    MW425969   3.884   1.204   2.585
 6413SOL     OW25970   4.369   1.284   3.566
 6413SOL    HW225971   4.417   1.367   3.553
 6413SOL    HW325972   4.426   1.232   3.622
 6413SOL    MW425973   4.383   1.288   3.572
 6414SOL     OW25974   3.945   1.526   3.706
 6414SOL    HW225975   4.001   1.450   3.721
 6414SOL    HW325976   3.894   1.504   3.628
 6414SOL    MW425977   3.945   1.513   3.697
 6415SOL     OW25978   5.044   0.378   1.985
 6415SOL    HW225979   5.017   0.444   1.921
 6415SOL    HW325980   5.114   0.421   2.035
 6415SOL    MW425981   5.049   0.391   1.982
 6416SOL     OW25982   4.712   0.083   1.922
 6416SOL    HW225983   4.768   0.075   1.844
 6416SOL    HW325984   4.689  -0.007   1.944
 6416SOL    MW425985   4.717   0.070   1.915
 6417SOL     OW25986   5.217   0.934   2.127
 6417SOL    HW225987   5.184   1.023   2.117
 6417SOL    HW325988   5.182   0.905   2.212
 6417SOL    MW425989   5.207   0.943   2.138
 6418SOL     OW25990   4.830   1.363   3.315
 6418SOL    HW225991   4.741   1.369   3.283
 6418SOL    HW325992   4.874   1.442   3.283
 6418SOL    MW425993   4.825   1.373   3.307
 6419SOL     OW25994   4.123   0.031   3.657
 6419SOL    HW225995   4.051  -0.004   3.605
 6419SOL    HW325996   4.181   0.072   3.592
 6419SOL    MW425997   4.121   0.032   3.642
 6420SOL     OW25998   4.147   1.521   2.956
 6420SOL    HW225999   4.192   1.583   3.013
 6420SOL    HW326000   4.054   1.540   2.969
 6420SOL    MW426001   4.140   1.531   2.963
 6421SOL     OW26002   5.587   1.050   3.310
 6421SOL    HW226003   5.502   1.063   3.269
 6421SOL    HW326004   5.567   1.014   3.397
 6421SOL    MW426005   5.574   1.046   3.315
 6422SOL     OW26006   4.569   1.589   3.064
 6422SOL    HW226007   4.593   1.578   2.973
 6422SOL    HW326008   4.492   1.646   3.062
 6422SOL    MW426009   4.561   1.594   3.053
 6423SOL     OW26010   4.211   0.972   1.919
 6423SOL    HW226011   4.134   0.985   1.975
 6423SOL    HW326012   4.175   0.936   1.838
 6423SOL    MW426013   4.197   0.968   1.916
 6424SOL     OW26014   4.864   0.945   2.162
 6424SOL    HW226015   4.774   0.966   2.137
 6424SOL    HW326016   4.891   1.018   2.218
 6424SOL    MW426017   4.856   0.957   2.165
 6425SOL     OW26018   4.364   1.294   2.854
 6425SOL    HW226019   4.357   1.273   2.948
 6425SOL    HW326020   4.282   1.262   2.817
 6425SOL    MW426021   4.352   1.288   2.861
 6426SOL     OW26022   5.228   0.304   3.256
 6426SOL    HW226023   5.175   0.306   3.336
 6426SOL    HW326024   5.213   0.217   3.219
 6426SOL    MW426025   5.220   0.294   3.261
 6427SOL     OW26026   5.564   0.228   3.129
 6427SOL    HW226027   5.545   0.295   3.064
 6427SOL    HW326028   5.621   0.166   3.084
 6427SOL    MW426029   5.568   0.229   3.115
 6428SOL     OW26030   3.810   1.386   3.517
 6428SOL    HW226031   3.854   1.319   3.463
 6428SOL    HW326032   3.725   1.348   3.537
 6428SOL    MW426033   3.805   1.372   3.513
 6429SOL     OW26034   4.493   0.061   2.569
 6429SOL    HW226035   4.422   0.122   2.551
 6429SOL    HW326036   4.544   0.058   2.488
 6429SOL    MW426037   4.489   0.067   2.556
 6430SOL     OW26038   4.251   1.301   2.318
 6430SOL    HW226039   4.244   1.333   2.408
 6430SOL    HW326040   4.161   1.285   2.290
 6430SOL    MW426041   4.239   1.303   2.325
 6431SOL     OW26042   4.846   1.694   3.227
 6431SOL    HW226043   4.766   1.679   3.177
 6431SOL    HW326044   4.853   1.789   3.234
 6431SOL    MW426045   4.837   1.705   3.221
 6432SOL     OW26046   4.960   1.659   2.717
 6432SOL    HW226047   5.007   1.732   2.676
 6432SOL    HW326048   4.881   1.698   2.753
 6432SOL    MW426049   4.955   1.674   2.716
 6433SOL     OW26050   5.368   1.754   2.992
 6433SOL    HW226051   5.411   1.724   3.072
 6433SOL    HW326052   5.287   1.702   2.989
 6433SOL    MW426053   5.363   1.743   3.002
 6434SOL     OW26054   4.453   0.718   3.699
 6434SOL    HW226055   4.523   0.660   3.671
 6434SOL    HW326056   4.396   0.663   3.754
 6434SOL    MW426057   4.455   0.705   3.703
 6435SOL     OW26058   5.240   0.930   3.332
 6435SOL    HW226059   5.245   0.983   3.412
 6435SOL    HW326060   5.202   0.847   3.360
 6435SOL    MW426061   5.236   0.925   3.347
 6436SOL     OW26062   4.880   0.065   3.578
 6436SOL    HW226063   4.875  -0.028   3.559
 6436SOL    HW326064   4.963   0.076   3.624
 6436SOL    MW426065   4.888   0.054   3.582
 6437SOL     OW26066   4.254   0.585   2.032
 6437SOL    HW226067   4.220   0.641   2.102
 6437SOL    HW326068   4.325   0.535   2.072
 6437SOL    MW426069   4.260   0.586   2.046
 6438SOL     OW26070   5.350   1.336   2.854
 6438SOL    HW226071   5.385   1.318   2.767
 6438SOL    HW326072   5.255   1.337   2.841
 6438SOL    MW426073   5.342   1.333   2.841
 6439SOL     OW26074   4.779   0.984   3.223
 6439SOL    HW226075   4.822   1.019   3.301
 6439SOL    HW326076   4.762   1.061   3.169
 6439SOL    MW426077   4.782   0.999   3.226
 6440SOL     OW26078   5.310   0.471   2.096
 6440SOL    HW226079   5.302   0.542   2.033
 6440SOL    HW326080   5.328   0.515   2.179
 6440SOL    MW426081   5.311   0.485   2.098
 6441SOL     OW26082   4.170   0.126   2.525
 6441SOL    HW226083   4.220   0.169   2.456
 6441SOL    HW326084   4.085   0.170   2.525
 6441SOL    MW426085   4.167   0.139   2.516
 6442SOL     OW26086   3.929   1.188   3.385
 6442SOL    HW226087   3.957   1.141   3.463
 6442SOL    HW326088   3.850   1.143   3.356
 6442SOL    MW426089   3.922   1.177   3.391
 6443SOL     OW26090   4.437   0.515   3.352
 6443SOL    HW226091   4.409   0.603   3.376
 6443SOL    HW326092   4.406   0.459   3.423
 6443SOL    MW426093   4.429   0.518   3.364
 6444SOL     OW26094   4.979   0.733   2.071
 6444SOL    HW226095   5.026   0.751   1.990
 6444SOL    HW326096   4.945   0.817   2.099
 6444SOL    MW426097   4.981   0.747   2.064
 6445SOL     OW26098   4.092   0.911   2.565
 6445SOL    HW226099   4.150   0.967   2.513
 6445SOL    HW326100   4.136   0.826   2.567
 6445SOL    MW426101   4.105   0.908   2.558
 6446SOL     OW26102   5.232   0.263   2.402
 6446SOL    HW226103   5.154   0.213   2.427
 6446SOL    HW326104   5.203   0.354   2.402
 6446SOL    MW426105   5.218   0.267   2.405
 6447SOL     OW26106   4.818   0.225   2.561
 6447SOL    HW226107   4.838   0.300   2.505
 6447SOL    HW326108   4.798   0.264   2.646
 6447SOL    MW426109   4.819   0.241   2.565
 6448SOL     OW26110   4.714   1.475   1.893
 6448SOL    HW226111   4.741   1.553   1.845
 6448SOL    HW326112   4.621   1.490   1.912
 6448SOL    MW426113   4.705   1.488   1.889
 6449SOL     OW26114   5.578   0.998   3.580
 6449SOL    HW226115   5.491   0.978   3.616
 6449SOL    HW326116   5.632   0.924   3.605
 6449SOL    MW426117   5.573   0.987   3.588
 6450SOL     OW26118   3.799   1.511   2.737
 6450SOL    HW226119   3.831   1.515   2.828
 6450SOL    HW326120   3.704   1.519   2.745
 6450SOL    MW426121   3.791   1.514   2.750
 6451SOL     OW26122   3.754   0.637   2.284
 6451SOL    HW226123   3.694   0.609   2.354
 6451SOL    HW326124   3.828   0.577   2.290
 6451SOL    MW426125   3.756   0.626   2.293
 6452SOL     OW26126   5.322   1.849   3.718
 6452SOL    HW226127   5.367   1.773   3.683
 6452SOL    HW326128   5.360   1.862   3.805
 6452SOL    MW426129   5.332   1.842   3.724
 6453SOL     OW26130   4.922   1.368   2.444
 6453SOL    HW226131   4.945   1.319   2.522
 6453SOL    HW326132   5.003   1.410   2.416
 6453SOL    MW426133   4.935   1.368   2.451
 6454SOL     OW26134   4.180   0.376   3.173
 6454SOL    HW226135   4.213   0.457   3.213
 6454SOL    HW326136   4.153   0.402   3.085
 6454SOL    MW426137   4.179   0.390   3.167
 6455SOL     OW26138   4.134   0.343   2.909
 6455SOL    HW226139   4.164   0.257   2.880
 6455SOL    HW326140   4.039   0.336   2.912
 6455SOL    MW426141   4.126   0.332   2.907
 6456SOL     OW26142   4.963   0.552   3.600
 6456SOL    HW226143   5.015   0.487   3.553
 6456SOL    HW326144   4.921   0.603   3.530
 6456SOL    MW426145   4.964   0.549   3.583
 6457SOL     OW26146   5.062   0.347   3.461
 6457SOL    HW226147   4.969   0.331   3.448
 6457SOL    HW326148   5.088   0.285   3.529
 6457SOL    MW426149   5.052   0.337   3.468
 6458SOL     OW26150   4.277   0.121   2.800
 6458SOL    HW226151   4.287   0.030   2.826
 6458SOL    HW326152   4.233   0.117   2.715
 6458SOL    MW426153   4.273   0.109   2.792
 6459SOL     OW26154   4.371   1.736   3.346
 6459SOL    HW226155   4.288   1.721   3.391
 6459SOL    HW326156   4.430   1.669   3.381
 6459SOL    MW426157   4.369   1.726   3.356
 6460SOL     OW26158   5.428   0.443   2.971
 6460SOL    HW226159   5.361   0.476   3.031
 6460SOL    HW326160   5.471   0.521   2.937
 6460SOL    MW426161   5.426   0.458   2.975
 6461SOL     OW26162   5.606   1.163   2.941
 6461SOL    HW226163   5.599   1.103   2.866
 6461SOL    HW326164   5.532   1.223   2.930
 6461SOL    MW426165   5.596   1.163   2.930
 6462SOL     OW26166   4.988   1.025   2.859
 6462SOL    HW226167   5.002   0.997   2.950
 6462SOL    HW326168   5.074   1.056   2.831
 6462SOL    MW426169   5.001   1.026   2.868
 6463SOL     OW26170   5.071   0.520   3.138
 6463SOL    HW226171   5.092   0.521   3.045
 6463SOL    HW326172   5.116   0.442   3.171
 6463SOL    MW426173   5.078   0.510   3.130
 6464SOL     OW26174   5.564   0.651   3.680
 6464SOL    HW226175   5.601   0.596   3.749
 6464SOL    HW326176   5.589   0.608   3.598
 6464SOL    MW426177   5.571   0.639   3.679
 6465SOL     OW26178   5.111   0.949   3.731
 6465SOL    HW226179   5.177   0.897   3.685
 6465SOL    HW326180   5.131   0.936   3.824
 6465SOL    MW426181   5.122   0.940   3.738
 6466SOL     OW26182   5.062   0.035   2.080
 6466SOL    HW226183   5.136   0.079   2.123
 6466SOL    HW326184   4.986   0.089   2.102
 6466SOL    MW426185   5.062   0.047   2.088
 6467SOL     OW26186   5.122   0.810   2.358
 6467SOL    HW226187   5.037   0.780   2.328
 6467SOL    HW326188   5.114   0.817   2.453
 6467SOL    MW426189   5.110   0.808   2.367
 6468SOL     OW26190   4.198   1.273   3.089
 6468SOL    HW226191   4.210   1.300   3.180
 6468SOL    HW326192   4.179   1.354   3.042
 6468SOL    MW426193   4.197   1.288   3.094
 6469SOL     OW26194   4.482   0.253   2.912
 6469SOL    HW226195   4.455   0.255   3.003
 6469SOL    HW326196   4.412   0.205   2.867
 6469SOL    MW426197   4.470   0.249   2.919
 6470SOL     OW26198   4.336   1.745   3.074
 6470SOL    HW226199   4.388   1.822   3.051
 6470SOL    HW326200   4.345   1.737   3.169
 6470SOL    MW426201   4.345   1.752   3.085
 6471SOL     OW26202   5.238   1.330   3.306
 6471SOL    HW226203   5.223   1.259   3.369
 6471SOL    HW326204   5.284   1.288   3.234
 6471SOL    MW426205   5.244   1.314   3.306
 6472SOL     OW26206   4.312   1.061   3.423
 6472SOL    HW226207   4.349   1.066   3.335
 6472SOL    HW326208   4.351   1.134   3.470
 6472SOL    MW426209   4.322   1.071   3.418
 6473SOL     OW26210   4.492   1.104   3.235
 6473SOL    HW226211   4.551   1.050   3.288
 6473SOL    HW326212   4.507   1.076   3.145
 6473SOL    MW426213   4.502   1.093   3.231
 6474SOL     OW26214   4.495   0.476   2.084
 6474SOL    HW226215   4.568   0.525   2.047
 6474SOL    HW326216   4.511   0.385   2.058
 6474SOL    MW426217   4.507   0.471   2.077
 6475SOL     OW26218   5.303   1.593   3.407
 6475SOL    HW226219   5.345   1.578   3.492
 6475SOL    HW326220   5.294   1.506   3.369
 6475SOL    MW426221   5.307   1.581   3.414
 6476SOL     OW26222   4.963   0.072   2.998
 6476SOL    HW226223   5.018   0.081   2.920
 6476SOL    HW326224   5.018   0.106   3.069
 6476SOL    MW426225   4.977   0.077   2.997
 6477SOL     OW26226   3.970   0.985   2.182
 6477SOL    HW226227   3.907   1.001   2.111
 6477SOL    HW326228   3.917   0.948   2.253
 6477SOL    MW426229   3.955   0.982   2.182
 6478SOL     OW26230   4.326   1.339   2.041
 6478SOL    HW226231   4.341   1.315   2.133
 6478SOL    HW326232   4.234   1.317   2.025
 6478SOL    MW426233   4.316   1.332   2.051
 6479SOL     OW26234   4.865   1.570   2.193
 6479SOL    HW226235   4.873   1.488   2.144
 6479SOL    HW326236   4.784   1.609   2.160
 6479SOL    MW426237   4.855   1.565   2.183
 6480SOL     OW26238   4.124   1.728   2.762
 6480SOL    HW226239   4.128   1.639   2.797
 6480SOL    HW326240   4.150   1.719   2.671
 6480SOL    MW426241   4.127   1.716   2.754
 6481SOL     OW26242   4.741   1.206   3.005
 6481SOL    HW226243   4.673   1.140   3.021
 6481SOL    HW326244   4.759   1.200   2.912
 6481SOL    MW426245   4.734   1.197   2.996
 6482SOL     OW26246   3.830   1.481   3.256
 6482SOL    HW226247   3.820   1.439   3.342
 6482SOL    HW326248   3.751   1.534   3.246
 6482SOL    MW426249   3.819   1.482   3.267
 6483SOL     OW26250   4.734   0.345   2.826
 6483SOL    HW226251   4.664   0.297   2.871
 6483SOL    HW326252   4.766   0.408   2.890
 6483SOL    MW426253   4.729   0.347   2.840
 6484SOL     OW26254   4.385   0.781   3.446
 6484SOL    HW226255   4.378   0.876   3.434
 6484SOL    HW326256   4.394   0.770   3.541
 6484SOL    MW426257   4.386   0.793   3.456
 6485SOL     OW26258   4.106   1.296   3.704
 6485SOL    HW226259   4.178   1.298   3.641
 6485SOL    HW326260   4.076   1.205   3.703
 6485SOL    MW426261   4.111   1.285   3.696
 6486SOL     OW26262   5.190   0.059   3.171
 6486SOL    HW226263   5.261   0.005   3.135
 6486SOL    HW326264   5.189   0.038   3.264
 6486SOL    MW426265   5.199   0.050   3.179
 6487SOL     OW26266   5.390   1.589   3.655
 6487SOL    HW226267   5.363   1.586   3.746
 6487SOL    HW326268   5.486   1.593   3.658
 6487SOL    MW426269   5.400   1.589   3.667
 6488SOL     OW26270   4.201   0.451   2.639
 6488SOL    HW226271   4.272   0.399   2.602
 6488SOL    HW326272   4.187   0.416   2.726
 6488SOL    MW426273   4.209   0.440   2.646
 6489SOL     OW26274   3.756   1.786   3.711
 6489SOL    HW226275   3.806   1.764   3.633
 6489SOL    HW326276   3.764   1.881   3.719
 6489SOL    MW426277   3.764   1.795   3.702
 6490SOL     OW26278   4.517   1.544   2.715
 6490SOL    HW226279   4.445   1.481   2.728
 6490SOL    HW326280   4.478   1.629   2.733
 6490SOL    MW426281   4.501   1.547   2.718
 6491SOL     OW26282   4.837   0.392   2.363
 6491SOL    HW226283   4.859   0.329   2.295
 6491SOL    HW326284   4.742   0.384   2.374
 6491SOL    MW426285   4.827   0.383   2.355
 6492SOL     OW26286   3.922   0.082   2.295
 6492SOL    HW226287   3.993   0.103   2.234
 6492SOL    HW326288   3.876   0.010   2.253
 6492SOL    MW426289   3.926   0.076   2.281
 6493SOL     OW26290   3.753   0.549   3.438
 6493SOL    HW226291   3.817   0.615   3.413
 6493SOL    HW326292   3.672   0.576   3.395
 6493SOL    MW426293   3.751   0.561   3.430
 6494SOL     OW26294   5.491   1.456   2.395
 6494SOL    HW226295   5.461   1.389   2.456
 6494SOL    HW326296   5.585   1.462   2.409
 6494SOL    MW426297   5.499   1.448   2.405
 6495SOL     OW26298   5.047   1.133   2.325
 6495SOL    HW226299   5.019   1.219   2.358
 6495SOL    HW326300   5.075   1.149   2.235
 6495SOL    MW426301   5.047   1.147   2.317
 6496SOL     OW26302   4.709   0.053   2.378
 6496SOL    HW226303   4.746   0.112   2.443
 6496SOL    HW326304   4.686   0.109   2.304
 6496SOL    MW426305   4.710   0.068   2.377
 6497SOL     OW26306   5.562   0.935   2.800
 6497SOL    HW226307   5.553   0.967   2.711
 6497SOL    HW326308   5.515   0.851   2.800
 6497SOL    MW426309   5.555   0.928   2.790
 6498SOL     OW26310   3.938   0.775   3.379
 6498SOL    HW226311   3.959   0.844   3.317
 6498SOL    HW326312   4.018   0.722   3.384
 6498SOL    MW426313   3.951   0.776   3.373
 6499SOL     OW26314   5.474   0.866   2.501
 6499SOL    HW226315   5.568   0.855   2.489
 6499SOL    HW326316   5.450   0.938   2.442
 6499SOL    MW426317   5.484   0.874   2.492
 6500SOL     OW26318   3.923   0.790   3.646
 6500SOL    HW226319   3.849   0.734   3.672
 6500SOL    HW326320   3.918   0.793   3.551
 6500SOL    MW426321   3.912   0.783   3.636
 6501SOL     OW26322   4.089   0.077   3.096
 6501SOL    HW226323   4.132   0.161   3.116
 6501SOL    HW326324   4.162   0.015   3.089
 6501SOL    MW426325   4.104   0.080   3.097
 6502SOL     OW26326   4.130   0.744   2.274
 6502SOL    HW226327   4.130   0.839   2.259
 6502SOL    HW326328   4.207   0.728   2.328
 6502SOL    MW426329   4.140   0.755   2.279
 6503SOL     OW26330   4.906   0.603   3.338
 6503SOL    HW226331   4.942   0.576   3.254
 6503SOL    HW326332   4.819   0.637   3.317
 6503SOL    MW426333   4.900   0.604   3.325
 6504SOL     OW26334   3.889   0.475   2.563
 6504SOL    HW226335   3.951   0.482   2.636
 6504SOL    HW326336   3.889   0.382   2.540
 6504SOL    MW426337   3.897   0.464   2.570
 6505SOL     OW26338   5.436   1.815   2.095
 6505SOL    HW226339   5.503   1.848   2.035
 6505SOL    HW326340   5.393   1.894   2.129
 6505SOL    MW426341   5.438   1.830   2.091
 6506SOL     OW26342   4.571   0.736   3.047
 6506SOL    HW226343   4.529   0.654   3.023
 6506SOL    HW326344   4.572   0.735   3.143
 6506SOL    MW426345   4.564   0.725   3.056
 6507SOL     OW26346   5.242   1.869   3.446
 6507SOL    HW226347   5.245   1.775   3.429
 6507SOL    HW326348   5.265   1.877   3.538
 6507SOL    MW426349   5.245   1.857   3.456
 6508SOL     OW26350   4.375   0.206   3.152
 6508SOL    HW226351   4.306   0.269   3.173
 6508SOL    HW326352   4.402   0.170   3.237
 6508SOL    MW426353   4.369   0.209   3.165
 6509SOL     OW26354   3.758   1.047   2.021
 6509SOL    HW226355   3.727   1.112   2.084
 6509SOL    HW326356   3.707   0.969   2.040
 6509SOL    MW426357   3.748   1.044   2.031
 6510SOL     OW26358   5.170   0.059   2.769
 6510SOL    HW226359   5.258   0.068   2.806
 6510SOL    HW326360   5.180   0.000   2.695
 6510SOL    MW426361   5.184   0.053   2.763
 6511SOL     OW26362   5.202   0.798   2.613
 6511SOL    HW226363   5.282   0.813   2.562
 6511SOL    HW326364   5.195   0.703   2.619
 6511SOL    MW426365   5.211   0.787   2.608
 6512SOL     OW26366   4.342   1.847   1.963
 6512SOL    HW226367   4.247   1.847   1.955
 6512SOL    HW326368   4.358   1.793   2.041
 6512SOL    MW426369   4.332   1.841   1.972
 6513SOL     OW26370   4.652   0.724   3.310
 6513SOL    HW226371   4.721   0.791   3.307
 6513SOL    HW326372   4.585   0.762   3.366
 6513SOL    MW426373   4.653   0.737   3.317
 6514SOL     OW26374   4.070   1.024   3.558
 6514SOL    HW226375   4.024   0.940   3.560
 6514SOL    HW326376   4.127   1.018   3.482
 6514SOL    MW426377   4.072   1.012   3.550
 6515SOL     OW26378   5.187   0.667   1.879
 6515SOL    HW226379   5.115   0.643   1.821
 6515SOL    HW326380   5.253   0.704   1.821
 6515SOL    MW426381   5.186   0.669   1.864
 6516SOL     OW26382   4.321   1.399   2.559
 6516SOL    HW226383   4.386   1.332   2.580
 6516SOL    HW326384   4.373   1.476   2.536
 6516SOL    MW426385   4.336   1.401   2.558
 6517SOL     OW26386   4.582   0.564   2.689
 6517SOL    HW226387   4.522   0.582   2.761
 6517SOL    HW326388   4.616   0.476   2.708
 6517SOL    MW426389   4.578   0.554   2.702
 6518SOL     OW26390   5.523   0.063   3.358
 6518SOL    HW226391   5.444   0.109   3.386
 6518SOL    HW326392   5.558   0.117   3.287
 6518SOL    MW426393   5.517   0.076   3.352
 6519SOL     OW26394   4.807   1.147   2.708
 6519SOL    HW226395   4.899   1.128   2.726
 6519SOL    HW326396   4.780   1.077   2.648
 6519SOL    MW426397   4.815   1.135   2.702
 6520SOL     OW26398   4.600   0.967   2.063
 6520SOL    HW226399   4.586   0.879   2.028
 6520SOL    HW326400   4.551   1.024   2.004
 6520SOL    MW426401   4.592   0.962   2.051
 6521SOL     OW26402   5.081   1.385   2.804
 6521SOL    HW226403   5.054   1.469   2.769
 6521SOL    HW326404   5.041   1.380   2.891
 6521SOL    MW426405   5.074   1.394   2.810
 6522SOL     OW26406   5.000   1.333   3.072
 6522SOL    HW226407   5.011   1.300   3.161
 6522SOL    HW326408   4.919   1.292   3.041
 6522SOL    MW426409   4.990   1.325   3.078
 6523SOL     OW26410   4.013   0.691   2.842
 6523SOL    HW226411   3.963   0.690   2.923
 6523SOL    HW326412   4.033   0.783   2.826
 6523SOL    MW426413   4.009   0.703   2.850
 6524SOL     OW26414   5.080   1.455   3.604
 6524SOL    HW226415   5.080   1.549   3.620
 6524SOL    HW326416   5.125   1.445   3.520
 6524SOL    MW426417   5.086   1.465   3.595
 6525SOL     OW26418   5.319   0.173   2.165
 6525SOL    HW226419   5.312   0.177   2.260
 6525SOL    HW326420   5.331   0.264   2.138
 6525SOL    MW426421   5.320   0.186   2.173
 6526SOL     OW26422   4.608   0.736   2.279
 6526SOL    HW226423   4.588   0.722   2.186
 6526SOL    HW326424   4.701   0.715   2.286
 6526SOL    MW426425   4.618   0.731   2.268
 6527SOL     OW26426   3.935   0.359   3.583
 6527SOL    HW226427   3.892   0.418   3.520
 6527SOL    HW326428   4.003   0.414   3.623
 6527SOL    MW426429   3.939   0.374   3.580
 6528SOL     OW26430   5.047   0.979   3.128
 6528SOL    HW226431   5.110   0.976   3.201
 6528SOL    HW326432   4.963   0.997   3.170
 6528SOL    MW426433   5.043   0.981   3.143
 6529SOL     OW26434   4.591   1.694   2.317
 6529SOL    HW226435   4.649   1.765   2.344
 6529SOL    HW326436   4.614   1.622   2.375
 6529SOL    MW426437   4.602   1.694   2.328
 6530SOL     OW26438   5.386   0.156   2.907
 6530SOL    HW226439   5.431   0.074   2.926
 6530SOL    HW326440   5.406   0.212   2.983
 6530SOL    MW426441   5.396   0.152   2.919
 6531SOL     OW26442   3.834  -0.001   3.006
 6531SOL    HW226443   3.825   0.000   2.911
 6531SOL    HW326444   3.928   0.011   3.021
 6531SOL    MW426445   3.846   0.002   2.997
 6532SOL     OW26446   5.471   1.192   2.626
 6532SOL    HW226447   5.450   1.138   2.549
 6532SOL    HW326448   5.567   1.190   2.630
 6532SOL    MW426449   5.480   1.185   2.615
 6533SOL     OW26450   4.163   1.337   3.369
 6533SOL    HW226451   4.084   1.287   3.392
 6533SOL    HW326452   4.233   1.296   3.419
 6533SOL    MW426453   4.161   1.325   3.379
 6534SOL     OW26454   4.047   0.126   2.052
 6534SOL    HW226455   3.976   0.181   2.020
 6534SOL    HW326456   4.089   0.092   1.973
 6534SOL    MW426457   4.043   0.128   2.038
 6535SOL     OW26458   5.171   0.623   2.888
 6535SOL    HW226459   5.094   0.669   2.854
 6535SOL    HW326460   5.228   0.692   2.922
 6535SOL    MW426461   5.168   0.638   2.888
 6536SOL     OW26462   3.803   0.225   1.901
 6536SOL    HW226463   3.770   0.304   1.945
 6536SOL    HW326464   3.858   0.258   1.830
 6536SOL    MW426465   3.806   0.239   1.898
 6537SOL     OW26466   3.837   1.482   2.090
 6537SOL    HW226467   3.854   1.566   2.132
 6537SOL    HW326468   3.872   1.491   2.002
 6537SOL    MW426469   3.842   1.495   2.084
 6538SOL     OW26470   5.109   1.571   2.307
 6538SOL    HW226471   5.172   1.561   2.236
 6538SOL    HW326472   5.026   1.591   2.262
 6538SOL    MW426473   5.106   1.572   2.292
 6539SOL     OW26474   5.472   0.839   3.993
 6539SOL    HW226475   5.513   0.781   4.058
 6539SOL    HW326476   5.379   0.831   4.010
 6539SOL    MW426477   5.466   0.831   4.003
 6540SOL     OW26478   5.338   0.771   4.988
 6540SOL    HW226479   5.293   0.838   5.039
 6540SOL    HW326480   5.426   0.807   4.974
 6540SOL    MW426481   5.344   0.784   4.992
 6541SOL     OW26482   4.266   1.022   4.222
 6541SOL    HW226483   4.356   0.997   4.206
 6541SOL    HW326484   4.262   1.115   4.199
 6541SOL    MW426485   4.278   1.031   4.217
 6542SOL     OW26486   5.382   1.725   4.364
 6542SOL    HW226487   5.394   1.671   4.442
 6542SOL    HW326488   5.419   1.673   4.293
 6542SOL    MW426489   5.388   1.710   4.365
 6543SOL     OW26490   4.761   1.610   5.365
 6543SOL    HW226491   4.802   1.646   5.286
 6543SOL    HW326492   4.796   1.521   5.372
 6543SOL    MW426493   4.772   1.603   5.356
 6544SOL     OW26494   5.318   1.165   4.969
 6544SOL    HW226495   5.239   1.130   4.927
 6544SOL    HW326496   5.345   1.237   4.913
 6544SOL    MW426497   5.311   1.170   4.956
 6545SOL     OW26498   4.550   0.478   4.235
 6545SOL    HW226499   4.525   0.566   4.263
 6545SOL    HW326500   4.547   0.481   4.139
 6545SOL    MW426501   4.546   0.490   4.227
 6546SOL     OW26502   3.992   0.506   4.163
 6546SOL    HW226503   4.024   0.594   4.145
 6546SOL    HW326504   3.980   0.504   4.258
 6546SOL    MW426505   3.995   0.518   4.175
 6547SOL     OW26506   4.070   0.919   5.064
 6547SOL    HW226507   4.133   0.866   5.015
 6547SOL    HW326508   4.051   0.993   5.007
 6547SOL    MW426509   4.076   0.921   5.051
 6548SOL     OW26510   4.391   0.261   4.250
 6548SOL    HW226511   4.449   0.337   4.252
 6548SOL    HW326512   4.326   0.282   4.183
 6548SOL    MW426513   4.390   0.273   4.241
 6549SOL     OW26514   4.478   1.188   4.425
 6549SOL    HW226515   4.558   1.191   4.477
 6549SOL    HW326516   4.506   1.155   4.339
 6549SOL    MW426517   4.492   1.184   4.420
 6550SOL     OW26518   4.503   1.529   5.328
 6550SOL    HW226519   4.587   1.555   5.367
 6550SOL    HW326520   4.527   1.473   5.254
 6550SOL    MW426521   4.517   1.525   5.323
 6551SOL     OW26522   4.255   0.692   4.416
 6551SOL    HW226523   4.240   0.612   4.467
 6551SOL    HW326524   4.337   0.727   4.450
 6551SOL    MW426525   4.263   0.684   4.428
 6552SOL     OW26526   4.592   1.378   5.101
 6552SOL    HW226527   4.556   1.444   5.041
 6552SOL    HW326528   4.520   1.316   5.114
 6552SOL    MW426529   4.578   1.378   5.095
 6553SOL     OW26530   4.397   0.518   4.793
 6553SOL    HW226531   4.303   0.514   4.811
 6553SOL    HW326532   4.427   0.427   4.802
 6553SOL    MW426533   4.388   0.506   4.796
 6554SOL     OW26534   4.143   0.932   4.697
 6554SOL    HW226535   4.098   0.939   4.613
 6554SOL    HW326536   4.123   1.015   4.741
 6554SOL    MW426537   4.135   0.944   4.691
 6555SOL     OW26538   3.840   1.778   4.572
 6555SOL    HW226539   3.929   1.770   4.607
 6555SOL    HW326540   3.804   1.690   4.577
 6555SOL    MW426541   3.847   1.765   4.577
 6556SOL     OW26542   5.105   1.170   3.941
 6556SOL    HW226543   5.023   1.206   3.907
 6556SOL    HW326544   5.173   1.213   3.890
 6556SOL    MW426545   5.103   1.180   3.929
 6557SOL     OW26546   4.104   1.305   4.607
 6557SOL    HW226547   4.080   1.358   4.683
 6557SOL    HW326548   4.160   1.363   4.555
 6557SOL    MW426549   4.108   1.320   4.610
 6558SOL     OW26550   4.666   0.949   4.417
 6558SOL    HW226551   4.580   0.936   4.457
 6558SOL    HW326552   4.719   0.876   4.449
 6558SOL    MW426553   4.662   0.938   4.426
 6559SOL     OW26554   4.074   1.601   5.202
 6559SOL    HW226555   3.982   1.577   5.187
 6559SOL    HW326556   4.118   1.518   5.219
 6559SOL    MW426557   4.068   1.586   5.201
 6560SOL     OW26558   4.657   1.311   4.134
 6560SOL    HW226559   4.634   1.373   4.202
 6560SOL    HW326560   4.614   1.229   4.160
 6560SOL    MW426561   4.649   1.307   4.145
 6561SOL     OW26562   5.530   0.312   4.590
 6561SOL    HW226563   5.467   0.292   4.659
 6561SOL    HW326564   5.520   0.241   4.527
 6561SOL    MW426565   5.520   0.299   4.591
 6562SOL     OW26566   4.154   0.284   4.102
 6562SOL    HW226567   4.128   0.246   4.018
 6562SOL    HW326568   4.091   0.354   4.118
 6562SOL    MW426569   4.143   0.287   4.093
 6563SOL     OW26570   3.989   1.245   4.139
 6563SOL    HW226571   3.937   1.313   4.095
 6563SOL    HW326572   3.986   1.171   4.079
 6563SOL    MW426573   3.981   1.244   4.126
 6564SOL     OW26574   4.651   1.708   3.917
 6564SOL    HW226575   4.606   1.724   4.000
 6564SOL    HW326576   4.582   1.673   3.859
 6564SOL    MW426577   4.637   1.705   3.919
 6565SOL     OW26578   5.586   0.481   3.892
 6565SOL    HW226579   5.495   0.483   3.920
 6565SOL    HW326580   5.631   0.543   3.950
 6565SOL    MW426581   5.579   0.489   3.902
 6566SOL     OW26582   5.331   1.084   4.242
 6566SOL    HW226583   5.241   1.084   4.277
 6566SOL    HW326584   5.324   1.130   4.159
 6566SOL    MW426585   5.318   1.090   4.236
 6567SOL     OW26586   5.131   0.719   5.314
 6567SOL    HW226587   5.200   0.657   5.291
 6567SOL    HW326588   5.056   0.693   5.261
 6567SOL    MW426589   5.131   0.706   5.305
 6568SOL     OW26590   3.872   1.599   4.866
 6568SOL    HW226591   3.855   1.545   4.943
 6568SOL    HW326592   3.860   1.689   4.896
 6568SOL    MW426593   3.869   1.603   4.880
 6569SOL     OW26594   4.867   1.106   5.306
 6569SOL    HW226595   4.852   1.199   5.291
 6569SOL    HW326596   4.962   1.096   5.306
 6569SOL    MW426597   4.876   1.116   5.303
 6570SOL     OW26598   4.663   0.530   5.507
 6570SOL    HW226599   4.753   0.531   5.474
 6570SOL    HW326600   4.622   0.455   5.465
 6570SOL    MW426601   4.669   0.520   5.498
 6571SOL     OW26602   5.238   1.062   4.634
 6571SOL    HW226603   5.241   0.996   4.565
 6571SOL    HW326604   5.323   1.105   4.630
 6571SOL    MW426605   5.250   1.058   4.625
 6572SOL     OW26606   4.858   0.665   4.203
 6572SOL    HW226607   4.884   0.689   4.114
 6572SOL    HW326608   4.840   0.572   4.199
 6572SOL    MW426609   4.860   0.657   4.190
 6573SOL     OW26610   5.523   1.285   4.054
 6573SOL    HW226611   5.479   1.326   4.129
 6573SOL    HW326612   5.580   1.353   4.019
 6573SOL    MW426613   5.525   1.299   4.059
 6574SOL     OW26614   4.443   0.334   5.457
 6574SOL    HW226615   4.453   0.260   5.397
 6574SOL    HW326616   4.479   0.303   5.540
 6574SOL    MW426617   4.449   0.320   5.459
 6575SOL     OW26618   4.179   1.701   4.372
 6575SOL    HW226619   4.211   1.789   4.350
 6575SOL    HW326620   4.132   1.673   4.294
 6575SOL    MW426621   4.178   1.709   4.359
 6576SOL     OW26622   5.563   0.063   4.421
 6576SOL    HW226623   5.617   0.014   4.483
 6576SOL    HW326624   5.506  -0.003   4.382
 6576SOL    MW426625   5.563   0.047   4.423
 6577SOL     OW26626   3.895   1.761   3.949
 6577SOL    HW226627   3.924   1.851   3.941
 6577SOL    HW326628   3.845   1.744   3.870
 6577SOL    MW426629   3.893   1.769   3.938
 6578SOL     OW26630   4.682   0.016   4.834
 6578SOL    HW226631   4.641   0.094   4.796
 6578SOL    HW326632   4.776   0.034   4.829
 6578SOL    MW426633   4.688   0.028   4.829
 6579SOL     OW26634   5.299   1.569   3.920
 6579SOL    HW226635   5.347   1.638   3.966
 6579SOL    HW326636   5.220   1.613   3.889
 6579SOL    MW426637   5.294   1.583   3.923
 6580SOL     OW26638   4.697   0.694   3.864
 6580SOL    HW226639   4.699   0.641   3.785
 6580SOL    HW326640   4.785   0.731   3.870
 6580SOL    MW426641   4.709   0.693   3.853
 6581SOL     OW26642   5.311   0.620   4.200
 6581SOL    HW226643   5.350   0.620   4.287
 6581SOL    HW326644   5.252   0.696   4.200
 6581SOL    MW426645   5.308   0.631   4.211
 6582SOL     OW26646   4.628   0.987   5.329
 6582SOL    HW226647   4.605   0.967   5.419
 6582SOL    HW326648   4.713   1.031   5.334
 6582SOL    MW426649   4.635   0.990   5.341
 6583SOL     OW26650   4.708   0.124   5.089
 6583SOL    HW226651   4.714   0.086   5.002
 6583SOL    HW326652   4.697   0.218   5.074
 6583SOL    MW426653   4.709   0.132   5.077
 6584SOL     OW26654   4.797   0.613   4.923
 6584SOL    HW226655   4.872   0.642   4.870
 6584SOL    HW326656   4.729   0.678   4.907
 6584SOL    MW426657   4.798   0.625   4.913
 6585SOL     OW26658   5.347   0.581   5.200
 6585SOL    HW226659   5.328   0.490   5.179
 6585SOL    HW326660   5.325   0.630   5.121
 6585SOL    MW426661   5.342   0.574   5.187
 6586SOL     OW26662   5.489   1.675   5.104
 6586SOL    HW226663   5.417   1.637   5.155
 6586SOL    HW326664   5.506   1.760   5.145
 6586SOL    MW426665   5.483   1.680   5.116
 6587SOL     OW26666   4.794   0.319   5.306
 6587SOL    HW226667   4.760   0.358   5.225
 6587SOL    HW326668   4.772   0.227   5.299
 6587SOL    MW426669   4.787   0.312   5.296
 6588SOL     OW26670   5.203   1.133   5.382
 6588SOL    HW226671   5.285   1.174   5.412
 6588SOL    HW326672   5.166   1.095   5.462
 6588SOL    MW426673   5.209   1.134   5.397
 6589SOL     OW26674   5.498   0.506   4.366
 6589SOL    HW226675   5.587   0.475   4.383
 6589SOL    HW326676   5.441   0.446   4.414
 6589SOL    MW426677   5.501   0.494   4.375
 6590SOL     OW26678   3.924   0.220   4.395
 6590SOL    HW226679   3.915   0.160   4.321
 6590SOL    HW326680   3.857   0.191   4.458
 6590SOL    MW426681   3.914   0.207   4.393
 6591SOL     OW26682   4.867   1.313   3.956
 6591SOL    HW226683   4.817   1.315   4.038
 6591SOL    HW326684   4.801   1.331   3.888
 6591SOL    MW426685   4.853   1.315   3.958
 6592SOL     OW26686   3.871   0.393   4.758
 6592SOL    HW226687   3.843   0.484   4.767
 6592SOL    HW326688   3.808   0.354   4.697
 6592SOL    MW426689   3.858   0.399   4.752
 6593SOL     OW26690   4.330   1.731   4.064
 6593SOL    HW226691   4.251   1.689   4.097
 6593SOL    HW326692   4.396   1.714   4.131
 6593SOL    MW426693   4.329   1.723   4.077
 6594SOL     OW26694   5.458   1.251   5.461
 6594SOL    HW226695   5.508   1.177   5.493
 6594SOL    HW326696   5.404   1.278   5.536
 6594SOL    MW426697   5.458   1.245   5.474
 6595SOL     OW26698   4.466   1.146   3.771
 6595SOL    HW226699   4.388   1.092   3.758
 6595SOL    HW326700   4.437   1.219   3.824
 6595SOL    MW426701   4.452   1.148   3.776
 6596SOL     OW26702   5.592   0.886   4.963
 6596SOL    HW226703   5.608   0.924   4.876
 6596SOL    HW326704   5.626   0.952   5.024
 6596SOL    MW426705   5.599   0.899   4.959
 6597SOL     OW26706   5.384   1.595   4.632
 6597SOL    HW226707   5.413   1.662   4.693
 6597SOL    HW326708   5.365   1.519   4.687
 6597SOL    MW426709   5.386   1.595   4.647
 6598SOL     OW26710   5.047   1.662   3.839
 6598SOL    HW226711   4.973   1.625   3.889
 6598SOL    HW326712   5.055   1.752   3.872
 6598SOL    MW426713   5.038   1.669   3.851
 6599SOL     OW26714   3.855   0.668   4.928
 6599SOL    HW226715   3.917   0.698   4.994
 6599SOL    HW326716   3.789   0.737   4.922
 6599SOL    MW426717   3.854   0.681   4.935
 6600SOL     OW26718   5.271   1.336   3.781
 6600SOL    HW226719   5.218   1.385   3.717
 6600SOL    HW326720   5.302   1.402   3.842
 6600SOL    MW426721   5.269   1.350   3.779
 6601SOL     OW26722   4.496   0.225   3.836
 6601SOL    HW226723   4.444   0.145   3.824
 6601SOL    HW326724   4.583   0.202   3.804
 6601SOL    MW426725   4.499   0.211   3.830
 6602SOL     OW26726   3.950   1.777   5.380
 6602SOL    HW226727   3.924   1.845   5.318
 6602SOL    HW326728   3.998   1.714   5.328
 6602SOL    MW426729   3.952   1.777   5.366
 6603SOL     OW26730   4.002   1.096   4.887
 6603SOL    HW226731   4.055   1.171   4.912
 6603SOL    HW326732   3.921   1.134   4.853
 6603SOL    MW426733   3.998   1.111   4.887
 6604SOL     OW26734   4.542   1.000   4.875
 6604SOL    HW226735   4.570   0.909   4.887
 6604SOL    HW326736   4.471   0.994   4.811
 6604SOL    MW426737   4.535   0.988   4.870
 6605SOL     OW26738   3.857   0.865   4.293
 6605SOL    HW226739   3.948   0.880   4.320
 6605SOL    HW326740   3.860   0.786   4.239
 6605SOL    MW426741   3.869   0.857   4.291
 6606SOL     OW26742   4.093   0.573   5.547
 6606SOL    HW226743   4.040   0.653   5.554
 6606SOL    HW326744   4.163   0.585   5.612
 6606SOL    MW426745   4.095   0.586   5.555
 6607SOL     OW26746   4.479   0.123   5.254
 6607SOL    HW226747   4.456   0.031   5.256
 6607SOL    HW326748   4.565   0.125   5.211
 6607SOL    MW426749   4.486   0.113   5.250
 6608SOL     OW26750   4.163   0.647   5.293
 6608SOL    HW226751   4.243   0.697   5.279
 6608SOL    HW326752   4.154   0.641   5.388
 6608SOL    MW426753   4.172   0.653   5.303
 6609SOL     OW26754   4.484   1.797   4.667
 6609SOL    HW226755   4.573   1.812   4.697
 6609SOL    HW326756   4.479   1.844   4.583
 6609SOL    MW426757   4.494   1.805   4.660
 6610SOL     OW26758   5.140   0.172   5.564
 6610SOL    HW226759   5.196   0.099   5.590
 6610SOL    HW326760   5.110   0.210   5.646
 6610SOL    MW426761   5.144   0.167   5.577
 6611SOL     OW26762   3.865   1.477   4.332
 6611SOL    HW226763   3.837   1.516   4.414
 6611SOL    HW326764   3.885   1.386   4.354
 6611SOL    MW426765   3.863   1.469   4.345
 6612SOL     OW26766   4.698   1.520   4.367
 6612SOL    HW226767   4.781   1.474   4.351
 6612SOL    HW326768   4.688   1.519   4.463
 6612SOL    MW426769   4.708   1.513   4.377
 6613SOL     OW26770   5.530   0.665   4.681
 6613SOL    HW226771   5.619   0.695   4.663
 6613SOL    HW326772   5.510   0.605   4.610
 6613SOL    MW426773   5.539   0.662   4.670
 6614SOL     OW26774   5.381   0.844   5.561
 6614SOL    HW226775   5.436   0.768   5.542
 6614SOL    HW326776   5.383   0.852   5.656
 6614SOL    MW426777   5.389   0.835   5.569
 6615SOL     OW26778   4.431   1.577   3.772
 6615SOL    HW226779   4.371   1.646   3.742
 6615SOL    HW326780   4.376   1.519   3.825
 6615SOL    MW426781   4.415   1.579   3.774
 6616SOL     OW26782   4.869   0.222   3.995
 6616SOL    HW226783   4.802   0.198   3.932
 6616SOL    HW326784   4.934   0.271   3.944
 6616SOL    MW426785   4.869   0.224   3.980
 6617SOL     OW26786   4.676   0.406   5.080
 6617SOL    HW226787   4.595   0.447   5.108
 6617SOL    HW326788   4.723   0.474   5.032
 6617SOL    MW426789   4.671   0.421   5.078
 6618SOL     OW26790   4.936   0.744   4.703
 6618SOL    HW226791   4.949   0.838   4.713
 6618SOL    HW326792   4.897   0.734   4.617
 6618SOL    MW426793   4.932   0.755   4.693
 6619SOL     OW26794   4.388   0.939   4.507
 6619SOL    HW226795   4.299   0.930   4.540
 6619SOL    HW326796   4.392   1.029   4.475
 6619SOL    MW426797   4.377   0.950   4.507
 6620SOL     OW26798   5.187   0.522   4.502
 6620SOL    HW226799   5.132   0.443   4.501
 6620SOL    HW326800   5.169   0.563   4.586
 6620SOL    MW426801   5.177   0.517   4.511
 6621SOL     OW26802   4.158   0.209   5.319
 6621SOL    HW226803   4.079   0.227   5.371
 6621SOL    HW326804   4.153   0.271   5.246
 6621SOL    MW426805   4.148   0.219   5.316
 6622SOL     OW26806   4.806   0.726   4.459
 6622SOL    HW226807   4.743   0.658   4.483
 6622SOL    HW326808   4.826   0.707   4.367
 6622SOL    MW426809   4.800   0.713   4.451
 6623SOL     OW26810   4.062   1.621   4.161
 6623SOL    HW226811   4.023   1.668   4.087
 6623SOL    HW326812   3.996   1.556   4.186
 6623SOL    MW426813   4.049   1.619   4.155
 6624SOL     OW26814   4.554   1.030   4.185
 6624SOL    HW226815   4.556   1.004   4.092
 6624SOL    HW326816   4.612   0.967   4.228
 6624SOL    MW426817   4.562   1.019   4.179
 6625SOL     OW26818   5.107   1.590   4.957
 6625SOL    HW226819   5.032   1.636   4.995
 6625SOL    HW326820   5.089   1.497   4.974
 6625SOL    MW426821   5.096   1.584   4.965
 6626SOL     OW26822   5.111   1.798   4.387
 6626SOL    HW226823   5.054   1.751   4.326
 6626SOL    HW326824   5.197   1.759   4.374
 6626SOL    MW426825   5.114   1.789   4.377
 6627SOL     OW26826   5.064   0.274   4.518
 6627SOL    HW226827   5.092   0.206   4.579
 6627SOL    HW326828   4.978   0.245   4.488
 6627SOL    MW426829   5.057   0.261   4.522
 6628SOL     OW26830   3.869   1.208   4.452
 6628SOL    HW226831   3.933   1.240   4.515
 6628SOL    HW326832   3.918   1.144   4.400
 6628SOL    MW426833   3.884   1.204   4.453
 6629SOL     OW26834   4.369   1.284   5.434
 6629SOL    HW226835   4.417   1.367   5.421
 6629SOL    HW326836   4.426   1.232   5.490
 6629SOL    MW426837   4.383   1.288   5.440
 6630SOL     OW26838   3.945   1.526   5.574
 6630SOL    HW226839   4.001   1.450   5.589
 6630SOL    HW326840   3.894   1.504   5.496
 6630SOL    MW426841   3.945   1.513   5.565
 6631SOL     OW26842   5.044   0.378   3.853
 6631SOL    HW226843   5.017   0.444   3.789
 6631SOL    HW326844   5.114   0.421   3.903
 6631SOL    MW426845   5.049   0.391   3.850
 6632SOL     OW26846   4.712   0.083   3.790
 6632SOL    HW226847   4.768   0.075   3.712
 6632SOL    HW326848   4.689  -0.007   3.812
 6632SOL    MW426849   4.717   0.070   3.783
 6633SOL     OW26850   5.217   0.934   3.995
 6633SOL    HW226851   5.184   1.023   3.985
 6633SOL    HW326852   5.182   0.905   4.080
 6633SOL    MW426853   5.207   0.943   4.006
 6634SOL     OW26854   4.830   1.363   5.183
 6634SOL    HW226855   4.741   1.369   5.151
 6634SOL    HW326856   4.874   1.442   5.151
 6634SOL    MW426857   4.825   1.373   5.175
 6635SOL     OW26858   4.123   0.031   5.525
 6635SOL    HW226859   4.051  -0.004   5.473
 6635SOL    HW326860   4.181   0.072   5.460
 6635SOL    MW426861   4.121   0.032   5.510
 6636SOL     OW26862   4.147   1.521   4.824
 6636SOL    HW226863   4.192   1.583   4.881
 6636SOL    HW326864   4.054   1.540   4.837
 6636SOL    MW426865   4.140   1.531   4.831
 6637SOL     OW26866   5.587   1.050   5.178
 6637SOL    HW226867   5.502   1.063   5.137
 6637SOL    HW326868   5.567   1.014   5.265
 6637SOL    MW426869   5.574   1.046   5.183
 6638SOL     OW26870   4.569   1.589   4.932
 6638SOL    HW226871   4.593   1.578   4.841
 6638SOL    HW326872   4.492   1.646   4.930
 6638SOL    MW426873   4.561   1.594   4.921
 6639SOL     OW26874   4.211   0.972   3.787
 6639SOL    HW226875   4.134   0.985   3.843
 6639SOL    HW326876   4.175   0.936   3.706
 6639SOL    MW426877   4.197   0.968   3.784
 6640SOL     OW26878   4.864   0.945   4.030
 6640SOL    HW226879   4.774   0.966   4.005
 6640SOL    HW326880   4.891   1.018   4.086
 6640SOL    MW426881   4.856   0.957   4.033
 6641SOL     OW26882   4.364   1.294   4.722
 6641SOL    HW226883   4.357   1.273   4.816
 6641SOL    HW326884   4.282   1.262   4.685
 6641SOL    MW426885   4.352   1.288   4.729
 6642SOL     OW26886   5.228   0.304   5.124
 6642SOL    HW226887   5.175   0.306   5.204
 6642SOL    HW326888   5.213   0.217   5.087
 6642SOL    MW426889   5.220   0.294   5.129
 6643SOL     OW26890   5.564   0.228   4.997
 6643SOL    HW226891   5.545   0.295   4.932
 6643SOL    HW326892   5.621   0.166   4.952
 6643SOL    MW426893   5.568   0.229   4.983
 6644SOL     OW26894   3.810   1.386   5.385
 6644SOL    HW226895   3.854   1.319   5.331
 6644SOL    HW326896   3.725   1.348   5.405
 6644SOL    MW426897   3.805   1.372   5.381
 6645SOL     OW26898   4.493   0.061   4.437
 6645SOL    HW226899   4.422   0.122   4.419
 6645SOL    HW326900   4.544   0.058   4.356
 6645SOL    MW426901   4.489   0.067   4.424
 6646SOL     OW26902   4.251   1.301   4.186
 6646SOL    HW226903   4.244   1.333   4.276
 6646SOL    HW326904   4.161   1.285   4.158
 6646SOL    MW426905   4.239   1.303   4.193
 6647SOL     OW26906   4.846   1.694   5.095
 6647SOL    HW226907   4.766   1.679   5.045
 6647SOL    HW326908   4.853   1.789   5.102
 6647SOL    MW426909   4.837   1.705   5.089
 6648SOL     OW26910   4.960   1.659   4.585
 6648SOL    HW226911   5.007   1.732   4.544
 6648SOL    HW326912   4.881   1.698   4.621
 6648SOL    MW426913   4.955   1.674   4.584
 6649SOL     OW26914   5.368   1.754   4.860
 6649SOL    HW226915   5.411   1.724   4.940
 6649SOL    HW326916   5.287   1.702   4.857
 6649SOL    MW426917   5.363   1.743   4.870
 6650SOL     OW26918   4.453   0.718   5.567
 6650SOL    HW226919   4.523   0.660   5.539
 6650SOL    HW326920   4.396   0.663   5.622
 6650SOL    MW426921   4.455   0.705   5.571
 6651SOL     OW26922   5.240   0.930   5.200
 6651SOL    HW226923   5.245   0.983   5.280
 6651SOL    HW326924   5.202   0.847   5.228
 6651SOL    MW426925   5.236   0.925   5.215
 6652SOL     OW26926   4.880   0.065   5.446
 6652SOL    HW226927   4.875  -0.028   5.427
 6652SOL    HW326928   4.963   0.076   5.492
 6652SOL    MW426929   4.888   0.054   5.450
 6653SOL     OW26930   4.254   0.585   3.900
 6653SOL    HW226931   4.220   0.641   3.970
 6653SOL    HW326932   4.325   0.535   3.940
 6653SOL    MW426933   4.260   0.586   3.914
 6654SOL     OW26934   5.350   1.336   4.722
 6654SOL    HW226935   5.385   1.318   4.635
 6654SOL    HW326936   5.255   1.337   4.709
 6654SOL    MW426937   5.342   1.333   4.709
 6655SOL     OW26938   4.779   0.984   5.091
 6655SOL    HW226939   4.822   1.019   5.169
 6655SOL    HW326940   4.762   1.061   5.037
 6655SOL    MW426941   4.782   0.999   5.094
 6656SOL     OW26942   5.310   0.471   3.964
 6656SOL    HW226943   5.302   0.542   3.901
 6656SOL    HW326944   5.328   0.515   4.047
 6656SOL    MW426945   5.311   0.485   3.966
 6657SOL     OW26946   4.170   0.126   4.393
 6657SOL    HW226947   4.220   0.169   4.324
 6657SOL    HW326948   4.085   0.170   4.393
 6657SOL    MW426949   4.167   0.139   4.384
 6658SOL     OW26950   3.929   1.188   5.253
 6658SOL    HW226951   3.957   1.141   5.331
 6658SOL    HW326952   3.850   1.143   5.224
 6658SOL    MW426953   3.922   1.177   5.259
 6659SOL     OW26954   4.437   0.515   5.220
 6659SOL    HW226955   4.409   0.603   5.244
 6659SOL    HW326956   4.406   0.459   5.291
 6659SOL    MW426957   4.429   0.518   5.232
 6660SOL     OW26958   4.979   0.733   3.939
 6660SOL    HW226959   5.026   0.751   3.858
 6660SOL    HW326960   4.945   0.817   3.967
 6660SOL    MW426961   4.981   0.747   3.932
 6661SOL     OW26962   4.092   0.911   4.433
 6661SOL    HW226963   4.150   0.967   4.381
 6661SOL    HW326964   4.136   0.826   4.435
 6661SOL    MW426965   4.105   0.908   4.426
 6662SOL     OW26966   5.232   0.263   4.270
 6662SOL    HW226967   5.154   0.213   4.295
 6662SOL    HW326968   5.203   0.354   4.270
 6662SOL    MW426969   5.218   0.267   4.273
 6663SOL     OW26970   4.818   0.225   4.429
 6663SOL    HW226971   4.838   0.300   4.373
 6663SOL    HW326972   4.798   0.264   4.514
 6663SOL    MW426973   4.819   0.241   4.433
 6664SOL     OW26974   4.714   1.475   3.761
 6664SOL    HW226975   4.741   1.553   3.713
 6664SOL    HW326976   4.621   1.490   3.780
 6664SOL    MW426977   4.705   1.488   3.757
 6665SOL     OW26978   5.578   0.998   5.448
 6665SOL    HW226979   5.491   0.978   5.484
 6665SOL    HW326980   5.632   0.924   5.473
 6665SOL    MW426981   5.573   0.987   5.456
 6666SOL     OW26982   3.799   1.511   4.605
 6666SOL    HW226983   3.831   1.515   4.696
 6666SOL    HW326984   3.704   1.519   4.613
 6666SOL    MW426985   3.791   1.514   4.618
 6667SOL     OW26986   3.754   0.637   4.152
 6667SOL    HW226987   3.694   0.609   4.222
 6667SOL    HW326988   3.828   0.577   4.158
 6667SOL    MW426989   3.756   0.626   4.161
 6668SOL     OW26990   5.322   1.849   5.586
 6668SOL    HW226991   5.367   1.773   5.551
 6668SOL    HW326992   5.360   1.862   5.673
 6668SOL    MW426993   5.332   1.842   5.592
 6669SOL     OW26994   4.922   1.368   4.312
 6669SOL    HW226995   4.945   1.319   4.390
 6669SOL    HW326996   5.003   1.410   4.284
 6669SOL    MW426997   4.935   1.368   4.319
 6670SOL     OW26998   4.180   0.376   5.041
 6670SOL    HW226999   4.213   0.457   5.081
 6670SOL    HW327000   4.153   0.402   4.953
 6670SOL    MW427001   4.179   0.390   5.035
 6671SOL     OW27002   4.134   0.343   4.777
 6671SOL    HW227003   4.164   0.257   4.748
 6671SOL    HW327004   4.039   0.336   4.780
 6671SOL    MW427005   4.126   0.332   4.775
 6672SOL     OW27006   4.963   0.552   5.468
 6672SOL    HW227007   5.015   0.487   5.421
 6672SOL    HW327008   4.921   0.603   5.398
 6672SOL    MW427009   4.964   0.549   5.451
 6673SOL     OW27010   5.062   0.347   5.329
 6673SOL    HW227011   4.969   0.331   5.316
 6673SOL    HW327012   5.088   0.285   5.397
 6673SOL    MW427013   5.052   0.337   5.336
 6674SOL     OW27014   4.277   0.121   4.668
 6674SOL    HW227015   4.287   0.030   4.694
 6674SOL    HW327016   4.233   0.117   4.583
 6674SOL    MW427017   4.273   0.109   4.660
 6675SOL     OW27018   4.371   1.736   5.214
 6675SOL    HW227019   4.288   1.721   5.259
 6675SOL    HW327020   4.430   1.669   5.249
 6675SOL    MW427021   4.369   1.726   5.224
 6676SOL     OW27022   5.428   0.443   4.839
 6676SOL    HW227023   5.361   0.476   4.899
 6676SOL    HW327024   5.471   0.521   4.805
 6676SOL    MW427025   5.426   0.458   4.843
 6677SOL     OW27026   5.606   1.163   4.809
 6677SOL    HW227027   5.599   1.103   4.734
 6677SOL    HW327028   5.532   1.223   4.798
 6677SOL    MW427029   5.596   1.163   4.798
 6678SOL     OW27030   4.988   1.025   4.727
 6678SOL    HW227031   5.002   0.997   4.818
 6678SOL    HW327032   5.074   1.056   4.699
 6678SOL    MW427033   5.001   1.026   4.736
 6679SOL     OW27034   5.071   0.520   5.006
 6679SOL    HW227035   5.092   0.521   4.913
 6679SOL    HW327036   5.116   0.442   5.039
 6679SOL    MW427037   5.078   0.510   4.998
 6680SOL     OW27038   5.564   0.651   5.548
 6680SOL    HW227039   5.601   0.596   5.617
 6680SOL    HW327040   5.589   0.608   5.466
 6680SOL    MW427041   5.571   0.639   5.547
 6681SOL     OW27042   5.111   0.949   5.600
 6681SOL    HW227043   5.177   0.897   5.554
 6681SOL    HW327044   5.131   0.936   5.693
 6681SOL    MW427045   5.122   0.940   5.607
 6682SOL     OW27046   5.062   0.035   3.948
 6682SOL    HW227047   5.136   0.079   3.991
 6682SOL    HW327048   4.986   0.089   3.970
 6682SOL    MW427049   5.062   0.047   3.956
 6683SOL     OW27050   5.122   0.810   4.226
 6683SOL    HW227051   5.037   0.780   4.196
 6683SOL    HW327052   5.114   0.817   4.321
 6683SOL    MW427053   5.110   0.808   4.235
 6684SOL     OW27054   4.198   1.273   4.957
 6684SOL    HW227055   4.210   1.300   5.048
 6684SOL    HW327056   4.179   1.354   4.910
 6684SOL    MW427057   4.197   1.288   4.962
 6685SOL     OW27058   4.482   0.253   4.780
 6685SOL    HW227059   4.455   0.255   4.871
 6685SOL    HW327060   4.412   0.205   4.735
 6685SOL    MW427061   4.470   0.249   4.787
 6686SOL     OW27062   4.336   1.745   4.942
 6686SOL    HW227063   4.388   1.822   4.919
 6686SOL    HW327064   4.345   1.737   5.037
 6686SOL    MW427065   4.345   1.752   4.953
 6687SOL     OW27066   5.238   1.330   5.174
 6687SOL    HW227067   5.223   1.259   5.237
 6687SOL    HW327068   5.284   1.288   5.102
 6687SOL    MW427069   5.244   1.314   5.174
 6688SOL     OW27070   4.312   1.061   5.291
 6688SOL    HW227071   4.349   1.066   5.203
 6688SOL    HW327072   4.351   1.134   5.338
 6688SOL    MW427073   4.322   1.071   5.286
 6689SOL     OW27074   4.492   1.104   5.103
 6689SOL    HW227075   4.551   1.050   5.156
 6689SOL    HW327076   4.507   1.076   5.013
 6689SOL    MW427077   4.502   1.093   5.099
 6690SOL     OW27078   4.495   0.476   3.952
 6690SOL    HW227079   4.568   0.525   3.915
 6690SOL    HW327080   4.511   0.385   3.926
 6690SOL    MW427081   4.507   0.471   3.945
 6691SOL     OW27082   5.303   1.593   5.275
 6691SOL    HW227083   5.345   1.578   5.360
 6691SOL    HW327084   5.294   1.506   5.237
 6691SOL    MW427085   5.307   1.581   5.282
 6692SOL     OW27086   4.963   0.072   4.866
 6692SOL    HW227087   5.018   0.081   4.788
 6692SOL    HW327088   5.018   0.106   4.937
 6692SOL    MW427089   4.977   0.077   4.865
 6693SOL     OW27090   3.970   0.985   4.050
 6693SOL    HW227091   3.907   1.001   3.979
 6693SOL    HW327092   3.917   0.948   4.121
 6693SOL    MW427093   3.955   0.982   4.050
 6694SOL     OW27094   4.326   1.339   3.909
 6694SOL    HW227095   4.341   1.315   4.001
 6694SOL    HW327096   4.234   1.317   3.893
 6694SOL    MW427097   4.316   1.332   3.919
 6695SOL     OW27098   4.865   1.570   4.061
 6695SOL    HW227099   4.873   1.488   4.012
 6695SOL    HW327100   4.784   1.609   4.028
 6695SOL    MW427101   4.855   1.565   4.051
 6696SOL     OW27102   4.124   1.728   4.630
 6696SOL    HW227103   4.128   1.639   4.665
 6696SOL    HW327104   4.150   1.719   4.539
 6696SOL    MW427105   4.127   1.716   4.622
 6697SOL     OW27106   4.741   1.206   4.873
 6697SOL    HW227107   4.673   1.140   4.889
 6697SOL    HW327108   4.759   1.200   4.780
 6697SOL    MW427109   4.734   1.197   4.864
 6698SOL     OW27110   3.830   1.481   5.124
 6698SOL    HW227111   3.820   1.439   5.210
 6698SOL    HW327112   3.751   1.534   5.114
 6698SOL    MW427113   3.819   1.482   5.135
 6699SOL     OW27114   4.734   0.345   4.694
 6699SOL    HW227115   4.664   0.297   4.739
 6699SOL    HW327116   4.766   0.408   4.758
 6699SOL    MW427117   4.729   0.347   4.708
 6700SOL     OW27118   4.385   0.781   5.314
 6700SOL    HW227119   4.378   0.876   5.302
 6700SOL    HW327120   4.394   0.770   5.409
 6700SOL    MW427121   4.386   0.793   5.324
 6701SOL     OW27122   4.106   1.296   5.572
 6701SOL    HW227123   4.178   1.298   5.509
 6701SOL    HW327124   4.076   1.205   5.571
 6701SOL    MW427125   4.111   1.285   5.564
 6702SOL     OW27126   5.190   0.059   5.039
 6702SOL    HW227127   5.261   0.005   5.003
 6702SOL    HW327128   5.189   0.038   5.132
 6702SOL    MW427129   5.199   0.050   5.047
 6703SOL     OW27130   5.390   1.589   5.523
 6703SOL    HW227131   5.363   1.586   5.614
 6703SOL    HW327132   5.486   1.593   5.526
 6703SOL    MW427133   5.400   1.589   5.535
 6704SOL     OW27134   4.201   0.451   4.507
 6704SOL    HW227135   4.272   0.399   4.470
 6704SOL    HW327136   4.187   0.416   4.594
 6704SOL    MW427137   4.209   0.440   4.514
 6705SOL     OW27138   3.756   1.786   5.579
 6705SOL    HW227139   3.806   1.764   5.501
 6705SOL    HW327140   3.764   1.881   5.587
 6705SOL    MW427141   3.764   1.795   5.570
 6706SOL     OW27142   4.517   1.544   4.583
 6706SOL    HW227143   4.445   1.481   4.596
 6706SOL    HW327144   4.478   1.629   4.601
 6706SOL    MW427145   4.501   1.547   4.586
 6707SOL     OW27146   4.837   0.392   4.231
 6707SOL    HW227147   4.859   0.329   4.163
 6707SOL    HW327148   4.742   0.384   4.242
 6707SOL    MW427149   4.827   0.383   4.223
 6708SOL     OW27150   3.922   0.082   4.163
 6708SOL    HW227151   3.993   0.103   4.102
 6708SOL    HW327152   3.876   0.010   4.121
 6708SOL    MW427153   3.926   0.076   4.149
 6709SOL     OW27154   3.753   0.549   5.306
 6709SOL    HW227155   3.817   0.615   5.281
 6709SOL    HW327156   3.672   0.576   5.263
 6709SOL    MW427157   3.751   0.561   5.298
 6710SOL     OW27158   5.491   1.456   4.263
 6710SOL    HW227159   5.461   1.389   4.324
 6710SOL    HW327160   5.585   1.462   4.277
 6710SOL    MW427161   5.499   1.448   4.273
 6711SOL     OW27162   5.047   1.133   4.193
 6711SOL    HW227163   5.019   1.219   4.226
 6711SOL    HW327164   5.075   1.149   4.103
 6711SOL    MW427165   5.047   1.147   4.185
 6712SOL     OW27166   4.709   0.053   4.246
 6712SOL    HW227167   4.746   0.112   4.311
 6712SOL    HW327168   4.686   0.109   4.172
 6712SOL    MW427169   4.710   0.068   4.245
 6713SOL     OW27170   5.562   0.935   4.668
 6713SOL    HW227171   5.553   0.967   4.579
 6713SOL    HW327172   5.515   0.851   4.668
 6713SOL    MW427173   5.555   0.928   4.658
 6714SOL     OW27174   3.938   0.775   5.247
 6714SOL    HW227175   3.959   0.844   5.185
 6714SOL    HW327176   4.018   0.722   5.252
 6714SOL    MW427177   3.951   0.776   5.241
 6715SOL     OW27178   5.474   0.866   4.369
 6715SOL    HW227179   5.568   0.855   4.357
 6715SOL    HW327180   5.450   0.938   4.310
 6715SOL    MW427181   5.484   0.874   4.360
 6716SOL     OW27182   3.923   0.790   5.514
 6716SOL    HW227183   3.849   0.734   5.540
 6716SOL    HW327184   3.918   0.793   5.419
 6716SOL    MW427185   3.912   0.783   5.504
 6717SOL     OW27186   4.089   0.077   4.964
 6717SOL    HW227187   4.132   0.161   4.984
 6717SOL    HW327188   4.162   0.015   4.957
 6717SOL    MW427189   4.104   0.080   4.965
 6718SOL     OW27190   4.130   0.744   4.142
 6718SOL    HW227191   4.130   0.839   4.127
 6718SOL    HW327192   4.207   0.728   4.196
 6718SOL    MW427193   4.140   0.755   4.147
 6719SOL     OW27194   4.906   0.603   5.206
 6719SOL    HW227195   4.942   0.576   5.122
 6719SOL    HW327196   4.819   0.637   5.185
 6719SOL    MW427197   4.900   0.604   5.193
 6720SOL     OW27198   3.889   0.475   4.431
 6720SOL    HW227199   3.951   0.482   4.504
 6720SOL    HW327200   3.889   0.382   4.408
 6720SOL    MW427201   3.897   0.464   4.438
 6721SOL     OW27202   5.436   1.815   3.963
 6721SOL    HW227203   5.503   1.848   3.903
 6721SOL    HW327204   5.393   1.894   3.997
 6721SOL    MW427205   5.438   1.830   3.959
 6722SOL     OW27206   4.571   0.736   4.915
 6722SOL    HW227207   4.529   0.654   4.891
 6722SOL    HW327208   4.572   0.735   5.011
 6722SOL    MW427209   4.564   0.725   4.924
 6723SOL     OW27210   5.242   1.869   5.314
 6723SOL    HW227211   5.245   1.775   5.297
 6723SOL    HW327212   5.265   1.877   5.406
 6723SOL    MW427213   5.245   1.857   5.324
 6724SOL     OW27214   4.375   0.206   5.020
 6724SOL    HW227215   4.306   0.269   5.041
 6724SOL    HW327216   4.402   0.170   5.105
 6724SOL    MW427217   4.369   0.209   5.033
 6725SOL     OW27218   3.758   1.047   3.889
 6725SOL    HW227219   3.727   1.112   3.952
 6725SOL    HW327220   3.707   0.969   3.908
 6725SOL    MW427221   3.748   1.044   3.899
 6726SOL     OW27222   5.170   0.059   4.637
 6726SOL    HW227223   5.258   0.068   4.674
 6726SOL    HW327224   5.180   0.000   4.563
 6726SOL    MW427225   5.184   0.053   4.631
 6727SOL     OW27226   5.202   0.798   4.481
 6727SOL    HW227227   5.282   0.813   4.430
 6727SOL    HW327228   5.195   0.703   4.487
 6727SOL    MW427229   5.211   0.787   4.476
 6728SOL     OW27230   4.342   1.847   3.831
 6728SOL    HW227231   4.247   1.847   3.823
 6728SOL    HW327232   4.358   1.793   3.909
 6728SOL    MW427233   4.332   1.841   3.840
 6729SOL     OW27234   4.652   0.724   5.178
 6729SOL    HW227235   4.721   0.791   5.175
 6729SOL    HW327236   4.585   0.762   5.234
 6729SOL    MW427237   4.653   0.737   5.185
 6730SOL     OW27238   4.070   1.024   5.426
 6730SOL    HW227239   4.024   0.940   5.428
 6730SOL    HW327240   4.127   1.018   5.350
 6730SOL    MW427241   4.072   1.012   5.418
 6731SOL     OW27242   5.187   0.667   3.747
 6731SOL    HW227243   5.115   0.643   3.689
 6731SOL    HW327244   5.253   0.704   3.689
 6731SOL    MW427245   5.186   0.669   3.732
 6732SOL     OW27246   4.321   1.399   4.427
 6732SOL    HW227247   4.386   1.332   4.448
 6732SOL    HW327248   4.373   1.476   4.404
 6732SOL    MW427249   4.336   1.401   4.426
 6733SOL     OW27250   4.582   0.564   4.557
 6733SOL    HW227251   4.522   0.582   4.629
 6733SOL    HW327252   4.616   0.476   4.576
 6733SOL    MW427253   4.578   0.554   4.570
 6734SOL     OW27254   5.523   0.063   5.226
 6734SOL    HW227255   5.444   0.109   5.254
 6734SOL    HW327256   5.558   0.117   5.155
 6734SOL    MW427257   5.517   0.076   5.220
 6735SOL     OW27258   4.807   1.147   4.576
 6735SOL    HW227259   4.899   1.128   4.594
 6735SOL    HW327260   4.780   1.077   4.516
 6735SOL    MW427261   4.815   1.135   4.570
 6736SOL     OW27262   4.600   0.967   3.931
 6736SOL    HW227263   4.586   0.879   3.896
 6736SOL    HW327264   4.551   1.024   3.872
 6736SOL    MW427265   4.592   0.962   3.919
 6737SOL     OW27266   5.081   1.385   4.672
 6737SOL    HW227267   5.054   1.469   4.637
 6737SOL    HW327268   5.041   1.380   4.759
 6737SOL    MW427269   5.074   1.394   4.678
 6738SOL     OW27270   5.000   1.333   4.940
 6738SOL    HW227271   5.011   1.300   5.029
 6738SOL    HW327272   4.919   1.292   4.909
 6738SOL    MW427273   4.990   1.325   4.946
 6739SOL     OW27274   4.013   0.691   4.710
 6739SOL    HW227275   3.963   0.690   4.791
 6739SOL    HW327276   4.033   0.783   4.694
 6739SOL    MW427277   4.009   0.703   4.718
 6740SOL     OW27278   5.080   1.455   5.472
 6740SOL    HW227279   5.080   1.549   5.488
 6740SOL    HW327280   5.125   1.445   5.388
 6740SOL    MW427281   5.086   1.465   5.463
 6741SOL     OW27282   5.319   0.173   4.033
 6741SOL    HW227283   5.312   0.177   4.128
 6741SOL    HW327284   5.331   0.264   4.006
 6741SOL    MW427285   5.320   0.186   4.041
 6742SOL     OW27286   4.608   0.736   4.147
 6742SOL    HW227287   4.588   0.722   4.054
 6742SOL    HW327288   4.701   0.715   4.154
 6742SOL    MW427289   4.618   0.731   4.136
 6743SOL     OW27290   3.935   0.359   5.451
 6743SOL    HW227291   3.892   0.418   5.388
 6743SOL    HW327292   4.003   0.414   5.491
 6743SOL    MW427293   3.939   0.374   5.448
 6744SOL     OW27294   5.047   0.979   4.996
 6744SOL    HW227295   5.110   0.976   5.069
 6744SOL    HW327296   4.963   0.997   5.038
 6744SOL    MW427297   5.043   0.981   5.011
 6745SOL     OW27298   4.591   1.694   4.185
 6745SOL    HW227299   4.649   1.765   4.212
 6745SOL    HW327300   4.614   1.622   4.243
 6745SOL    MW427301   4.602   1.694   4.196
 6746SOL     OW27302   5.386   0.156   4.775
 6746SOL    HW227303   5.431   0.074   4.794
 6746SOL    HW327304   5.406   0.212   4.851
 6746SOL    MW427305   5.396   0.152   4.787
 6747SOL     OW27306   3.834  -0.001   4.874
 6747SOL    HW227307   3.825   0.000   4.779
 6747SOL    HW327308   3.928   0.011   4.889
 6747SOL    MW427309   3.846   0.002   4.865
 6748SOL     OW27310   5.471   1.192   4.494
 6748SOL    HW227311   5.450   1.138   4.417
 6748SOL    HW327312   5.567   1.190   4.498
 6748SOL    MW427313   5.480   1.185   4.483
 6749SOL     OW27314   4.163   1.337   5.237
 6749SOL    HW227315   4.084   1.287   5.260
 6749SOL    HW327316   4.233   1.296   5.287
 6749SOL    MW427317   4.161   1.325   5.247
 6750SOL     OW27318   4.047   0.126   3.920
 6750SOL    HW227319   3.976   0.181   3.888
 6750SOL    HW327320   4.089   0.092   3.841
 6750SOL    MW427321   4.043   0.128   3.906
 6751SOL     OW27322   5.171   0.623   4.756
 6751SOL    HW227323   5.094   0.669   4.722
 6751SOL    HW327324   5.228   0.692   4.790
 6751SOL    MW427325   5.168   0.638   4.756
 6752SOL     OW27326   3.803   0.225   3.769
 6752SOL    HW227327   3.770   0.304   3.813
 6752SOL    HW327328   3.858   0.258   3.698
 6752SOL    MW427329   3.806   0.239   3.766
 6753SOL     OW27330   3.837   1.482   3.958
 6753SOL    HW227331   3.854   1.566   4.000
 6753SOL    HW327332   3.872   1.491   3.870
 6753SOL    MW427333   3.842   1.495   3.952
 6754SOL     OW27334   5.109   1.571   4.175
 6754SOL    HW227335   5.172   1.561   4.104
 6754SOL    HW327336   5.026   1.591   4.130
 6754SOL    MW427337   5.106   1.572   4.160
 6755SOL     OW27338   5.472   0.839   5.862
 6755SOL    HW227339   5.513   0.781   5.927
 6755SOL    HW327340   5.379   0.831   5.879
 6755SOL    MW427341   5.466   0.831   5.872
 6756SOL     OW27342   4.266   1.022   6.091
 6756SOL    HW227343   4.356   0.997   6.075
 6756SOL    HW327344   4.262   1.115   6.068
 6756SOL    MW427345   4.278   1.031   6.086
 6757SOL     OW27346   5.382   1.725   6.233
 6757SOL    HW227347   5.394   1.671   6.311
 6757SOL    HW327348   5.419   1.673   6.162
 6757SOL    MW427349   5.388   1.710   6.234
 6758SOL     OW27350   4.550   0.478   6.104
 6758SOL    HW227351   4.525   0.566   6.132
 6758SOL    HW327352   4.547   0.481   6.008
 6758SOL    MW427353   4.546   0.490   6.096
 6759SOL     OW27354   3.992   0.506   6.032
 6759SOL    HW227355   4.024   0.594   6.014
 6759SOL    HW327356   3.980   0.504   6.127
 6759SOL    MW427357   3.995   0.518   6.044
 6760SOL     OW27358   4.391   0.261   6.119
 6760SOL    HW227359   4.449   0.337   6.121
 6760SOL    HW327360   4.326   0.282   6.052
 6760SOL    MW427361   4.390   0.273   6.110
 6761SOL     OW27362   4.478   1.188   6.294
 6761SOL    HW227363   4.558   1.191   6.346
 6761SOL    HW327364   4.506   1.155   6.208
 6761SOL    MW427365   4.492   1.184   6.289
 6762SOL     OW27366   4.255   0.692   6.285
 6762SOL    HW227367   4.240   0.612   6.336
 6762SOL    HW327368   4.337   0.727   6.319
 6762SOL    MW427369   4.263   0.684   6.297
 6763SOL     OW27370   4.143   0.932   6.566
 6763SOL    HW227371   4.098   0.939   6.482
 6763SOL    HW327372   4.123   1.015   6.610
 6763SOL    MW427373   4.135   0.944   6.560
 6764SOL     OW27374   3.840   1.778   6.441
 6764SOL    HW227375   3.929   1.770   6.476
 6764SOL    HW327376   3.804   1.690   6.446
 6764SOL    MW427377   3.847   1.765   6.446
 6765SOL     OW27378   5.105   1.170   5.810
 6765SOL    HW227379   5.023   1.206   5.776
 6765SOL    HW327380   5.173   1.213   5.759
 6765SOL    MW427381   5.103   1.180   5.798
 6766SOL     OW27382   4.666   0.949   6.286
 6766SOL    HW227383   4.580   0.936   6.326
 6766SOL    HW327384   4.719   0.876   6.318
 6766SOL    MW427385   4.662   0.938   6.295
 6767SOL     OW27386   4.657   1.311   6.003
 6767SOL    HW227387   4.634   1.373   6.071
 6767SOL    HW327388   4.614   1.229   6.029
 6767SOL    MW427389   4.649   1.307   6.014
 6768SOL     OW27390   5.530   0.312   6.459
 6768SOL    HW227391   5.467   0.292   6.528
 6768SOL    HW327392   5.520   0.241   6.396
 6768SOL    MW427393   5.520   0.299   6.460
 6769SOL     OW27394   4.154   0.284   5.971
 6769SOL    HW227395   4.128   0.246   5.887
 6769SOL    HW327396   4.091   0.354   5.987
 6769SOL    MW427397   4.143   0.287   5.962
 6770SOL     OW27398   3.989   1.245   6.008
 6770SOL    HW227399   3.937   1.313   5.964
 6770SOL    HW327400   3.986   1.171   5.948
 6770SOL    MW427401   3.981   1.244   5.995
 6771SOL     OW27402   4.651   1.708   5.786
 6771SOL    HW227403   4.606   1.724   5.869
 6771SOL    HW327404   4.582   1.673   5.728
 6771SOL    MW427405   4.637   1.705   5.788
 6772SOL     OW27406   5.586   0.481   5.761
 6772SOL    HW227407   5.495   0.483   5.789
 6772SOL    HW327408   5.631   0.543   5.819
 6772SOL    MW427409   5.579   0.489   5.771
 6773SOL     OW27410   5.331   1.084   6.111
 6773SOL    HW227411   5.241   1.084   6.146
 6773SOL    HW327412   5.324   1.130   6.028
 6773SOL    MW427413   5.318   1.090   6.105
 6774SOL     OW27414   4.858   0.665   6.072
 6774SOL    HW227415   4.884   0.689   5.983
 6774SOL    HW327416   4.840   0.572   6.068
 6774SOL    MW427417   4.860   0.657   6.059
 6775SOL     OW27418   5.523   1.285   5.923
 6775SOL    HW227419   5.479   1.326   5.998
 6775SOL    HW327420   5.580   1.353   5.888
 6775SOL    MW427421   5.525   1.299   5.928
 6776SOL     OW27422   4.179   1.701   6.241
 6776SOL    HW227423   4.211   1.789   6.219
 6776SOL    HW327424   4.132   1.673   6.163
 6776SOL    MW427425   4.178   1.709   6.228
 6777SOL     OW27426   5.563   0.063   6.290
 6777SOL    HW227427   5.617   0.014   6.352
 6777SOL    HW327428   5.506  -0.003   6.251
 6777SOL    MW427429   5.563   0.047   6.292
 6778SOL     OW27430   3.895   1.761   5.818
 6778SOL    HW227431   3.924   1.851   5.810
 6778SOL    HW327432   3.845   1.744   5.739
 6778SOL    MW427433   3.893   1.769   5.807
 6779SOL     OW27434   5.299   1.569   5.789
 6779SOL    HW227435   5.347   1.638   5.835
 6779SOL    HW327436   5.220   1.613   5.758
 6779SOL    MW427437   5.294   1.583   5.792
 6780SOL     OW27438   4.697   0.694   5.733
 6780SOL    HW227439   4.699   0.641   5.654
 6780SOL    HW327440   4.785   0.731   5.739
 6780SOL    MW427441   4.709   0.693   5.722
 6781SOL     OW27442   5.311   0.620   6.069
 6781SOL    HW227443   5.350   0.620   6.156
 6781SOL    HW327444   5.252   0.696   6.069
 6781SOL    MW427445   5.308   0.631   6.080
 6782SOL     OW27446   5.498   0.506   6.235
 6782SOL    HW227447   5.587   0.475   6.252
 6782SOL    HW327448   5.441   0.446   6.283
 6782SOL    MW427449   5.501   0.494   6.244
 6783SOL     OW27450   3.924   0.220   6.264
 6783SOL    HW227451   3.915   0.160   6.190
 6783SOL    HW327452   3.857   0.191   6.327
 6783SOL    MW427453   3.914   0.207   6.262
 6784SOL     OW27454   4.867   1.313   5.825
 6784SOL    HW227455   4.817   1.315   5.907
 6784SOL    HW327456   4.801   1.331   5.757
 6784SOL    MW427457   4.853   1.315   5.827
 6785SOL     OW27458   4.330   1.731   5.933
 6785SOL    HW227459   4.251   1.689   5.966
 6785SOL    HW327460   4.396   1.714   6.000
 6785SOL    MW427461   4.329   1.723   5.946
 6786SOL     OW27462   4.466   1.146   5.640
 6786SOL    HW227463   4.388   1.092   5.627
 6786SOL    HW327464   4.437   1.219   5.693
 6786SOL    MW427465   4.452   1.148   5.645
 6787SOL     OW27466   5.047   1.662   5.708
 6787SOL    HW227467   4.973   1.625   5.758
 6787SOL    HW327468   5.055   1.752   5.741
 6787SOL    MW427469   5.038   1.669   5.720
 6788SOL     OW27470   5.271   1.336   5.650
 6788SOL    HW227471   5.218   1.385   5.586
 6788SOL    HW327472   5.302   1.402   5.711
 6788SOL    MW427473   5.269   1.350   5.648
 6789SOL     OW27474   4.496   0.225   5.705
 6789SOL    HW227475   4.444   0.145   5.693
 6789SOL    HW327476   4.583   0.202   5.673
 6789SOL    MW427477   4.499   0.211   5.699
 6790SOL     OW27478   3.857   0.865   6.162
 6790SOL    HW227479   3.948   0.880   6.189
 6790SOL    HW327480   3.860   0.786   6.108
 6790SOL    MW427481   3.869   0.857   6.160
 6791SOL     OW27482   4.484   1.797   6.536
 6791SOL    HW227483   4.573   1.812   6.566
 6791SOL    HW327484   4.479   1.844   6.452
 6791SOL    MW427485   4.494   1.805   6.529
 6792SOL     OW27486   3.865   1.477   6.201
 6792SOL    HW227487   3.837   1.516   6.283
 6792SOL    HW327488   3.885   1.386   6.223
 6792SOL    MW427489   3.863   1.469   6.214
 6793SOL     OW27490   4.698   1.520   6.236
 6793SOL    HW227491   4.781   1.474   6.220
 6793SOL    HW327492   4.688   1.519   6.332
 6793SOL    MW427493   4.708   1.513   6.246
 6794SOL     OW27494   4.431   1.577   5.641
 6794SOL    HW227495   4.371   1.646   5.611
 6794SOL    HW327496   4.376   1.519   5.694
 6794SOL    MW427497   4.415   1.579   5.643
 6795SOL     OW27498   4.869   0.222   5.864
 6795SOL    HW227499   4.802   0.198   5.801
 6795SOL    HW327500   4.934   0.271   5.813
 6795SOL    MW427501   4.869   0.224   5.849
 6796SOL     OW27502   4.388   0.939   6.376
 6796SOL    HW227503   4.299   0.930   6.409
 6796SOL    HW327504   4.392   1.029   6.344
 6796SOL    MW427505   4.377   0.950   6.376
 6797SOL     OW27506   5.187   0.522   6.371
 6797SOL    HW227507   5.132   0.443   6.370
 6797SOL    HW327508   5.169   0.563   6.455
 6797SOL    MW427509   5.177   0.517   6.380
 6798SOL     OW27510   4.806   0.726   6.328
 6798SOL    HW227511   4.743   0.658   6.352
 6798SOL    HW327512   4.826   0.707   6.236
 6798SOL    MW427513   4.800   0.713   6.320
 6799SOL     OW27514   4.062   1.621   6.030
 6799SOL    HW227515   4.023   1.668   5.956
 6799SOL    HW327516   3.996   1.556   6.055
 6799SOL    MW427517   4.049   1.619   6.024
 6800SOL     OW27518   4.554   1.030   6.054
 6800SOL    HW227519   4.556   1.004   5.961
 6800SOL    HW327520   4.612   0.967   6.097
 6800SOL    MW427521   4.562   1.019   6.048
 6801SOL     OW27522   5.111   1.798   6.256
 6801SOL    HW227523   5.054   1.751   6.195
 6801SOL    HW327524   5.197   1.759   6.243
 6801SOL    MW427525   5.114   1.789   6.246
 6802SOL     OW27526   5.064   0.274   6.387
 6802SOL    HW227527   5.092   0.206   6.448
 6802SOL    HW327528   4.978   0.245   6.357
 6802SOL    MW427529   5.057   0.261   6.391
 6803SOL     OW27530   3.869   1.208   6.321
 6803SOL    HW227531   3.933   1.240   6.384
 6803SOL    HW327532   3.918   1.144   6.269
 6803SOL    MW427533   3.884   1.204   6.322
 6804SOL     OW27534   5.044   0.378   5.722
 6804SOL    HW227535   5.017   0.444   5.658
 6804SOL    HW327536   5.114   0.421   5.772
 6804SOL    MW427537   5.049   0.391   5.719
 6805SOL     OW27538   4.712   0.083   5.659
 6805SOL    HW227539   4.768   0.075   5.581
 6805SOL    HW327540   4.689  -0.007   5.681
 6805SOL    MW427541   4.717   0.070   5.652
 6806SOL     OW27542   5.217   0.934   5.864
 6806SOL    HW227543   5.184   1.023   5.854
 6806SOL    HW327544   5.182   0.905   5.949
 6806SOL    MW427545   5.207   0.943   5.875
 6807SOL     OW27546   4.211   0.972   5.656
 6807SOL    HW227547   4.134   0.985   5.712
 6807SOL    HW327548   4.175   0.936   5.575
 6807SOL    MW427549   4.197   0.968   5.653
 6808SOL     OW27550   4.864   0.945   5.899
 6808SOL    HW227551   4.774   0.966   5.874
 6808SOL    HW327552   4.891   1.018   5.955
 6808SOL    MW427553   4.856   0.957   5.902
 6809SOL     OW27554   4.493   0.061   6.306
 6809SOL    HW227555   4.422   0.122   6.288
 6809SOL    HW327556   4.544   0.058   6.225
 6809SOL    MW427557   4.489   0.067   6.293
 6810SOL     OW27558   4.251   1.301   6.055
 6810SOL    HW227559   4.244   1.333   6.145
 6810SOL    HW327560   4.161   1.285   6.027
 6810SOL    MW427561   4.239   1.303   6.062
 6811SOL     OW27562   4.960   1.659   6.454
 6811SOL    HW227563   5.007   1.732   6.413
 6811SOL    HW327564   4.881   1.698   6.490
 6811SOL    MW427565   4.955   1.674   6.453
 6812SOL     OW27566   4.254   0.585   5.769
 6812SOL    HW227567   4.220   0.641   5.839
 6812SOL    HW327568   4.325   0.535   5.809
 6812SOL    MW427569   4.260   0.586   5.783
 6813SOL     OW27570   5.310   0.471   5.833
 6813SOL    HW227571   5.302   0.542   5.770
 6813SOL    HW327572   5.328   0.515   5.916
 6813SOL    MW427573   5.311   0.485   5.835
 6814SOL     OW27574   4.170   0.126   6.262
 6814SOL    HW227575   4.220   0.169   6.193
 6814SOL    HW327576   4.085   0.170   6.262
 6814SOL    MW427577   4.167   0.139   6.253
 6815SOL     OW27578   4.979   0.733   5.808
 6815SOL    HW227579   5.026   0.751   5.727
 6815SOL    HW327580   4.945   0.817   5.836
 6815SOL    MW427581   4.981   0.747   5.801
 6816SOL     OW27582   4.092   0.911   6.302
 6816SOL    HW227583   4.150   0.967   6.250
 6816SOL    HW327584   4.136   0.826   6.304
 6816SOL    MW427585   4.105   0.908   6.295
 6817SOL     OW27586   5.232   0.263   6.139
 6817SOL    HW227587   5.154   0.213   6.164
 6817SOL    HW327588   5.203   0.354   6.139
 6817SOL    MW427589   5.218   0.267   6.142
 6818SOL     OW27590   4.818   0.225   6.298
 6818SOL    HW227591   4.838   0.300   6.242
 6818SOL    HW327592   4.798   0.264   6.383
 6818SOL    MW427593   4.819   0.241   6.302
 6819SOL     OW27594   4.714   1.475   5.630
 6819SOL    HW227595   4.741   1.553   5.582
 6819SOL    HW327596   4.621   1.490   5.649
 6819SOL    MW427597   4.705   1.488   5.626
 6820SOL     OW27598   3.754   0.637   6.021
 6820SOL    HW227599   3.694   0.609   6.091
 6820SOL    HW327600   3.828   0.577   6.027
 6820SOL    MW427601   3.756   0.626   6.030
 6821SOL     OW27602   4.922   1.368   6.181
 6821SOL    HW227603   4.945   1.319   6.259
 6821SOL    HW327604   5.003   1.410   6.153
 6821SOL    MW427605   4.935   1.368   6.188
 6822SOL     OW27606   4.277   0.121   6.537
 6822SOL    HW227607   4.287   0.030   6.563
 6822SOL    HW327608   4.233   0.117   6.452
 6822SOL    MW427609   4.273   0.109   6.529
 6823SOL     OW27610   5.062   0.035   5.817
 6823SOL    HW227611   5.136   0.079   5.860
 6823SOL    HW327612   4.986   0.089   5.839
 6823SOL    MW427613   5.062   0.047   5.825
 6824SOL     OW27614   5.122   0.810   6.095
 6824SOL    HW227615   5.037   0.780   6.065
 6824SOL    HW327616   5.114   0.817   6.190
 6824SOL    MW427617   5.110   0.808   6.104
 6825SOL     OW27618   4.495   0.476   5.821
 6825SOL    HW227619   4.568   0.525   5.784
 6825SOL    HW327620   4.511   0.385   5.795
 6825SOL    MW427621   4.507   0.471   5.814
 6826SOL     OW27622   3.970   0.985   5.919
 6826SOL    HW227623   3.907   1.001   5.848
 6826SOL    HW327624   3.917   0.948   5.990
 6826SOL    MW427625   3.955   0.982   5.919
 6827SOL     OW27626   4.326   1.339   5.778
 6827SOL    HW227627   4.341   1.315   5.870
 6827SOL    HW327628   4.234   1.317   5.762
 6827SOL    MW427629   4.316   1.332   5.788
 6828SOL     OW27630   4.865   1.570   5.930
 6828SOL    HW227631   4.873   1.488   5.881
 6828SOL    HW327632   4.784   1.609   5.897
 6828SOL    MW427633   4.855   1.565   5.920
 6829SOL     OW27634   4.124   1.728   6.499
 6829SOL    HW227635   4.128   1.639   6.534
 6829SOL    HW327636   4.150   1.719   6.408
 6829SOL    MW427637   4.127   1.716   6.491
 6830SOL     OW27638   4.201   0.451   6.376
 6830SOL    HW227639   4.272   0.399   6.339
 6830SOL    HW327640   4.187   0.416   6.463
 6830SOL    MW427641   4.209   0.440   6.383
 6831SOL     OW27642   4.517   1.544   6.452
 6831SOL    HW227643   4.445   1.481   6.465
 6831SOL    HW327644   4.478   1.629   6.470
 6831SOL    MW427645   4.501   1.547   6.455
 6832SOL     OW27646   4.837   0.392   6.100
 6832SOL    HW227647   4.859   0.329   6.032
 6832SOL    HW327648   4.742   0.384   6.111
 6832SOL    MW427649   4.827   0.383   6.092
 6833SOL     OW27650   3.922   0.082   6.032
 6833SOL    HW227651   3.993   0.103   5.971
 6833SOL    HW327652   3.876   0.010   5.990
 6833SOL    MW427653   3.926   0.076   6.018
 6834SOL     OW27654   5.491   1.456   6.132
 6834SOL    HW227655   5.461   1.389   6.193
 6834SOL    HW327656   5.585   1.462   6.146
 6834SOL    MW427657   5.499   1.448   6.142
 6835SOL     OW27658   5.047   1.133   6.062
 6835SOL    HW227659   5.019   1.219   6.095
 6835SOL    HW327660   5.075   1.149   5.972
 6835SOL    MW427661   5.047   1.147   6.054
 6836SOL     OW27662   4.709   0.053   6.115
 6836SOL    HW227663   4.746   0.112   6.180
 6836SOL    HW327664   4.686   0.109   6.041
 6836SOL    MW427665   4.710   0.068   6.114
 6837SOL     OW27666   5.562   0.935   6.537
 6837SOL    HW227667   5.553   0.967   6.448
 6837SOL    HW327668   5.515   0.851   6.537
 6837SOL    MW427669   5.555   0.928   6.527
 6838SOL     OW27670   5.474   0.866   6.238
 6838SOL    HW227671   5.568   0.855   6.226
 6838SOL    HW327672   5.450   0.938   6.179
 6838SOL    MW427673   5.484   0.874   6.229
 6839SOL     OW27674   4.130   0.744   6.011
 6839SOL    HW227675   4.130   0.839   5.996
 6839SOL    HW327676   4.207   0.728   6.065
 6839SOL    MW427677   4.140   0.755   6.016
 6840SOL     OW27678   3.889   0.475   6.300
 6840SOL    HW227679   3.951   0.482   6.373
 6840SOL    HW327680   3.889   0.382   6.277
 6840SOL    MW427681   3.897   0.464   6.307
 6841SOL     OW27682   5.436   1.815   5.832
 6841SOL    HW227683   5.503   1.848   5.772
 6841SOL    HW327684   5.393   1.894   5.866
 6841SOL    MW427685   5.438   1.830   5.828
 6842SOL     OW27686   3.758   1.047   5.758
 6842SOL    HW227687   3.727   1.112   5.821
 6842SOL    HW327688   3.707   0.969   5.777
 6842SOL    MW427689   3.748   1.044   5.768
 6843SOL     OW27690   5.202   0.798   6.350
 6843SOL    HW227691   5.282   0.813   6.299
 6843SOL    HW327692   5.195   0.703   6.356
 6843SOL    MW427693   5.211   0.787   6.345
 6844SOL     OW27694   4.342   1.847   5.700
 6844SOL    HW227695   4.247   1.847   5.692
 6844SOL    HW327696   4.358   1.793   5.778
 6844SOL    MW427697   4.332   1.841   5.709
 6845SOL     OW27698   5.187   0.667   5.615
 6845SOL    HW227699   5.115   0.643   5.557
 6845SOL    HW327700   5.253   0.704   5.557
 6845SOL    MW427701   5.186   0.669   5.600
 6846SOL     OW27702   4.321   1.399   6.296
 6846SOL    HW227703   4.386   1.332   6.317
 6846SOL    HW327704   4.373   1.476   6.273
 6846SOL    MW427705   4.336   1.401   6.295
 6847SOL     OW27706   4.582   0.564   6.426
 6847SOL    HW227707   4.522   0.582   6.498
 6847SOL    HW327708   4.616   0.476   6.445
 6847SOL    MW427709   4.578   0.554   6.439
 6848SOL     OW27710   4.807   1.147   6.445
 6848SOL    HW227711   4.899   1.128   6.463
 6848SOL    HW327712   4.780   1.077   6.385
 6848SOL    MW427713   4.815   1.135   6.439
 6849SOL     OW27714   4.600   0.967   5.800
 6849SOL    HW227715   4.586   0.879   5.765
 6849SOL    HW327716   4.551   1.024   5.741
 6849SOL    MW427717   4.592   0.962   5.788
 6850SOL     OW27718   5.319   0.173   5.902
 6850SOL    HW227719   5.312   0.177   5.997
 6850SOL    HW327720   5.331   0.264   5.875
 6850SOL    MW427721   5.320   0.186   5.910
 6851SOL     OW27722   4.608   0.736   6.016
 6851SOL    HW227723   4.588   0.722   5.923
 6851SOL    HW327724   4.701   0.715   6.023
 6851SOL    MW427725   4.618   0.731   6.005
 6852SOL     OW27726   4.591   1.694   6.054
 6852SOL    HW227727   4.649   1.765   6.081
 6852SOL    HW327728   4.614   1.622   6.112
 6852SOL    MW427729   4.602   1.694   6.065
 6853SOL     OW27730   5.471   1.192   6.363
 6853SOL    HW227731   5.450   1.138   6.286
 6853SOL    HW327732   5.567   1.190   6.367
 6853SOL    MW427733   5.480   1.185   6.352
 6854SOL     OW27734   4.047   0.126   5.789
 6854SOL    HW227735   3.976   0.181   5.757
 6854SOL    HW327736   4.089   0.092   5.710
 6854SOL    MW427737   4.043   0.128   5.775
 6855SOL     OW27738   3.803   0.225   5.638
 6855SOL    HW227739   3.770   0.304   5.682
 6855SOL    HW327740   3.858   0.258   5.567
 6855SOL    MW427741   3.806   0.239   5.635
 6856SOL     OW27742   3.837   1.482   5.827
 6856SOL    HW227743   3.854   1.566   5.869
 6856SOL    HW327744   3.872   1.491   5.739
 6856SOL    MW427745   3.842   1.495   5.821
 6857SOL     OW27746   5.109   1.571   6.044
 6857SOL    HW227747   5.172   1.561   5.973
 6857SOL    HW327748   5.026   1.591   5.999
 6857SOL    MW427749   5.106   1.572   6.029
 6858SOL     OW27750   5.338   2.639   1.252
 6858SOL    HW227751   5.293   2.706   1.303
 6858SOL    HW327752   5.426   2.675   1.238
 6858SOL    MW427753   5.344   2.652   1.256
 6859SOL     OW27754   4.266   2.890   0.486
 6859SOL    HW227755   4.356   2.865   0.470
 6859SOL    HW327756   4.262   2.983   0.463
 6859SOL    MW427757   4.278   2.899   0.481
 6860SOL     OW27758   5.382   3.593   0.628
 6860SOL    HW227759   5.394   3.539   0.706
 6860SOL    HW327760   5.419   3.541   0.557
 6860SOL    MW427761   5.388   3.578   0.629
 6861SOL     OW27762   4.761   3.478   1.629
 6861SOL    HW227763   4.802   3.514   1.550
 6861SOL    HW327764   4.796   3.389   1.636
 6861SOL    MW427765   4.772   3.471   1.620
 6862SOL     OW27766   5.318   3.033   1.233
 6862SOL    HW227767   5.239   2.998   1.191
 6862SOL    HW327768   5.345   3.105   1.177
 6862SOL    MW427769   5.311   3.038   1.220
 6863SOL     OW27770   4.550   2.346   0.499
 6863SOL    HW227771   4.525   2.434   0.527
 6863SOL    HW327772   4.547   2.349   0.403
 6863SOL    MW427773   4.546   2.358   0.491
 6864SOL     OW27774   3.992   2.374   0.427
 6864SOL    HW227775   4.024   2.462   0.409
 6864SOL    HW327776   3.980   2.372   0.522
 6864SOL    MW427777   3.995   2.386   0.439
 6865SOL     OW27778   4.070   2.787   1.328
 6865SOL    HW227779   4.133   2.734   1.279
 6865SOL    HW327780   4.051   2.861   1.271
 6865SOL    MW427781   4.076   2.789   1.315
 6866SOL     OW27782   4.391   2.129   0.514
 6866SOL    HW227783   4.449   2.205   0.516
 6866SOL    HW327784   4.326   2.150   0.447
 6866SOL    MW427785   4.390   2.141   0.505
 6867SOL     OW27786   4.478   3.056   0.689
 6867SOL    HW227787   4.558   3.059   0.741
 6867SOL    HW327788   4.506   3.023   0.603
 6867SOL    MW427789   4.492   3.052   0.684
 6868SOL     OW27790   4.503   3.397   1.592
 6868SOL    HW227791   4.587   3.423   1.631
 6868SOL    HW327792   4.527   3.341   1.518
 6868SOL    MW427793   4.517   3.393   1.587
 6869SOL     OW27794   4.255   2.560   0.680
 6869SOL    HW227795   4.240   2.480   0.731
 6869SOL    HW327796   4.337   2.595   0.714
 6869SOL    MW427797   4.263   2.552   0.692
 6870SOL     OW27798   4.592   3.246   1.365
 6870SOL    HW227799   4.556   3.312   1.305
 6870SOL    HW327800   4.520   3.184   1.378
 6870SOL    MW427801   4.578   3.246   1.359
 6871SOL     OW27802   4.397   2.386   1.057
 6871SOL    HW227803   4.303   2.382   1.075
 6871SOL    HW327804   4.427   2.295   1.066
 6871SOL    MW427805   4.388   2.374   1.060
 6872SOL     OW27806   4.143   2.800   0.961
 6872SOL    HW227807   4.098   2.807   0.877
 6872SOL    HW327808   4.123   2.883   1.005
 6872SOL    MW427809   4.135   2.812   0.955
 6873SOL     OW27810   3.840   3.646   0.836
 6873SOL    HW227811   3.929   3.638   0.871
 6873SOL    HW327812   3.804   3.558   0.841
 6873SOL    MW427813   3.847   3.633   0.841
 6874SOL     OW27814   4.104   3.173   0.871
 6874SOL    HW227815   4.080   3.226   0.947
 6874SOL    HW327816   4.160   3.231   0.819
 6874SOL    MW427817   4.108   3.188   0.874
 6875SOL     OW27818   4.666   2.817   0.681
 6875SOL    HW227819   4.580   2.804   0.721
 6875SOL    HW327820   4.719   2.744   0.713
 6875SOL    MW427821   4.662   2.806   0.690
 6876SOL     OW27822   4.074   3.469   1.466
 6876SOL    HW227823   3.982   3.445   1.451
 6876SOL    HW327824   4.118   3.386   1.483
 6876SOL    MW427825   4.068   3.454   1.465
 6877SOL     OW27826   4.657   3.179   0.398
 6877SOL    HW227827   4.634   3.241   0.466
 6877SOL    HW327828   4.614   3.097   0.424
 6877SOL    MW427829   4.649   3.175   0.409
 6878SOL     OW27830   5.530   2.180   0.854
 6878SOL    HW227831   5.467   2.160   0.923
 6878SOL    HW327832   5.520   2.109   0.791
 6878SOL    MW427833   5.520   2.167   0.855
 6879SOL     OW27834   4.154   2.152   0.366
 6879SOL    HW227835   4.128   2.114   0.282
 6879SOL    HW327836   4.091   2.222   0.382
 6879SOL    MW427837   4.143   2.155   0.357
 6880SOL     OW27838   3.989   3.113   0.403
 6880SOL    HW227839   3.937   3.181   0.359
 6880SOL    HW327840   3.986   3.039   0.343
 6880SOL    MW427841   3.981   3.112   0.390
 6881SOL     OW27842   5.331   2.952   0.506
 6881SOL    HW227843   5.241   2.952   0.541
 6881SOL    HW327844   5.324   2.998   0.423
 6881SOL    MW427845   5.318   2.958   0.500
 6882SOL     OW27846   5.131   2.587   1.578
 6882SOL    HW227847   5.200   2.525   1.555
 6882SOL    HW327848   5.056   2.561   1.525
 6882SOL    MW427849   5.131   2.574   1.569
 6883SOL     OW27850   3.872   3.467   1.130
 6883SOL    HW227851   3.855   3.413   1.207
 6883SOL    HW327852   3.860   3.557   1.160
 6883SOL    MW427853   3.869   3.471   1.144
 6884SOL     OW27854   4.867   2.974   1.570
 6884SOL    HW227855   4.852   3.067   1.555
 6884SOL    HW327856   4.962   2.964   1.570
 6884SOL    MW427857   4.876   2.984   1.567
 6885SOL     OW27858   4.663   2.398   1.771
 6885SOL    HW227859   4.753   2.399   1.738
 6885SOL    HW327860   4.622   2.323   1.729
 6885SOL    MW427861   4.669   2.388   1.762
 6886SOL     OW27862   5.238   2.930   0.898
 6886SOL    HW227863   5.241   2.864   0.829
 6886SOL    HW327864   5.323   2.973   0.894
 6886SOL    MW427865   5.250   2.926   0.889
 6887SOL     OW27866   4.858   2.533   0.467
 6887SOL    HW227867   4.884   2.557   0.378
 6887SOL    HW327868   4.840   2.440   0.463
 6887SOL    MW427869   4.860   2.525   0.454
 6888SOL     OW27870   4.443   2.202   1.721
 6888SOL    HW227871   4.453   2.128   1.661
 6888SOL    HW327872   4.479   2.171   1.804
 6888SOL    MW427873   4.449   2.188   1.723
 6889SOL     OW27874   4.179   3.569   0.636
 6889SOL    HW227875   4.211   3.657   0.614
 6889SOL    HW327876   4.132   3.541   0.558
 6889SOL    MW427877   4.178   3.577   0.623
 6890SOL     OW27878   5.563   1.931   0.685
 6890SOL    HW227879   5.617   1.882   0.747
 6890SOL    HW327880   5.506   1.865   0.646
 6890SOL    MW427881   5.563   1.915   0.687
 6891SOL     OW27882   3.895   3.629   0.213
 6891SOL    HW227883   3.924   3.719   0.205
 6891SOL    HW327884   3.845   3.612   0.134
 6891SOL    MW427885   3.893   3.637   0.202
 6892SOL     OW27886   4.682   1.884   1.098
 6892SOL    HW227887   4.641   1.962   1.060
 6892SOL    HW327888   4.776   1.902   1.093
 6892SOL    MW427889   4.688   1.896   1.093
 6893SOL     OW27890   4.628   2.855   1.593
 6893SOL    HW227891   4.605   2.835   1.683
 6893SOL    HW327892   4.713   2.899   1.598
 6893SOL    MW427893   4.635   2.858   1.605
 6894SOL     OW27894   4.708   1.992   1.353
 6894SOL    HW227895   4.714   1.954   1.266
 6894SOL    HW327896   4.697   2.086   1.338
 6894SOL    MW427897   4.709   2.000   1.341
 6895SOL     OW27898   4.797   2.481   1.187
 6895SOL    HW227899   4.872   2.510   1.134
 6895SOL    HW327900   4.729   2.546   1.171
 6895SOL    MW427901   4.798   2.493   1.177
 6896SOL     OW27902   5.347   2.449   1.464
 6896SOL    HW227903   5.328   2.358   1.443
 6896SOL    HW327904   5.325   2.498   1.385
 6896SOL    MW427905   5.342   2.442   1.451
 6897SOL     OW27906   5.489   3.543   1.368
 6897SOL    HW227907   5.417   3.505   1.419
 6897SOL    HW327908   5.506   3.628   1.409
 6897SOL    MW427909   5.483   3.548   1.380
 6898SOL     OW27910   4.794   2.187   1.570
 6898SOL    HW227911   4.760   2.226   1.489
 6898SOL    HW327912   4.772   2.095   1.563
 6898SOL    MW427913   4.787   2.180   1.560
 6899SOL     OW27914   5.203   3.001   1.646
 6899SOL    HW227915   5.285   3.042   1.676
 6899SOL    HW327916   5.166   2.963   1.726
 6899SOL    MW427917   5.209   3.002   1.661
 6900SOL     OW27918   5.498   2.374   0.630
 6900SOL    HW227919   5.587   2.343   0.647
 6900SOL    HW327920   5.441   2.314   0.678
 6900SOL    MW427921   5.501   2.362   0.639
 6901SOL     OW27922   3.924   2.088   0.659
 6901SOL    HW227923   3.915   2.028   0.585
 6901SOL    HW327924   3.857   2.059   0.722
 6901SOL    MW427925   3.914   2.075   0.657
 6902SOL     OW27926   4.867   3.181   0.220
 6902SOL    HW227927   4.817   3.183   0.302
 6902SOL    HW327928   4.801   3.199   0.152
 6902SOL    MW427929   4.853   3.183   0.222
 6903SOL     OW27930   3.871   2.261   1.022
 6903SOL    HW227931   3.843   2.352   1.031
 6903SOL    HW327932   3.808   2.222   0.961
 6903SOL    MW427933   3.858   2.267   1.016
 6904SOL     OW27934   5.458   3.119   1.725
 6904SOL    HW227935   5.508   3.045   1.757
 6904SOL    HW327936   5.404   3.146   1.800
 6904SOL    MW427937   5.458   3.113   1.738
 6905SOL     OW27938   5.592   2.754   1.227
 6905SOL    HW227939   5.608   2.792   1.140
 6905SOL    HW327940   5.626   2.820   1.288
 6905SOL    MW427941   5.599   2.767   1.223
 6906SOL     OW27942   5.384   3.463   0.896
 6906SOL    HW227943   5.413   3.530   0.957
 6906SOL    HW327944   5.365   3.387   0.951
 6906SOL    MW427945   5.386   3.463   0.911
 6907SOL     OW27946   3.855   2.536   1.192
 6907SOL    HW227947   3.917   2.566   1.258
 6907SOL    HW327948   3.789   2.605   1.186
 6907SOL    MW427949   3.854   2.549   1.199
 6908SOL     OW27950   3.950   3.645   1.644
 6908SOL    HW227951   3.924   3.713   1.582
 6908SOL    HW327952   3.998   3.582   1.592
 6908SOL    MW427953   3.952   3.645   1.630
 6909SOL     OW27954   4.002   2.964   1.151
 6909SOL    HW227955   4.055   3.039   1.176
 6909SOL    HW327956   3.921   3.002   1.117
 6909SOL    MW427957   3.998   2.979   1.151
 6910SOL     OW27958   4.542   2.868   1.139
 6910SOL    HW227959   4.570   2.777   1.151
 6910SOL    HW327960   4.471   2.862   1.075
 6910SOL    MW427961   4.535   2.856   1.134
 6911SOL     OW27962   3.857   2.733   0.557
 6911SOL    HW227963   3.948   2.748   0.584
 6911SOL    HW327964   3.860   2.654   0.503
 6911SOL    MW427965   3.869   2.725   0.555
 6912SOL     OW27966   4.093   2.441   1.811
 6912SOL    HW227967   4.040   2.521   1.818
 6912SOL    HW327968   4.163   2.453   1.876
 6912SOL    MW427969   4.095   2.454   1.819
 6913SOL     OW27970   4.479   1.991   1.518
 6913SOL    HW227971   4.456   1.899   1.520
 6913SOL    HW327972   4.565   1.993   1.475
 6913SOL    MW427973   4.486   1.981   1.514
 6914SOL     OW27974   4.163   2.515   1.557
 6914SOL    HW227975   4.243   2.565   1.543
 6914SOL    HW327976   4.154   2.509   1.652
 6914SOL    MW427977   4.172   2.521   1.567
 6915SOL     OW27978   4.484   3.665   0.931
 6915SOL    HW227979   4.573   3.680   0.961
 6915SOL    HW327980   4.479   3.712   0.847
 6915SOL    MW427981   4.494   3.673   0.924
 6916SOL     OW27982   5.140   2.040   1.828
 6916SOL    HW227983   5.196   1.967   1.854
 6916SOL    HW327984   5.110   2.078   1.910
 6916SOL    MW427985   5.144   2.035   1.841
 6917SOL     OW27986   3.865   3.345   0.596
 6917SOL    HW227987   3.837   3.384   0.678
 6917SOL    HW327988   3.885   3.254   0.618
 6917SOL    MW427989   3.863   3.337   0.609
 6918SOL     OW27990   4.698   3.388   0.631
 6918SOL    HW227991   4.781   3.342   0.615
 6918SOL    HW327992   4.688   3.387   0.727
 6918SOL    MW427993   4.708   3.381   0.641
 6919SOL     OW27994   5.530   2.533   0.945
 6919SOL    HW227995   5.619   2.563   0.927
 6919SOL    HW327996   5.510   2.473   0.874
 6919SOL    MW427997   5.539   2.530   0.934
 6920SOL     OW27998   5.381   2.712   1.825
 6920SOL    HW227999   5.436   2.636   1.806
 6920SOL    HW328000   5.383   2.720   1.920
 6920SOL    MW428001   5.389   2.703   1.833
 6921SOL     OW28002   4.676   2.274   1.344
 6921SOL    HW228003   4.595   2.315   1.372
 6921SOL    HW328004   4.723   2.342   1.296
 6921SOL    MW428005   4.671   2.289   1.342
 6922SOL     OW28006   4.936   2.612   0.967
 6922SOL    HW228007   4.949   2.706   0.977
 6922SOL    HW328008   4.897   2.602   0.881
 6922SOL    MW428009   4.932   2.623   0.957
 6923SOL     OW28010   4.388   2.807   0.771
 6923SOL    HW228011   4.299   2.798   0.804
 6923SOL    HW328012   4.392   2.897   0.739
 6923SOL    MW428013   4.377   2.818   0.771
 6924SOL     OW28014   5.187   2.390   0.766
 6924SOL    HW228015   5.132   2.311   0.765
 6924SOL    HW328016   5.169   2.431   0.850
 6924SOL    MW428017   5.177   2.385   0.775
 6925SOL     OW28018   4.158   2.077   1.583
 6925SOL    HW228019   4.079   2.095   1.635
 6925SOL    HW328020   4.153   2.139   1.510
 6925SOL    MW428021   4.148   2.087   1.580
 6926SOL     OW28022   4.806   2.594   0.723
 6926SOL    HW228023   4.743   2.526   0.747
 6926SOL    HW328024   4.826   2.575   0.631
 6926SOL    MW428025   4.800   2.581   0.715
 6927SOL     OW28026   4.062   3.489   0.425
 6927SOL    HW228027   4.023   3.536   0.351
 6927SOL    HW328028   3.996   3.424   0.450
 6927SOL    MW428029   4.049   3.487   0.419
 6928SOL     OW28030   5.107   3.458   1.221
 6928SOL    HW228031   5.032   3.504   1.259
 6928SOL    HW328032   5.089   3.365   1.238
 6928SOL    MW428033   5.096   3.452   1.229
 6929SOL     OW28034   5.111   3.666   0.651
 6929SOL    HW228035   5.054   3.619   0.590
 6929SOL    HW328036   5.197   3.627   0.638
 6929SOL    MW428037   5.114   3.657   0.641
 6930SOL     OW28038   5.064   2.142   0.782
 6930SOL    HW228039   5.092   2.074   0.843
 6930SOL    HW328040   4.978   2.113   0.752
 6930SOL    MW428041   5.057   2.129   0.786
 6931SOL     OW28042   3.869   3.076   0.716
 6931SOL    HW228043   3.933   3.108   0.779
 6931SOL    HW328044   3.918   3.012   0.664
 6931SOL    MW428045   3.884   3.072   0.717
 6932SOL     OW28046   4.369   3.152   1.698
 6932SOL    HW228047   4.417   3.235   1.685
 6932SOL    HW328048   4.426   3.100   1.754
 6932SOL    MW428049   4.383   3.156   1.704
 6933SOL     OW28050   3.945   3.394   1.838
 6933SOL    HW228051   4.001   3.318   1.853
 6933SOL    HW328052   3.894   3.372   1.760
 6933SOL    MW428053   3.945   3.381   1.829
 6934SOL     OW28054   4.830   3.231   1.447
 6934SOL    HW228055   4.741   3.237   1.415
 6934SOL    HW328056   4.874   3.310   1.415
 6934SOL    MW428057   4.825   3.241   1.439
 6935SOL     OW28058   4.123   1.899   1.789
 6935SOL    HW228059   4.051   1.864   1.737
 6935SOL    HW328060   4.181   1.940   1.724
 6935SOL    MW428061   4.121   1.900   1.774
 6936SOL     OW28062   4.147   3.389   1.088
 6936SOL    HW228063   4.192   3.451   1.145
 6936SOL    HW328064   4.054   3.408   1.101
 6936SOL    MW428065   4.140   3.399   1.095
 6937SOL     OW28066   5.587   2.918   1.442
 6937SOL    HW228067   5.502   2.931   1.401
 6937SOL    HW328068   5.567   2.882   1.529
 6937SOL    MW428069   5.574   2.914   1.447
 6938SOL     OW28070   4.569   3.457   1.196
 6938SOL    HW228071   4.593   3.446   1.105
 6938SOL    HW328072   4.492   3.514   1.194
 6938SOL    MW428073   4.561   3.462   1.185
 6939SOL     OW28074   4.364   3.162   0.986
 6939SOL    HW228075   4.357   3.141   1.080
 6939SOL    HW328076   4.282   3.130   0.949
 6939SOL    MW428077   4.352   3.156   0.993
 6940SOL     OW28078   5.228   2.172   1.388
 6940SOL    HW228079   5.175   2.174   1.468
 6940SOL    HW328080   5.213   2.085   1.351
 6940SOL    MW428081   5.220   2.162   1.393
 6941SOL     OW28082   5.564   2.096   1.261
 6941SOL    HW228083   5.545   2.163   1.196
 6941SOL    HW328084   5.621   2.034   1.216
 6941SOL    MW428085   5.568   2.097   1.247
 6942SOL     OW28086   3.810   3.254   1.649
 6942SOL    HW228087   3.854   3.187   1.595
 6942SOL    HW328088   3.725   3.216   1.669
 6942SOL    MW428089   3.805   3.240   1.645
 6943SOL     OW28090   4.493   1.929   0.701
 6943SOL    HW228091   4.422   1.990   0.683
 6943SOL    HW328092   4.544   1.926   0.620
 6943SOL    MW428093   4.489   1.935   0.688
 6944SOL     OW28094   4.251   3.169   0.450
 6944SOL    HW228095   4.244   3.201   0.540
 6944SOL    HW328096   4.161   3.153   0.422
 6944SOL    MW428097   4.239   3.171   0.457
 6945SOL     OW28098   4.846   3.562   1.359
 6945SOL    HW228099   4.766   3.547   1.309
 6945SOL    HW328100   4.853   3.657   1.366
 6945SOL    MW428101   4.837   3.573   1.353
 6946SOL     OW28102   4.960   3.527   0.849
 6946SOL    HW228103   5.007   3.600   0.808
 6946SOL    HW328104   4.881   3.566   0.885
 6946SOL    MW428105   4.955   3.542   0.848
 6947SOL     OW28106   5.368   3.622   1.124
 6947SOL    HW228107   5.411   3.592   1.204
 6947SOL    HW328108   5.287   3.570   1.121
 6947SOL    MW428109   5.363   3.611   1.134
 6948SOL     OW28110   4.453   2.586   1.831
 6948SOL    HW228111   4.523   2.528   1.803
 6948SOL    HW328112   4.396   2.531   1.886
 6948SOL    MW428113   4.455   2.573   1.835
 6949SOL     OW28114   5.240   2.798   1.464
 6949SOL    HW228115   5.245   2.851   1.544
 6949SOL    HW328116   5.202   2.715   1.492
 6949SOL    MW428117   5.236   2.793   1.479
 6950SOL     OW28118   4.880   1.933   1.710
 6950SOL    HW228119   4.875   1.840   1.691
 6950SOL    HW328120   4.963   1.944   1.756
 6950SOL    MW428121   4.888   1.922   1.714
 6951SOL     OW28122   5.350   3.204   0.986
 6951SOL    HW228123   5.385   3.186   0.899
 6951SOL    HW328124   5.255   3.205   0.973
 6951SOL    MW428125   5.342   3.201   0.973
 6952SOL     OW28126   4.779   2.852   1.355
 6952SOL    HW228127   4.822   2.887   1.433
 6952SOL    HW328128   4.762   2.929   1.301
 6952SOL    MW428129   4.782   2.867   1.358
 6953SOL     OW28130   4.170   1.994   0.657
 6953SOL    HW228131   4.220   2.037   0.588
 6953SOL    HW328132   4.085   2.038   0.657
 6953SOL    MW428133   4.167   2.007   0.648
 6954SOL     OW28134   3.929   3.056   1.517
 6954SOL    HW228135   3.957   3.009   1.595
 6954SOL    HW328136   3.850   3.011   1.488
 6954SOL    MW428137   3.922   3.045   1.523
 6955SOL     OW28138   4.437   2.383   1.484
 6955SOL    HW228139   4.409   2.471   1.508
 6955SOL    HW328140   4.406   2.327   1.555
 6955SOL    MW428141   4.429   2.386   1.496
 6956SOL     OW28142   4.979   2.601   0.203
 6956SOL    HW228143   5.026   2.619   0.122
 6956SOL    HW328144   4.945   2.685   0.231
 6956SOL    MW428145   4.981   2.615   0.196
 6957SOL     OW28146   4.092   2.779   0.697
 6957SOL    HW228147   4.150   2.835   0.645
 6957SOL    HW328148   4.136   2.694   0.699
 6957SOL    MW428149   4.105   2.776   0.690
 6958SOL     OW28150   5.232   2.131   0.534
 6958SOL    HW228151   5.154   2.081   0.559
 6958SOL    HW328152   5.203   2.222   0.534
 6958SOL    MW428153   5.218   2.135   0.537
 6959SOL     OW28154   4.818   2.093   0.693
 6959SOL    HW228155   4.838   2.168   0.637
 6959SOL    HW328156   4.798   2.132   0.778
 6959SOL    MW428157   4.819   2.109   0.697
 6960SOL     OW28158   5.578   2.866   1.712
 6960SOL    HW228159   5.491   2.846   1.748
 6960SOL    HW328160   5.632   2.792   1.737
 6960SOL    MW428161   5.573   2.855   1.720
 6961SOL     OW28162   3.799   3.379   0.869
 6961SOL    HW228163   3.831   3.383   0.960
 6961SOL    HW328164   3.704   3.387   0.877
 6961SOL    MW428165   3.791   3.382   0.882
 6962SOL     OW28166   5.322   3.717   1.850
 6962SOL    HW228167   5.367   3.641   1.815
 6962SOL    HW328168   5.360   3.730   1.937
 6962SOL    MW428169   5.332   3.710   1.856
 6963SOL     OW28170   4.922   3.236   0.576
 6963SOL    HW228171   4.945   3.187   0.654
 6963SOL    HW328172   5.003   3.278   0.548
 6963SOL    MW428173   4.935   3.236   0.583
 6964SOL     OW28174   4.180   2.244   1.305
 6964SOL    HW228175   4.213   2.325   1.345
 6964SOL    HW328176   4.153   2.270   1.217
 6964SOL    MW428177   4.179   2.258   1.299
 6965SOL     OW28178   4.134   2.211   1.041
 6965SOL    HW228179   4.164   2.125   1.012
 6965SOL    HW328180   4.039   2.204   1.044
 6965SOL    MW428181   4.126   2.200   1.039
 6966SOL     OW28182   4.963   2.420   1.732
 6966SOL    HW228183   5.015   2.355   1.685
 6966SOL    HW328184   4.921   2.471   1.662
 6966SOL    MW428185   4.964   2.417   1.715
 6967SOL     OW28186   5.062   2.215   1.593
 6967SOL    HW228187   4.969   2.199   1.580
 6967SOL    HW328188   5.088   2.153   1.661
 6967SOL    MW428189   5.052   2.205   1.600
 6968SOL     OW28190   4.277   1.989   0.932
 6968SOL    HW228191   4.287   1.898   0.958
 6968SOL    HW328192   4.233   1.985   0.847
 6968SOL    MW428193   4.273   1.977   0.924
 6969SOL     OW28194   4.371   3.604   1.478
 6969SOL    HW228195   4.288   3.589   1.523
 6969SOL    HW328196   4.430   3.537   1.513
 6969SOL    MW428197   4.369   3.594   1.488
 6970SOL     OW28198   5.428   2.311   1.103
 6970SOL    HW228199   5.361   2.344   1.163
 6970SOL    HW328200   5.471   2.389   1.069
 6970SOL    MW428201   5.426   2.326   1.107
 6971SOL     OW28202   5.606   3.031   1.073
 6971SOL    HW228203   5.599   2.971   0.998
 6971SOL    HW328204   5.532   3.091   1.062
 6971SOL    MW428205   5.596   3.031   1.062
 6972SOL     OW28206   4.988   2.893   0.991
 6972SOL    HW228207   5.002   2.865   1.082
 6972SOL    HW328208   5.074   2.924   0.963
 6972SOL    MW428209   5.001   2.894   1.000
 6973SOL     OW28210   5.071   2.388   1.270
 6973SOL    HW228211   5.092   2.389   1.177
 6973SOL    HW328212   5.116   2.310   1.303
 6973SOL    MW428213   5.078   2.378   1.262
 6974SOL     OW28214   5.564   2.519   1.812
 6974SOL    HW228215   5.601   2.464   1.881
 6974SOL    HW328216   5.589   2.476   1.730
 6974SOL    MW428217   5.571   2.507   1.811
 6975SOL     OW28218   5.111   2.817   1.863
 6975SOL    HW228219   5.177   2.765   1.817
 6975SOL    HW328220   5.131   2.804   1.956
 6975SOL    MW428221   5.122   2.808   1.870
 6976SOL     OW28222   5.062   1.903   0.212
 6976SOL    HW228223   5.136   1.947   0.255
 6976SOL    HW328224   4.986   1.957   0.234
 6976SOL    MW428225   5.062   1.915   0.220
 6977SOL     OW28226   5.122   2.678   0.490
 6977SOL    HW228227   5.037   2.648   0.460
 6977SOL    HW328228   5.114   2.685   0.585
 6977SOL    MW428229   5.110   2.676   0.499
 6978SOL     OW28230   4.198   3.141   1.221
 6978SOL    HW228231   4.210   3.168   1.312
 6978SOL    HW328232   4.179   3.222   1.174
 6978SOL    MW428233   4.197   3.156   1.226
 6979SOL     OW28234   4.482   2.121   1.044
 6979SOL    HW228235   4.455   2.123   1.135
 6979SOL    HW328236   4.412   2.073   0.999
 6979SOL    MW428237   4.470   2.117   1.051
 6980SOL     OW28238   4.336   3.613   1.206
 6980SOL    HW228239   4.388   3.690   1.183
 6980SOL    HW328240   4.345   3.605   1.301
 6980SOL    MW428241   4.345   3.620   1.217
 6981SOL     OW28242   5.238   3.198   1.438
 6981SOL    HW228243   5.223   3.127   1.501
 6981SOL    HW328244   5.284   3.156   1.366
 6981SOL    MW428245   5.244   3.182   1.438
 6982SOL     OW28246   4.312   2.929   1.555
 6982SOL    HW228247   4.349   2.934   1.467
 6982SOL    HW328248   4.351   3.002   1.602
 6982SOL    MW428249   4.322   2.939   1.550
 6983SOL     OW28250   4.492   2.972   1.367
 6983SOL    HW228251   4.551   2.918   1.420
 6983SOL    HW328252   4.507   2.944   1.277
 6983SOL    MW428253   4.502   2.961   1.363
 6984SOL     OW28254   5.303   3.461   1.539
 6984SOL    HW228255   5.345   3.446   1.624
 6984SOL    HW328256   5.294   3.374   1.501
 6984SOL    MW428257   5.307   3.449   1.546
 6985SOL     OW28258   4.963   1.940   1.130
 6985SOL    HW228259   5.018   1.949   1.052
 6985SOL    HW328260   5.018   1.974   1.201
 6985SOL    MW428261   4.977   1.945   1.129
 6986SOL     OW28262   4.124   3.596   0.894
 6986SOL    HW228263   4.128   3.507   0.929
 6986SOL    HW328264   4.150   3.587   0.803
 6986SOL    MW428265   4.127   3.584   0.886
 6987SOL     OW28266   4.741   3.074   1.137
 6987SOL    HW228267   4.673   3.008   1.153
 6987SOL    HW328268   4.759   3.068   1.044
 6987SOL    MW428269   4.734   3.065   1.128
 6988SOL     OW28270   3.830   3.349   1.388
 6988SOL    HW228271   3.820   3.307   1.474
 6988SOL    HW328272   3.751   3.402   1.378
 6988SOL    MW428273   3.819   3.350   1.399
 6989SOL     OW28274   4.734   2.213   0.958
 6989SOL    HW228275   4.664   2.165   1.003
 6989SOL    HW328276   4.766   2.276   1.022
 6989SOL    MW428277   4.729   2.215   0.972
 6990SOL     OW28278   4.385   2.649   1.578
 6990SOL    HW228279   4.378   2.744   1.566
 6990SOL    HW328280   4.394   2.638   1.673
 6990SOL    MW428281   4.386   2.661   1.588
 6991SOL     OW28282   4.106   3.164   1.836
 6991SOL    HW228283   4.178   3.166   1.773
 6991SOL    HW328284   4.076   3.073   1.835
 6991SOL    MW428285   4.111   3.153   1.828
 6992SOL     OW28286   5.190   1.927   1.303
 6992SOL    HW228287   5.261   1.873   1.267
 6992SOL    HW328288   5.189   1.906   1.396
 6992SOL    MW428289   5.199   1.918   1.311
 6993SOL     OW28290   5.390   3.457   1.787
 6993SOL    HW228291   5.363   3.454   1.878
 6993SOL    HW328292   5.486   3.461   1.790
 6993SOL    MW428293   5.400   3.457   1.799
 6994SOL     OW28294   4.201   2.319   0.771
 6994SOL    HW228295   4.272   2.267   0.734
 6994SOL    HW328296   4.187   2.284   0.858
 6994SOL    MW428297   4.209   2.308   0.778
 6995SOL     OW28298   3.756   3.654   1.843
 6995SOL    HW228299   3.806   3.632   1.765
 6995SOL    HW328300   3.764   3.749   1.851
 6995SOL    MW428301   3.764   3.663   1.834
 6996SOL     OW28302   4.517   3.412   0.847
 6996SOL    HW228303   4.445   3.349   0.860
 6996SOL    HW328304   4.478   3.497   0.865
 6996SOL    MW428305   4.501   3.415   0.850
 6997SOL     OW28306   4.837   2.260   0.495
 6997SOL    HW228307   4.859   2.197   0.427
 6997SOL    HW328308   4.742   2.252   0.506
 6997SOL    MW428309   4.827   2.251   0.487
 6998SOL     OW28310   3.753   2.417   1.570
 6998SOL    HW228311   3.817   2.483   1.545
 6998SOL    HW328312   3.672   2.444   1.527
 6998SOL    MW428313   3.751   2.429   1.562
 6999SOL     OW28314   5.491   3.324   0.527
 6999SOL    HW228315   5.461   3.257   0.588
 6999SOL    HW328316   5.585   3.330   0.541
 6999SOL    MW428317   5.499   3.316   0.537
 7000SOL     OW28318   5.047   3.001   0.457
 7000SOL    HW228319   5.019   3.087   0.490
 7000SOL    HW328320   5.075   3.017   0.367
 7000SOL    MW428321   5.047   3.015   0.449
 7001SOL     OW28322   4.709   1.921   0.510
 7001SOL    HW228323   4.746   1.980   0.575
 7001SOL    HW328324   4.686   1.977   0.436
 7001SOL    MW428325   4.710   1.936   0.509
 7002SOL     OW28326   5.562   2.803   0.932
 7002SOL    HW228327   5.553   2.835   0.843
 7002SOL    HW328328   5.515   2.719   0.932
 7002SOL    MW428329   5.555   2.796   0.922
 7003SOL     OW28330   3.938   2.643   1.511
 7003SOL    HW228331   3.959   2.712   1.449
 7003SOL    HW328332   4.018   2.590   1.516
 7003SOL    MW428333   3.951   2.644   1.505
 7004SOL     OW28334   5.474   2.734   0.633
 7004SOL    HW228335   5.568   2.723   0.621
 7004SOL    HW328336   5.450   2.806   0.574
 7004SOL    MW428337   5.484   2.742   0.624
 7005SOL     OW28338   3.923   2.658   1.778
 7005SOL    HW228339   3.849   2.602   1.804
 7005SOL    HW328340   3.918   2.661   1.683
 7005SOL    MW428341   3.912   2.651   1.768
 7006SOL     OW28342   4.089   1.945   1.228
 7006SOL    HW228343   4.132   2.029   1.248
 7006SOL    HW328344   4.162   1.883   1.221
 7006SOL    MW428345   4.104   1.948   1.229
 7007SOL     OW28346   4.130   2.612   0.406
 7007SOL    HW228347   4.130   2.707   0.391
 7007SOL    HW328348   4.207   2.596   0.460
 7007SOL    MW428349   4.140   2.623   0.411
 7008SOL     OW28350   4.906   2.471   1.470
 7008SOL    HW228351   4.942   2.444   1.386
 7008SOL    HW328352   4.819   2.505   1.449
 7008SOL    MW428353   4.900   2.472   1.457
 7009SOL     OW28354   3.889   2.343   0.695
 7009SOL    HW228355   3.951   2.350   0.768
 7009SOL    HW328356   3.889   2.250   0.672
 7009SOL    MW428357   3.897   2.332   0.702
 7010SOL     OW28358   4.571   2.604   1.179
 7010SOL    HW228359   4.529   2.522   1.155
 7010SOL    HW328360   4.572   2.603   1.275
 7010SOL    MW428361   4.564   2.593   1.188
 7011SOL     OW28362   5.242   3.737   1.578
 7011SOL    HW228363   5.245   3.643   1.561
 7011SOL    HW328364   5.265   3.745   1.670
 7011SOL    MW428365   5.245   3.725   1.588
 7012SOL     OW28366   4.375   2.074   1.284
 7012SOL    HW228367   4.306   2.137   1.305
 7012SOL    HW328368   4.402   2.038   1.369
 7012SOL    MW428369   4.369   2.077   1.297
 7013SOL     OW28370   5.170   1.927   0.901
 7013SOL    HW228371   5.258   1.936   0.938
 7013SOL    HW328372   5.180   1.868   0.827
 7013SOL    MW428373   5.184   1.921   0.895
 7014SOL     OW28374   5.202   2.666   0.745
 7014SOL    HW228375   5.282   2.681   0.694
 7014SOL    HW328376   5.195   2.571   0.751
 7014SOL    MW428377   5.211   2.655   0.740
 7015SOL     OW28378   4.652   2.592   1.442
 7015SOL    HW228379   4.721   2.659   1.439
 7015SOL    HW328380   4.585   2.630   1.498
 7015SOL    MW428381   4.653   2.605   1.449
 7016SOL     OW28382   4.070   2.892   1.690
 7016SOL    HW228383   4.024   2.808   1.692
 7016SOL    HW328384   4.127   2.886   1.614
 7016SOL    MW428385   4.072   2.880   1.682
 7017SOL     OW28386   5.187   2.535   0.011
 7017SOL    HW228387   5.115   2.511  -0.047
 7017SOL    HW328388   5.253   2.572  -0.047
 7017SOL    MW428389   5.186   2.537  -0.004
 7018SOL     OW28390   4.321   3.267   0.691
 7018SOL    HW228391   4.386   3.200   0.712
 7018SOL    HW328392   4.373   3.344   0.668
 7018SOL    MW428393   4.336   3.269   0.690
 7019SOL     OW28394   4.582   2.432   0.821
 7019SOL    HW228395   4.522   2.450   0.893
 7019SOL    HW328396   4.616   2.344   0.840
 7019SOL    MW428397   4.578   2.422   0.834
 7020SOL     OW28398   5.523   1.931   1.490
 7020SOL    HW228399   5.444   1.977   1.518
 7020SOL    HW328400   5.558   1.985   1.419
 7020SOL    MW428401   5.517   1.944   1.484
 7021SOL     OW28402   4.807   3.015   0.840
 7021SOL    HW228403   4.899   2.996   0.858
 7021SOL    HW328404   4.780   2.945   0.780
 7021SOL    MW428405   4.815   3.003   0.834
 7022SOL     OW28406   5.081   3.253   0.936
 7022SOL    HW228407   5.054   3.337   0.901
 7022SOL    HW328408   5.041   3.248   1.023
 7022SOL    MW428409   5.074   3.262   0.942
 7023SOL     OW28410   5.000   3.201   1.204
 7023SOL    HW228411   5.011   3.168   1.293
 7023SOL    HW328412   4.919   3.160   1.173
 7023SOL    MW428413   4.990   3.193   1.210
 7024SOL     OW28414   4.013   2.559   0.974
 7024SOL    HW228415   3.963   2.558   1.055
 7024SOL    HW328416   4.033   2.651   0.958
 7024SOL    MW428417   4.009   2.571   0.982
 7025SOL     OW28418   5.080   3.323   1.736
 7025SOL    HW228419   5.080   3.417   1.752
 7025SOL    HW328420   5.125   3.313   1.652
 7025SOL    MW428421   5.086   3.333   1.727
 7026SOL     OW28422   4.608   2.604   0.411
 7026SOL    HW228423   4.588   2.590   0.318
 7026SOL    HW328424   4.701   2.583   0.418
 7026SOL    MW428425   4.618   2.599   0.400
 7027SOL     OW28426   3.935   2.227   1.715
 7027SOL    HW228427   3.892   2.286   1.652
 7027SOL    HW328428   4.003   2.282   1.755
 7027SOL    MW428429   3.939   2.242   1.712
 7028SOL     OW28430   5.047   2.847   1.260
 7028SOL    HW228431   5.110   2.844   1.333
 7028SOL    HW328432   4.963   2.865   1.302
 7028SOL    MW428433   5.043   2.849   1.275
 7029SOL     OW28434   4.591   3.562   0.449
 7029SOL    HW228435   4.649   3.633   0.476
 7029SOL    HW328436   4.614   3.490   0.507
 7029SOL    MW428437   4.602   3.562   0.460
 7030SOL     OW28438   5.386   2.024   1.039
 7030SOL    HW228439   5.431   1.942   1.058
 7030SOL    HW328440   5.406   2.080   1.115
 7030SOL    MW428441   5.396   2.020   1.051
 7031SOL     OW28442   3.834   1.867   1.138
 7031SOL    HW228443   3.825   1.868   1.043
 7031SOL    HW328444   3.928   1.879   1.153
 7031SOL    MW428445   3.846   1.870   1.129
 7032SOL     OW28446   5.471   3.060   0.758
 7032SOL    HW228447   5.450   3.006   0.681
 7032SOL    HW328448   5.567   3.058   0.762
 7032SOL    MW428449   5.480   3.053   0.747
 7033SOL     OW28450   4.163   3.205   1.501
 7033SOL    HW228451   4.084   3.155   1.524
 7033SOL    HW328452   4.233   3.164   1.551
 7033SOL    MW428453   4.161   3.193   1.511
 7034SOL     OW28454   5.171   2.491   1.020
 7034SOL    HW228455   5.094   2.537   0.986
 7034SOL    HW328456   5.228   2.560   1.054
 7034SOL    MW428457   5.168   2.506   1.020
 7035SOL     OW28458   3.837   3.350   0.222
 7035SOL    HW228459   3.854   3.434   0.264
 7035SOL    HW328460   3.872   3.359   0.134
 7035SOL    MW428461   3.842   3.363   0.216
 7036SOL     OW28462   5.109   3.439   0.439
 7036SOL    HW228463   5.172   3.429   0.368
 7036SOL    HW328464   5.026   3.459   0.394
 7036SOL    MW428465   5.106   3.440   0.424
 7037SOL     OW28466   5.472   2.707   2.125
 7037SOL    HW228467   5.513   2.649   2.190
 7037SOL    HW328468   5.379   2.699   2.142
 7037SOL    MW428469   5.466   2.699   2.135
 7038SOL     OW28470   5.338   2.639   3.120
 7038SOL    HW228471   5.293   2.706   3.171
 7038SOL    HW328472   5.426   2.675   3.106
 7038SOL    MW428473   5.344   2.652   3.124
 7039SOL     OW28474   4.266   2.890   2.354
 7039SOL    HW228475   4.356   2.865   2.338
 7039SOL    HW328476   4.262   2.983   2.331
 7039SOL    MW428477   4.278   2.899   2.349
 7040SOL     OW28478   5.382   3.593   2.496
 7040SOL    HW228479   5.394   3.539   2.574
 7040SOL    HW328480   5.419   3.541   2.425
 7040SOL    MW428481   5.388   3.578   2.497
 7041SOL     OW28482   4.761   3.478   3.497
 7041SOL    HW228483   4.802   3.514   3.418
 7041SOL    HW328484   4.796   3.389   3.504
 7041SOL    MW428485   4.772   3.471   3.488
 7042SOL     OW28486   5.318   3.033   3.101
 7042SOL    HW228487   5.239   2.998   3.059
 7042SOL    HW328488   5.345   3.105   3.045
 7042SOL    MW428489   5.311   3.038   3.088
 7043SOL     OW28490   4.550   2.346   2.367
 7043SOL    HW228491   4.525   2.434   2.395
 7043SOL    HW328492   4.547   2.349   2.271
 7043SOL    MW428493   4.546   2.358   2.359
 7044SOL     OW28494   3.992   2.374   2.295
 7044SOL    HW228495   4.024   2.462   2.277
 7044SOL    HW328496   3.980   2.372   2.390
 7044SOL    MW428497   3.995   2.386   2.307
 7045SOL     OW28498   4.070   2.787   3.196
 7045SOL    HW228499   4.133   2.734   3.147
 7045SOL    HW328500   4.051   2.861   3.139
 7045SOL    MW428501   4.076   2.789   3.183
 7046SOL     OW28502   4.391   2.129   2.382
 7046SOL    HW228503   4.449   2.205   2.384
 7046SOL    HW328504   4.326   2.150   2.315
 7046SOL    MW428505   4.390   2.141   2.373
 7047SOL     OW28506   4.478   3.056   2.557
 7047SOL    HW228507   4.558   3.059   2.609
 7047SOL    HW328508   4.506   3.023   2.471
 7047SOL    MW428509   4.492   3.052   2.552
 7048SOL     OW28510   4.503   3.397   3.460
 7048SOL    HW228511   4.587   3.423   3.499
 7048SOL    HW328512   4.527   3.341   3.386
 7048SOL    MW428513   4.517   3.393   3.455
 7049SOL     OW28514   4.255   2.560   2.548
 7049SOL    HW228515   4.240   2.480   2.599
 7049SOL    HW328516   4.337   2.595   2.582
 7049SOL    MW428517   4.263   2.552   2.560
 7050SOL     OW28518   4.592   3.246   3.233
 7050SOL    HW228519   4.556   3.312   3.173
 7050SOL    HW328520   4.520   3.184   3.246
 7050SOL    MW428521   4.578   3.246   3.227
 7051SOL     OW28522   4.397   2.386   2.925
 7051SOL    HW228523   4.303   2.382   2.943
 7051SOL    HW328524   4.427   2.295   2.934
 7051SOL    MW428525   4.388   2.374   2.928
 7052SOL     OW28526   4.143   2.800   2.829
 7052SOL    HW228527   4.098   2.807   2.745
 7052SOL    HW328528   4.123   2.883   2.873
 7052SOL    MW428529   4.135   2.812   2.823
 7053SOL     OW28530   3.840   3.646   2.704
 7053SOL    HW228531   3.929   3.638   2.739
 7053SOL    HW328532   3.804   3.558   2.709
 7053SOL    MW428533   3.847   3.633   2.709
 7054SOL     OW28534   5.105   3.038   2.073
 7054SOL    HW228535   5.023   3.074   2.039
 7054SOL    HW328536   5.173   3.081   2.022
 7054SOL    MW428537   5.103   3.048   2.061
 7055SOL     OW28538   4.104   3.173   2.739
 7055SOL    HW228539   4.080   3.226   2.815
 7055SOL    HW328540   4.160   3.231   2.687
 7055SOL    MW428541   4.108   3.188   2.742
 7056SOL     OW28542   4.666   2.817   2.549
 7056SOL    HW228543   4.580   2.804   2.589
 7056SOL    HW328544   4.719   2.744   2.581
 7056SOL    MW428545   4.662   2.806   2.558
 7057SOL     OW28546   4.074   3.469   3.334
 7057SOL    HW228547   3.982   3.445   3.319
 7057SOL    HW328548   4.118   3.386   3.351
 7057SOL    MW428549   4.068   3.454   3.333
 7058SOL     OW28550   4.657   3.179   2.266
 7058SOL    HW228551   4.634   3.241   2.334
 7058SOL    HW328552   4.614   3.097   2.292
 7058SOL    MW428553   4.649   3.175   2.277
 7059SOL     OW28554   5.530   2.180   2.722
 7059SOL    HW228555   5.467   2.160   2.791
 7059SOL    HW328556   5.520   2.109   2.659
 7059SOL    MW428557   5.520   2.167   2.723
 7060SOL     OW28558   4.154   2.152   2.234
 7060SOL    HW228559   4.128   2.114   2.150
 7060SOL    HW328560   4.091   2.222   2.250
 7060SOL    MW428561   4.143   2.155   2.225
 7061SOL     OW28562   3.989   3.113   2.271
 7061SOL    HW228563   3.937   3.181   2.227
 7061SOL    HW328564   3.986   3.039   2.211
 7061SOL    MW428565   3.981   3.112   2.258
 7062SOL     OW28566   4.651   3.576   2.049
 7062SOL    HW228567   4.606   3.592   2.132
 7062SOL    HW328568   4.582   3.541   1.991
 7062SOL    MW428569   4.637   3.573   2.051
 7063SOL     OW28570   5.586   2.349   2.024
 7063SOL    HW228571   5.495   2.351   2.052
 7063SOL    HW328572   5.631   2.411   2.082
 7063SOL    MW428573   5.579   2.357   2.034
 7064SOL     OW28574   5.331   2.952   2.374
 7064SOL    HW228575   5.241   2.952   2.409
 7064SOL    HW328576   5.324   2.998   2.291
 7064SOL    MW428577   5.318   2.958   2.368
 7065SOL     OW28578   5.131   2.587   3.446
 7065SOL    HW228579   5.200   2.525   3.423
 7065SOL    HW328580   5.056   2.561   3.393
 7065SOL    MW428581   5.131   2.574   3.437
 7066SOL     OW28582   3.872   3.467   2.998
 7066SOL    HW228583   3.855   3.413   3.075
 7066SOL    HW328584   3.860   3.557   3.028
 7066SOL    MW428585   3.869   3.471   3.012
 7067SOL     OW28586   4.867   2.974   3.438
 7067SOL    HW228587   4.852   3.067   3.423
 7067SOL    HW328588   4.962   2.964   3.438
 7067SOL    MW428589   4.876   2.984   3.435
 7068SOL     OW28590   4.663   2.398   3.639
 7068SOL    HW228591   4.753   2.399   3.606
 7068SOL    HW328592   4.622   2.323   3.597
 7068SOL    MW428593   4.669   2.388   3.630
 7069SOL     OW28594   5.238   2.930   2.766
 7069SOL    HW228595   5.241   2.864   2.697
 7069SOL    HW328596   5.323   2.973   2.762
 7069SOL    MW428597   5.250   2.926   2.757
 7070SOL     OW28598   4.858   2.533   2.335
 7070SOL    HW228599   4.884   2.557   2.246
 7070SOL    HW328600   4.840   2.440   2.331
 7070SOL    MW428601   4.860   2.525   2.322
 7071SOL     OW28602   5.523   3.153   2.186
 7071SOL    HW228603   5.479   3.194   2.261
 7071SOL    HW328604   5.580   3.221   2.151
 7071SOL    MW428605   5.525   3.167   2.191
 7072SOL     OW28606   4.443   2.202   3.589
 7072SOL    HW228607   4.453   2.128   3.529
 7072SOL    HW328608   4.479   2.171   3.672
 7072SOL    MW428609   4.449   2.188   3.591
 7073SOL     OW28610   4.179   3.569   2.504
 7073SOL    HW228611   4.211   3.657   2.482
 7073SOL    HW328612   4.132   3.541   2.426
 7073SOL    MW428613   4.178   3.577   2.491
 7074SOL     OW28614   5.563   1.931   2.553
 7074SOL    HW228615   5.617   1.882   2.615
 7074SOL    HW328616   5.506   1.865   2.514
 7074SOL    MW428617   5.563   1.915   2.555
 7075SOL     OW28618   3.895   3.629   2.081
 7075SOL    HW228619   3.924   3.719   2.073
 7075SOL    HW328620   3.845   3.612   2.002
 7075SOL    MW428621   3.893   3.637   2.070
 7076SOL     OW28622   4.682   1.884   2.966
 7076SOL    HW228623   4.641   1.962   2.928
 7076SOL    HW328624   4.776   1.902   2.961
 7076SOL    MW428625   4.688   1.896   2.961
 7077SOL     OW28626   5.299   3.437   2.052
 7077SOL    HW228627   5.347   3.506   2.098
 7077SOL    HW328628   5.220   3.481   2.021
 7077SOL    MW428629   5.294   3.451   2.055
 7078SOL     OW28630   4.697   2.562   1.996
 7078SOL    HW228631   4.699   2.509   1.917
 7078SOL    HW328632   4.785   2.599   2.002
 7078SOL    MW428633   4.709   2.561   1.985
 7079SOL     OW28634   5.311   2.488   2.332
 7079SOL    HW228635   5.350   2.488   2.419
 7079SOL    HW328636   5.252   2.564   2.332
 7079SOL    MW428637   5.308   2.499   2.343
 7080SOL     OW28638   4.628   2.855   3.461
 7080SOL    HW228639   4.605   2.835   3.551
 7080SOL    HW328640   4.713   2.899   3.466
 7080SOL    MW428641   4.635   2.858   3.473
 7081SOL     OW28642   4.708   1.992   3.221
 7081SOL    HW228643   4.714   1.954   3.134
 7081SOL    HW328644   4.697   2.086   3.206
 7081SOL    MW428645   4.709   2.000   3.209
 7082SOL     OW28646   4.797   2.481   3.055
 7082SOL    HW228647   4.872   2.510   3.002
 7082SOL    HW328648   4.729   2.546   3.039
 7082SOL    MW428649   4.798   2.493   3.045
 7083SOL     OW28650   5.347   2.449   3.332
 7083SOL    HW228651   5.328   2.358   3.311
 7083SOL    HW328652   5.325   2.498   3.253
 7083SOL    MW428653   5.342   2.442   3.319
 7084SOL     OW28654   5.489   3.543   3.236
 7084SOL    HW228655   5.417   3.505   3.287
 7084SOL    HW328656   5.506   3.628   3.277
 7084SOL    MW428657   5.483   3.548   3.248
 7085SOL     OW28658   4.794   2.187   3.438
 7085SOL    HW228659   4.760   2.226   3.357
 7085SOL    HW328660   4.772   2.095   3.431
 7085SOL    MW428661   4.787   2.180   3.428
 7086SOL     OW28662   5.203   3.001   3.514
 7086SOL    HW228663   5.285   3.042   3.544
 7086SOL    HW328664   5.166   2.963   3.594
 7086SOL    MW428665   5.209   3.002   3.529
 7087SOL     OW28666   5.498   2.374   2.498
 7087SOL    HW228667   5.587   2.343   2.515
 7087SOL    HW328668   5.441   2.314   2.546
 7087SOL    MW428669   5.501   2.362   2.507
 7088SOL     OW28670   3.924   2.088   2.527
 7088SOL    HW228671   3.915   2.028   2.453
 7088SOL    HW328672   3.857   2.059   2.590
 7088SOL    MW428673   3.914   2.075   2.525
 7089SOL     OW28674   4.867   3.181   2.088
 7089SOL    HW228675   4.817   3.183   2.170
 7089SOL    HW328676   4.801   3.199   2.020
 7089SOL    MW428677   4.853   3.183   2.090
 7090SOL     OW28678   3.871   2.261   2.890
 7090SOL    HW228679   3.843   2.352   2.899
 7090SOL    HW328680   3.808   2.222   2.829
 7090SOL    MW428681   3.858   2.267   2.884
 7091SOL     OW28682   4.330   3.599   2.196
 7091SOL    HW228683   4.251   3.557   2.229
 7091SOL    HW328684   4.396   3.582   2.263
 7091SOL    MW428685   4.329   3.591   2.209
 7092SOL     OW28686   5.458   3.119   3.593
 7092SOL    HW228687   5.508   3.045   3.625
 7092SOL    HW328688   5.404   3.146   3.668
 7092SOL    MW428689   5.458   3.113   3.606
 7093SOL     OW28690   4.466   3.014   1.903
 7093SOL    HW228691   4.388   2.960   1.890
 7093SOL    HW328692   4.437   3.087   1.956
 7093SOL    MW428693   4.452   3.016   1.908
 7094SOL     OW28694   5.592   2.754   3.095
 7094SOL    HW228695   5.608   2.792   3.008
 7094SOL    HW328696   5.626   2.820   3.156
 7094SOL    MW428697   5.599   2.767   3.091
 7095SOL     OW28698   5.384   3.463   2.764
 7095SOL    HW228699   5.413   3.530   2.825
 7095SOL    HW328700   5.365   3.387   2.819
 7095SOL    MW428701   5.386   3.463   2.779
 7096SOL     OW28702   5.047   3.530   1.971
 7096SOL    HW228703   4.973   3.493   2.021
 7096SOL    HW328704   5.055   3.620   2.004
 7096SOL    MW428705   5.038   3.537   1.983
 7097SOL     OW28706   3.855   2.536   3.060
 7097SOL    HW228707   3.917   2.566   3.126
 7097SOL    HW328708   3.789   2.605   3.054
 7097SOL    MW428709   3.854   2.549   3.067
 7098SOL     OW28710   5.271   3.204   1.913
 7098SOL    HW228711   5.218   3.253   1.849
 7098SOL    HW328712   5.302   3.270   1.974
 7098SOL    MW428713   5.269   3.218   1.911
 7099SOL     OW28714   4.496   2.093   1.968
 7099SOL    HW228715   4.444   2.013   1.956
 7099SOL    HW328716   4.583   2.070   1.936
 7099SOL    MW428717   4.499   2.079   1.962
 7100SOL     OW28718   3.950   3.645   3.512
 7100SOL    HW228719   3.924   3.713   3.450
 7100SOL    HW328720   3.998   3.582   3.460
 7100SOL    MW428721   3.952   3.645   3.498
 7101SOL     OW28722   4.002   2.964   3.019
 7101SOL    HW228723   4.055   3.039   3.044
 7101SOL    HW328724   3.921   3.002   2.985
 7101SOL    MW428725   3.998   2.979   3.019
 7102SOL     OW28726   4.542   2.868   3.007
 7102SOL    HW228727   4.570   2.777   3.019
 7102SOL    HW328728   4.471   2.862   2.943
 7102SOL    MW428729   4.535   2.856   3.002
 7103SOL     OW28730   3.857   2.733   2.425
 7103SOL    HW228731   3.948   2.748   2.452
 7103SOL    HW328732   3.860   2.654   2.371
 7103SOL    MW428733   3.869   2.725   2.423
 7104SOL     OW28734   4.093   2.441   3.679
 7104SOL    HW228735   4.040   2.521   3.686
 7104SOL    HW328736   4.163   2.453   3.744
 7104SOL    MW428737   4.095   2.454   3.687
 7105SOL     OW28738   4.479   1.991   3.386
 7105SOL    HW228739   4.456   1.899   3.388
 7105SOL    HW328740   4.565   1.993   3.343
 7105SOL    MW428741   4.486   1.981   3.382
 7106SOL     OW28742   4.163   2.515   3.425
 7106SOL    HW228743   4.243   2.565   3.411
 7106SOL    HW328744   4.154   2.509   3.520
 7106SOL    MW428745   4.172   2.521   3.435
 7107SOL     OW28746   4.484   3.665   2.799
 7107SOL    HW228747   4.573   3.680   2.829
 7107SOL    HW328748   4.479   3.712   2.715
 7107SOL    MW428749   4.494   3.673   2.792
 7108SOL     OW28750   5.140   2.040   3.696
 7108SOL    HW228751   5.196   1.967   3.722
 7108SOL    HW328752   5.110   2.078   3.778
 7108SOL    MW428753   5.144   2.035   3.709
 7109SOL     OW28754   3.865   3.345   2.464
 7109SOL    HW228755   3.837   3.384   2.546
 7109SOL    HW328756   3.885   3.254   2.486
 7109SOL    MW428757   3.863   3.337   2.477
 7110SOL     OW28758   4.698   3.388   2.499
 7110SOL    HW228759   4.781   3.342   2.483
 7110SOL    HW328760   4.688   3.387   2.595
 7110SOL    MW428761   4.708   3.381   2.509
 7111SOL     OW28762   5.530   2.533   2.813
 7111SOL    HW228763   5.619   2.563   2.795
 7111SOL    HW328764   5.510   2.473   2.742
 7111SOL    MW428765   5.539   2.530   2.802
 7112SOL     OW28766   5.381   2.712   3.693
 7112SOL    HW228767   5.436   2.636   3.674
 7112SOL    HW328768   5.383   2.720   3.788
 7112SOL    MW428769   5.389   2.703   3.701
 7113SOL     OW28770   4.431   3.445   1.904
 7113SOL    HW228771   4.371   3.514   1.874
 7113SOL    HW328772   4.376   3.387   1.957
 7113SOL    MW428773   4.415   3.447   1.906
 7114SOL     OW28774   4.869   2.090   2.127
 7114SOL    HW228775   4.802   2.066   2.064
 7114SOL    HW328776   4.934   2.139   2.076
 7114SOL    MW428777   4.869   2.092   2.112
 7115SOL     OW28778   4.676   2.274   3.212
 7115SOL    HW228779   4.595   2.315   3.240
 7115SOL    HW328780   4.723   2.342   3.164
 7115SOL    MW428781   4.671   2.289   3.210
 7116SOL     OW28782   4.936   2.612   2.835
 7116SOL    HW228783   4.949   2.706   2.845
 7116SOL    HW328784   4.897   2.602   2.749
 7116SOL    MW428785   4.932   2.623   2.825
 7117SOL     OW28786   4.388   2.807   2.639
 7117SOL    HW228787   4.299   2.798   2.672
 7117SOL    HW328788   4.392   2.897   2.607
 7117SOL    MW428789   4.377   2.818   2.639
 7118SOL     OW28790   5.187   2.390   2.634
 7118SOL    HW228791   5.132   2.311   2.633
 7118SOL    HW328792   5.169   2.431   2.718
 7118SOL    MW428793   5.177   2.385   2.643
 7119SOL     OW28794   4.158   2.077   3.451
 7119SOL    HW228795   4.079   2.095   3.503
 7119SOL    HW328796   4.153   2.139   3.378
 7119SOL    MW428797   4.148   2.087   3.448
 7120SOL     OW28798   4.806   2.594   2.591
 7120SOL    HW228799   4.743   2.526   2.615
 7120SOL    HW328800   4.826   2.575   2.499
 7120SOL    MW428801   4.800   2.581   2.583
 7121SOL     OW28802   4.062   3.489   2.293
 7121SOL    HW228803   4.023   3.536   2.219
 7121SOL    HW328804   3.996   3.424   2.318
 7121SOL    MW428805   4.049   3.487   2.287
 7122SOL     OW28806   4.554   2.898   2.317
 7122SOL    HW228807   4.556   2.872   2.224
 7122SOL    HW328808   4.612   2.835   2.360
 7122SOL    MW428809   4.562   2.887   2.311
 7123SOL     OW28810   5.107   3.458   3.089
 7123SOL    HW228811   5.032   3.504   3.127
 7123SOL    HW328812   5.089   3.365   3.106
 7123SOL    MW428813   5.096   3.452   3.097
 7124SOL     OW28814   5.111   3.666   2.519
 7124SOL    HW228815   5.054   3.619   2.458
 7124SOL    HW328816   5.197   3.627   2.506
 7124SOL    MW428817   5.114   3.657   2.509
 7125SOL     OW28818   5.064   2.142   2.650
 7125SOL    HW228819   5.092   2.074   2.711
 7125SOL    HW328820   4.978   2.113   2.620
 7125SOL    MW428821   5.057   2.129   2.654
 7126SOL     OW28822   3.869   3.076   2.584
 7126SOL    HW228823   3.933   3.108   2.647
 7126SOL    HW328824   3.918   3.012   2.532
 7126SOL    MW428825   3.884   3.072   2.585
 7127SOL     OW28826   4.369   3.152   3.566
 7127SOL    HW228827   4.417   3.235   3.553
 7127SOL    HW328828   4.426   3.100   3.622
 7127SOL    MW428829   4.383   3.156   3.572
 7128SOL     OW28830   3.945   3.394   3.706
 7128SOL    HW228831   4.001   3.318   3.721
 7128SOL    HW328832   3.894   3.372   3.628
 7128SOL    MW428833   3.945   3.381   3.697
 7129SOL     OW28834   5.044   2.246   1.985
 7129SOL    HW228835   5.017   2.312   1.921
 7129SOL    HW328836   5.114   2.289   2.035
 7129SOL    MW428837   5.049   2.259   1.982
 7130SOL     OW28838   4.712   1.951   1.922
 7130SOL    HW228839   4.768   1.943   1.844
 7130SOL    HW328840   4.689   1.861   1.944
 7130SOL    MW428841   4.717   1.938   1.915
 7131SOL     OW28842   5.217   2.802   2.127
 7131SOL    HW228843   5.184   2.891   2.117
 7131SOL    HW328844   5.182   2.773   2.212
 7131SOL    MW428845   5.207   2.811   2.138
 7132SOL     OW28846   4.830   3.231   3.315
 7132SOL    HW228847   4.741   3.237   3.283
 7132SOL    HW328848   4.874   3.310   3.283
 7132SOL    MW428849   4.825   3.241   3.307
 7133SOL     OW28850   4.123   1.899   3.657
 7133SOL    HW228851   4.051   1.864   3.605
 7133SOL    HW328852   4.181   1.940   3.592
 7133SOL    MW428853   4.121   1.900   3.642
 7134SOL     OW28854   4.147   3.389   2.956
 7134SOL    HW228855   4.192   3.451   3.013
 7134SOL    HW328856   4.054   3.408   2.969
 7134SOL    MW428857   4.140   3.399   2.963
 7135SOL     OW28858   5.587   2.918   3.310
 7135SOL    HW228859   5.502   2.931   3.269
 7135SOL    HW328860   5.567   2.882   3.397
 7135SOL    MW428861   5.574   2.914   3.315
 7136SOL     OW28862   4.569   3.457   3.064
 7136SOL    HW228863   4.593   3.446   2.973
 7136SOL    HW328864   4.492   3.514   3.062
 7136SOL    MW428865   4.561   3.462   3.053
 7137SOL     OW28866   4.211   2.840   1.919
 7137SOL    HW228867   4.134   2.853   1.975
 7137SOL    HW328868   4.175   2.804   1.838
 7137SOL    MW428869   4.197   2.836   1.916
 7138SOL     OW28870   4.864   2.813   2.162
 7138SOL    HW228871   4.774   2.834   2.137
 7138SOL    HW328872   4.891   2.886   2.218
 7138SOL    MW428873   4.856   2.825   2.165
 7139SOL     OW28874   4.364   3.162   2.854
 7139SOL    HW228875   4.357   3.141   2.948
 7139SOL    HW328876   4.282   3.130   2.817
 7139SOL    MW428877   4.352   3.156   2.861
 7140SOL     OW28878   5.228   2.172   3.256
 7140SOL    HW228879   5.175   2.174   3.336
 7140SOL    HW328880   5.213   2.085   3.219
 7140SOL    MW428881   5.220   2.162   3.261
 7141SOL     OW28882   5.564   2.096   3.129
 7141SOL    HW228883   5.545   2.163   3.064
 7141SOL    HW328884   5.621   2.034   3.084
 7141SOL    MW428885   5.568   2.097   3.115
 7142SOL     OW28886   3.810   3.254   3.517
 7142SOL    HW228887   3.854   3.187   3.463
 7142SOL    HW328888   3.725   3.216   3.537
 7142SOL    MW428889   3.805   3.240   3.513
 7143SOL     OW28890   4.493   1.929   2.569
 7143SOL    HW228891   4.422   1.990   2.551
 7143SOL    HW328892   4.544   1.926   2.488
 7143SOL    MW428893   4.489   1.935   2.556
 7144SOL     OW28894   4.251   3.169   2.318
 7144SOL    HW228895   4.244   3.201   2.408
 7144SOL    HW328896   4.161   3.153   2.290
 7144SOL    MW428897   4.239   3.171   2.325
 7145SOL     OW28898   4.846   3.562   3.227
 7145SOL    HW228899   4.766   3.547   3.177
 7145SOL    HW328900   4.853   3.657   3.234
 7145SOL    MW428901   4.837   3.573   3.221
 7146SOL     OW28902   4.960   3.527   2.717
 7146SOL    HW228903   5.007   3.600   2.676
 7146SOL    HW328904   4.881   3.566   2.753
 7146SOL    MW428905   4.955   3.542   2.716
 7147SOL     OW28906   5.368   3.622   2.992
 7147SOL    HW228907   5.411   3.592   3.072
 7147SOL    HW328908   5.287   3.570   2.989
 7147SOL    MW428909   5.363   3.611   3.002
 7148SOL     OW28910   4.453   2.586   3.699
 7148SOL    HW228911   4.523   2.528   3.671
 7148SOL    HW328912   4.396   2.531   3.754
 7148SOL    MW428913   4.455   2.573   3.703
 7149SOL     OW28914   5.240   2.798   3.332
 7149SOL    HW228915   5.245   2.851   3.412
 7149SOL    HW328916   5.202   2.715   3.360
 7149SOL    MW428917   5.236   2.793   3.347
 7150SOL     OW28918   4.880   1.933   3.578
 7150SOL    HW228919   4.875   1.840   3.559
 7150SOL    HW328920   4.963   1.944   3.624
 7150SOL    MW428921   4.888   1.922   3.582
 7151SOL     OW28922   4.254   2.453   2.032
 7151SOL    HW228923   4.220   2.509   2.102
 7151SOL    HW328924   4.325   2.403   2.072
 7151SOL    MW428925   4.260   2.454   2.046
 7152SOL     OW28926   5.350   3.204   2.854
 7152SOL    HW228927   5.385   3.186   2.767
 7152SOL    HW328928   5.255   3.205   2.841
 7152SOL    MW428929   5.342   3.201   2.841
 7153SOL     OW28930   4.779   2.852   3.223
 7153SOL    HW228931   4.822   2.887   3.301
 7153SOL    HW328932   4.762   2.929   3.169
 7153SOL    MW428933   4.782   2.867   3.226
 7154SOL     OW28934   5.310   2.339   2.096
 7154SOL    HW228935   5.302   2.410   2.033
 7154SOL    HW328936   5.328   2.383   2.179
 7154SOL    MW428937   5.311   2.353   2.098
 7155SOL     OW28938   4.170   1.994   2.525
 7155SOL    HW228939   4.220   2.037   2.456
 7155SOL    HW328940   4.085   2.038   2.525
 7155SOL    MW428941   4.167   2.007   2.516
 7156SOL     OW28942   3.929   3.056   3.385
 7156SOL    HW228943   3.957   3.009   3.463
 7156SOL    HW328944   3.850   3.011   3.356
 7156SOL    MW428945   3.922   3.045   3.391
 7157SOL     OW28946   4.437   2.383   3.352
 7157SOL    HW228947   4.409   2.471   3.376
 7157SOL    HW328948   4.406   2.327   3.423
 7157SOL    MW428949   4.429   2.386   3.364
 7158SOL     OW28950   4.979   2.601   2.071
 7158SOL    HW228951   5.026   2.619   1.990
 7158SOL    HW328952   4.945   2.685   2.099
 7158SOL    MW428953   4.981   2.615   2.064
 7159SOL     OW28954   4.092   2.779   2.565
 7159SOL    HW228955   4.150   2.835   2.513
 7159SOL    HW328956   4.136   2.694   2.567
 7159SOL    MW428957   4.105   2.776   2.558
 7160SOL     OW28958   5.232   2.131   2.402
 7160SOL    HW228959   5.154   2.081   2.427
 7160SOL    HW328960   5.203   2.222   2.402
 7160SOL    MW428961   5.218   2.135   2.405
 7161SOL     OW28962   4.818   2.093   2.561
 7161SOL    HW228963   4.838   2.168   2.505
 7161SOL    HW328964   4.798   2.132   2.646
 7161SOL    MW428965   4.819   2.109   2.565
 7162SOL     OW28966   4.714   3.343   1.893
 7162SOL    HW228967   4.741   3.421   1.845
 7162SOL    HW328968   4.621   3.358   1.912
 7162SOL    MW428969   4.705   3.356   1.889
 7163SOL     OW28970   5.578   2.866   3.580
 7163SOL    HW228971   5.491   2.846   3.616
 7163SOL    HW328972   5.632   2.792   3.605
 7163SOL    MW428973   5.573   2.855   3.588
 7164SOL     OW28974   3.799   3.379   2.737
 7164SOL    HW228975   3.831   3.383   2.828
 7164SOL    HW328976   3.704   3.387   2.745
 7164SOL    MW428977   3.791   3.382   2.750
 7165SOL     OW28978   3.754   2.505   2.284
 7165SOL    HW228979   3.694   2.477   2.354
 7165SOL    HW328980   3.828   2.445   2.290
 7165SOL    MW428981   3.756   2.494   2.293
 7166SOL     OW28982   5.322   3.717   3.718
 7166SOL    HW228983   5.367   3.641   3.683
 7166SOL    HW328984   5.360   3.730   3.805
 7166SOL    MW428985   5.332   3.710   3.724
 7167SOL     OW28986   4.922   3.236   2.444
 7167SOL    HW228987   4.945   3.187   2.522
 7167SOL    HW328988   5.003   3.278   2.416
 7167SOL    MW428989   4.935   3.236   2.451
 7168SOL     OW28990   4.180   2.244   3.173
 7168SOL    HW228991   4.213   2.325   3.213
 7168SOL    HW328992   4.153   2.270   3.085
 7168SOL    MW428993   4.179   2.258   3.167
 7169SOL     OW28994   4.134   2.211   2.909
 7169SOL    HW228995   4.164   2.125   2.880
 7169SOL    HW328996   4.039   2.204   2.912
 7169SOL    MW428997   4.126   2.200   2.907
 7170SOL     OW28998   4.963   2.420   3.600
 7170SOL    HW228999   5.015   2.355   3.553
 7170SOL    HW329000   4.921   2.471   3.530
 7170SOL    MW429001   4.964   2.417   3.583
 7171SOL     OW29002   5.062   2.215   3.461
 7171SOL    HW229003   4.969   2.199   3.448
 7171SOL    HW329004   5.088   2.153   3.529
 7171SOL    MW429005   5.052   2.205   3.468
 7172SOL     OW29006   4.277   1.989   2.800
 7172SOL    HW229007   4.287   1.898   2.826
 7172SOL    HW329008   4.233   1.985   2.715
 7172SOL    MW429009   4.273   1.977   2.792
 7173SOL     OW29010   4.371   3.604   3.346
 7173SOL    HW229011   4.288   3.589   3.391
 7173SOL    HW329012   4.430   3.537   3.381
 7173SOL    MW429013   4.369   3.594   3.356
 7174SOL     OW29014   5.428   2.311   2.971
 7174SOL    HW229015   5.361   2.344   3.031
 7174SOL    HW329016   5.471   2.389   2.937
 7174SOL    MW429017   5.426   2.326   2.975
 7175SOL     OW29018   5.606   3.031   2.941
 7175SOL    HW229019   5.599   2.971   2.866
 7175SOL    HW329020   5.532   3.091   2.930
 7175SOL    MW429021   5.596   3.031   2.930
 7176SOL     OW29022   4.988   2.893   2.859
 7176SOL    HW229023   5.002   2.865   2.950
 7176SOL    HW329024   5.074   2.924   2.831
 7176SOL    MW429025   5.001   2.894   2.868
 7177SOL     OW29026   5.071   2.388   3.138
 7177SOL    HW229027   5.092   2.389   3.045
 7177SOL    HW329028   5.116   2.310   3.171
 7177SOL    MW429029   5.078   2.378   3.130
 7178SOL     OW29030   5.564   2.519   3.680
 7178SOL    HW229031   5.601   2.464   3.749
 7178SOL    HW329032   5.589   2.476   3.598
 7178SOL    MW429033   5.571   2.507   3.679
 7179SOL     OW29034   5.111   2.817   3.731
 7179SOL    HW229035   5.177   2.765   3.685
 7179SOL    HW329036   5.131   2.804   3.824
 7179SOL    MW429037   5.122   2.808   3.738
 7180SOL     OW29038   5.062   1.903   2.080
 7180SOL    HW229039   5.136   1.947   2.123
 7180SOL    HW329040   4.986   1.957   2.102
 7180SOL    MW429041   5.062   1.915   2.088
 7181SOL     OW29042   5.122   2.678   2.358
 7181SOL    HW229043   5.037   2.648   2.328
 7181SOL    HW329044   5.114   2.685   2.453
 7181SOL    MW429045   5.110   2.676   2.367
 7182SOL     OW29046   4.198   3.141   3.089
 7182SOL    HW229047   4.210   3.168   3.180
 7182SOL    HW329048   4.179   3.222   3.042
 7182SOL    MW429049   4.197   3.156   3.094
 7183SOL     OW29050   4.482   2.121   2.912
 7183SOL    HW229051   4.455   2.123   3.003
 7183SOL    HW329052   4.412   2.073   2.867
 7183SOL    MW429053   4.470   2.117   2.919
 7184SOL     OW29054   4.336   3.613   3.074
 7184SOL    HW229055   4.388   3.690   3.051
 7184SOL    HW329056   4.345   3.605   3.169
 7184SOL    MW429057   4.345   3.620   3.085
 7185SOL     OW29058   5.238   3.198   3.306
 7185SOL    HW229059   5.223   3.127   3.369
 7185SOL    HW329060   5.284   3.156   3.234
 7185SOL    MW429061   5.244   3.182   3.306
 7186SOL     OW29062   4.312   2.929   3.423
 7186SOL    HW229063   4.349   2.934   3.335
 7186SOL    HW329064   4.351   3.002   3.470
 7186SOL    MW429065   4.322   2.939   3.418
 7187SOL     OW29066   4.492   2.972   3.235
 7187SOL    HW229067   4.551   2.918   3.288
 7187SOL    HW329068   4.507   2.944   3.145
 7187SOL    MW429069   4.502   2.961   3.231
 7188SOL     OW29070   4.495   2.344   2.084
 7188SOL    HW229071   4.568   2.393   2.047
 7188SOL    HW329072   4.511   2.253   2.058
 7188SOL    MW429073   4.507   2.339   2.077
 7189SOL     OW29074   5.303   3.461   3.407
 7189SOL    HW229075   5.345   3.446   3.492
 7189SOL    HW329076   5.294   3.374   3.369
 7189SOL    MW429077   5.307   3.449   3.414
 7190SOL     OW29078   4.963   1.940   2.998
 7190SOL    HW229079   5.018   1.949   2.920
 7190SOL    HW329080   5.018   1.974   3.069
 7190SOL    MW429081   4.977   1.945   2.997
 7191SOL     OW29082   3.970   2.853   2.182
 7191SOL    HW229083   3.907   2.869   2.111
 7191SOL    HW329084   3.917   2.816   2.253
 7191SOL    MW429085   3.955   2.850   2.182
 7192SOL     OW29086   4.326   3.207   2.041
 7192SOL    HW229087   4.341   3.183   2.133
 7192SOL    HW329088   4.234   3.185   2.025
 7192SOL    MW429089   4.316   3.200   2.051
 7193SOL     OW29090   4.865   3.438   2.193
 7193SOL    HW229091   4.873   3.356   2.144
 7193SOL    HW329092   4.784   3.477   2.160
 7193SOL    MW429093   4.855   3.433   2.183
 7194SOL     OW29094   4.124   3.596   2.762
 7194SOL    HW229095   4.128   3.507   2.797
 7194SOL    HW329096   4.150   3.587   2.671
 7194SOL    MW429097   4.127   3.584   2.754
 7195SOL     OW29098   4.741   3.074   3.005
 7195SOL    HW229099   4.673   3.008   3.021
 7195SOL    HW329100   4.759   3.068   2.912
 7195SOL    MW429101   4.734   3.065   2.996
 7196SOL     OW29102   3.830   3.349   3.256
 7196SOL    HW229103   3.820   3.307   3.342
 7196SOL    HW329104   3.751   3.402   3.246
 7196SOL    MW429105   3.819   3.350   3.267
 7197SOL     OW29106   4.734   2.213   2.826
 7197SOL    HW229107   4.664   2.165   2.871
 7197SOL    HW329108   4.766   2.276   2.890
 7197SOL    MW429109   4.729   2.215   2.840
 7198SOL     OW29110   4.385   2.649   3.446
 7198SOL    HW229111   4.378   2.744   3.434
 7198SOL    HW329112   4.394   2.638   3.541
 7198SOL    MW429113   4.386   2.661   3.456
 7199SOL     OW29114   4.106   3.164   3.704
 7199SOL    HW229115   4.178   3.166   3.641
 7199SOL    HW329116   4.076   3.073   3.703
 7199SOL    MW429117   4.111   3.153   3.696
 7200SOL     OW29118   5.190   1.927   3.171
 7200SOL    HW229119   5.261   1.873   3.135
 7200SOL    HW329120   5.189   1.906   3.264
 7200SOL    MW429121   5.199   1.918   3.179
 7201SOL     OW29122   5.390   3.457   3.655
 7201SOL    HW229123   5.363   3.454   3.746
 7201SOL    HW329124   5.486   3.461   3.658
 7201SOL    MW429125   5.400   3.457   3.667
 7202SOL     OW29126   4.201   2.319   2.639
 7202SOL    HW229127   4.272   2.267   2.602
 7202SOL    HW329128   4.187   2.284   2.726
 7202SOL    MW429129   4.209   2.308   2.646
 7203SOL     OW29130   3.756   3.654   3.711
 7203SOL    HW229131   3.806   3.632   3.633
 7203SOL    HW329132   3.764   3.749   3.719
 7203SOL    MW429133   3.764   3.663   3.702
 7204SOL     OW29134   4.517   3.412   2.715
 7204SOL    HW229135   4.445   3.349   2.728
 7204SOL    HW329136   4.478   3.497   2.733
 7204SOL    MW429137   4.501   3.415   2.718
 7205SOL     OW29138   4.837   2.260   2.363
 7205SOL    HW229139   4.859   2.197   2.295
 7205SOL    HW329140   4.742   2.252   2.374
 7205SOL    MW429141   4.827   2.251   2.355
 7206SOL     OW29142   3.922   1.950   2.295
 7206SOL    HW229143   3.993   1.971   2.234
 7206SOL    HW329144   3.876   1.878   2.253
 7206SOL    MW429145   3.926   1.944   2.281
 7207SOL     OW29146   3.753   2.417   3.438
 7207SOL    HW229147   3.817   2.483   3.413
 7207SOL    HW329148   3.672   2.444   3.395
 7207SOL    MW429149   3.751   2.429   3.430
 7208SOL     OW29150   5.491   3.324   2.395
 7208SOL    HW229151   5.461   3.257   2.456
 7208SOL    HW329152   5.585   3.330   2.409
 7208SOL    MW429153   5.499   3.316   2.405
 7209SOL     OW29154   5.047   3.001   2.325
 7209SOL    HW229155   5.019   3.087   2.358
 7209SOL    HW329156   5.075   3.017   2.235
 7209SOL    MW429157   5.047   3.015   2.317
 7210SOL     OW29158   4.709   1.921   2.378
 7210SOL    HW229159   4.746   1.980   2.443
 7210SOL    HW329160   4.686   1.977   2.304
 7210SOL    MW429161   4.710   1.936   2.377
 7211SOL     OW29162   5.562   2.803   2.800
 7211SOL    HW229163   5.553   2.835   2.711
 7211SOL    HW329164   5.515   2.719   2.800
 7211SOL    MW429165   5.555   2.796   2.790
 7212SOL     OW29166   3.938   2.643   3.379
 7212SOL    HW229167   3.959   2.712   3.317
 7212SOL    HW329168   4.018   2.590   3.384
 7212SOL    MW429169   3.951   2.644   3.373
 7213SOL     OW29170   5.474   2.734   2.501
 7213SOL    HW229171   5.568   2.723   2.489
 7213SOL    HW329172   5.450   2.806   2.442
 7213SOL    MW429173   5.484   2.742   2.492
 7214SOL     OW29174   3.923   2.658   3.646
 7214SOL    HW229175   3.849   2.602   3.672
 7214SOL    HW329176   3.918   2.661   3.551
 7214SOL    MW429177   3.912   2.651   3.636
 7215SOL     OW29178   4.089   1.945   3.096
 7215SOL    HW229179   4.132   2.029   3.116
 7215SOL    HW329180   4.162   1.883   3.089
 7215SOL    MW429181   4.104   1.948   3.097
 7216SOL     OW29182   4.130   2.612   2.274
 7216SOL    HW229183   4.130   2.707   2.259
 7216SOL    HW329184   4.207   2.596   2.328
 7216SOL    MW429185   4.140   2.623   2.279
 7217SOL     OW29186   4.906   2.471   3.338
 7217SOL    HW229187   4.942   2.444   3.254
 7217SOL    HW329188   4.819   2.505   3.317
 7217SOL    MW429189   4.900   2.472   3.325
 7218SOL     OW29190   3.889   2.343   2.563
 7218SOL    HW229191   3.951   2.350   2.636
 7218SOL    HW329192   3.889   2.250   2.540
 7218SOL    MW429193   3.897   2.332   2.570
 7219SOL     OW29194   5.436   3.683   2.095
 7219SOL    HW229195   5.503   3.716   2.035
 7219SOL    HW329196   5.393   3.762   2.129
 7219SOL    MW429197   5.438   3.698   2.091
 7220SOL     OW29198   4.571   2.604   3.047
 7220SOL    HW229199   4.529   2.522   3.023
 7220SOL    HW329200   4.572   2.603   3.143
 7220SOL    MW429201   4.564   2.593   3.056
 7221SOL     OW29202   5.242   3.737   3.446
 7221SOL    HW229203   5.245   3.643   3.429
 7221SOL    HW329204   5.265   3.745   3.538
 7221SOL    MW429205   5.245   3.725   3.456
 7222SOL     OW29206   4.375   2.074   3.152
 7222SOL    HW229207   4.306   2.137   3.173
 7222SOL    HW329208   4.402   2.038   3.237
 7222SOL    MW429209   4.369   2.077   3.165
 7223SOL     OW29210   3.758   2.915   2.021
 7223SOL    HW229211   3.727   2.980   2.084
 7223SOL    HW329212   3.707   2.837   2.040
 7223SOL    MW429213   3.748   2.912   2.031
 7224SOL     OW29214   5.170   1.927   2.769
 7224SOL    HW229215   5.258   1.936   2.806
 7224SOL    HW329216   5.180   1.868   2.695
 7224SOL    MW429217   5.184   1.921   2.763
 7225SOL     OW29218   5.202   2.666   2.613
 7225SOL    HW229219   5.282   2.681   2.562
 7225SOL    HW329220   5.195   2.571   2.619
 7225SOL    MW429221   5.211   2.655   2.608
 7226SOL     OW29222   4.342   3.715   1.963
 7226SOL    HW229223   4.247   3.715   1.955
 7226SOL    HW329224   4.358   3.661   2.041
 7226SOL    MW429225   4.332   3.709   1.972
 7227SOL     OW29226   4.652   2.592   3.310
 7227SOL    HW229227   4.721   2.659   3.307
 7227SOL    HW329228   4.585   2.630   3.366
 7227SOL    MW429229   4.653   2.605   3.317
 7228SOL     OW29230   4.070   2.892   3.558
 7228SOL    HW229231   4.024   2.808   3.560
 7228SOL    HW329232   4.127   2.886   3.482
 7228SOL    MW429233   4.072   2.880   3.550
 7229SOL     OW29234   5.187   2.535   1.879
 7229SOL    HW229235   5.115   2.511   1.821
 7229SOL    HW329236   5.253   2.572   1.821
 7229SOL    MW429237   5.186   2.537   1.864
 7230SOL     OW29238   4.321   3.267   2.559
 7230SOL    HW229239   4.386   3.200   2.580
 7230SOL    HW329240   4.373   3.344   2.536
 7230SOL    MW429241   4.336   3.269   2.558
 7231SOL     OW29242   4.582   2.432   2.689
 7231SOL    HW229243   4.522   2.450   2.761
 7231SOL    HW329244   4.616   2.344   2.708
 7231SOL    MW429245   4.578   2.422   2.702
 7232SOL     OW29246   5.523   1.931   3.358
 7232SOL    HW229247   5.444   1.977   3.386
 7232SOL    HW329248   5.558   1.985   3.287
 7232SOL    MW429249   5.517   1.944   3.352
 7233SOL     OW29250   4.807   3.015   2.708
 7233SOL    HW229251   4.899   2.996   2.726
 7233SOL    HW329252   4.780   2.945   2.648
 7233SOL    MW429253   4.815   3.003   2.702
 7234SOL     OW29254   4.600   2.835   2.063
 7234SOL    HW229255   4.586   2.747   2.028
 7234SOL    HW329256   4.551   2.892   2.004
 7234SOL    MW429257   4.592   2.830   2.051
 7235SOL     OW29258   5.081   3.253   2.804
 7235SOL    HW229259   5.054   3.337   2.769
 7235SOL    HW329260   5.041   3.248   2.891
 7235SOL    MW429261   5.074   3.262   2.810
 7236SOL     OW29262   5.000   3.201   3.072
 7236SOL    HW229263   5.011   3.168   3.161
 7236SOL    HW329264   4.919   3.160   3.041
 7236SOL    MW429265   4.990   3.193   3.078
 7237SOL     OW29266   4.013   2.559   2.842
 7237SOL    HW229267   3.963   2.558   2.923
 7237SOL    HW329268   4.033   2.651   2.826
 7237SOL    MW429269   4.009   2.571   2.850
 7238SOL     OW29270   5.080   3.323   3.604
 7238SOL    HW229271   5.080   3.417   3.620
 7238SOL    HW329272   5.125   3.313   3.520
 7238SOL    MW429273   5.086   3.333   3.595
 7239SOL     OW29274   5.319   2.041   2.165
 7239SOL    HW229275   5.312   2.045   2.260
 7239SOL    HW329276   5.331   2.132   2.138
 7239SOL    MW429277   5.320   2.054   2.173
 7240SOL     OW29278   4.608   2.604   2.279
 7240SOL    HW229279   4.588   2.590   2.186
 7240SOL    HW329280   4.701   2.583   2.286
 7240SOL    MW429281   4.618   2.599   2.268
 7241SOL     OW29282   3.935   2.227   3.583
 7241SOL    HW229283   3.892   2.286   3.520
 7241SOL    HW329284   4.003   2.282   3.623
 7241SOL    MW429285   3.939   2.242   3.580
 7242SOL     OW29286   5.047   2.847   3.128
 7242SOL    HW229287   5.110   2.844   3.201
 7242SOL    HW329288   4.963   2.865   3.170
 7242SOL    MW429289   5.043   2.849   3.143
 7243SOL     OW29290   4.591   3.562   2.317
 7243SOL    HW229291   4.649   3.633   2.344
 7243SOL    HW329292   4.614   3.490   2.375
 7243SOL    MW429293   4.602   3.562   2.328
 7244SOL     OW29294   5.386   2.024   2.907
 7244SOL    HW229295   5.431   1.942   2.926
 7244SOL    HW329296   5.406   2.080   2.983
 7244SOL    MW429297   5.396   2.020   2.919
 7245SOL     OW29298   3.834   1.867   3.006
 7245SOL    HW229299   3.825   1.868   2.911
 7245SOL    HW329300   3.928   1.879   3.021
 7245SOL    MW429301   3.846   1.870   2.997
 7246SOL     OW29302   5.471   3.060   2.626
 7246SOL    HW229303   5.450   3.006   2.549
 7246SOL    HW329304   5.567   3.058   2.630
 7246SOL    MW429305   5.480   3.053   2.615
 7247SOL     OW29306   4.163   3.205   3.369
 7247SOL    HW229307   4.084   3.155   3.392
 7247SOL    HW329308   4.233   3.164   3.419
 7247SOL    MW429309   4.161   3.193   3.379
 7248SOL     OW29310   4.047   1.994   2.052
 7248SOL    HW229311   3.976   2.049   2.020
 7248SOL    HW329312   4.089   1.960   1.973
 7248SOL    MW429313   4.043   1.996   2.038
 7249SOL     OW29314   5.171   2.491   2.888
 7249SOL    HW229315   5.094   2.537   2.854
 7249SOL    HW329316   5.228   2.560   2.922
 7249SOL    MW429317   5.168   2.506   2.888
 7250SOL     OW29318   3.803   2.093   1.901
 7250SOL    HW229319   3.770   2.172   1.945
 7250SOL    HW329320   3.858   2.126   1.830
 7250SOL    MW429321   3.806   2.107   1.898
 7251SOL     OW29322   3.837   3.350   2.090
 7251SOL    HW229323   3.854   3.434   2.132
 7251SOL    HW329324   3.872   3.359   2.002
 7251SOL    MW429325   3.842   3.363   2.084
 7252SOL     OW29326   5.109   3.439   2.307
 7252SOL    HW229327   5.172   3.429   2.236
 7252SOL    HW329328   5.026   3.459   2.262
 7252SOL    MW429329   5.106   3.440   2.292
 7253SOL     OW29330   5.472   2.707   3.993
 7253SOL    HW229331   5.513   2.649   4.058
 7253SOL    HW329332   5.379   2.699   4.010
 7253SOL    MW429333   5.466   2.699   4.003
 7254SOL     OW29334   5.338   2.639   4.988
 7254SOL    HW229335   5.293   2.706   5.039
 7254SOL    HW329336   5.426   2.675   4.974
 7254SOL    MW429337   5.344   2.652   4.992
 7255SOL     OW29338   4.266   2.890   4.222
 7255SOL    HW229339   4.356   2.865   4.206
 7255SOL    HW329340   4.262   2.983   4.199
 7255SOL    MW429341   4.278   2.899   4.217
 7256SOL     OW29342   5.382   3.593   4.364
 7256SOL    HW229343   5.394   3.539   4.442
 7256SOL    HW329344   5.419   3.541   4.293
 7256SOL    MW429345   5.388   3.578   4.365
 7257SOL     OW29346   4.761   3.478   5.365
 7257SOL    HW229347   4.802   3.514   5.286
 7257SOL    HW329348   4.796   3.389   5.372
 7257SOL    MW429349   4.772   3.471   5.356
 7258SOL     OW29350   5.318   3.033   4.969
 7258SOL    HW229351   5.239   2.998   4.927
 7258SOL    HW329352   5.345   3.105   4.913
 7258SOL    MW429353   5.311   3.038   4.956
 7259SOL     OW29354   4.550   2.346   4.235
 7259SOL    HW229355   4.525   2.434   4.263
 7259SOL    HW329356   4.547   2.349   4.139
 7259SOL    MW429357   4.546   2.358   4.227
 7260SOL     OW29358   3.992   2.374   4.163
 7260SOL    HW229359   4.024   2.462   4.145
 7260SOL    HW329360   3.980   2.372   4.258
 7260SOL    MW429361   3.995   2.386   4.175
 7261SOL     OW29362   4.070   2.787   5.064
 7261SOL    HW229363   4.133   2.734   5.015
 7261SOL    HW329364   4.051   2.861   5.007
 7261SOL    MW429365   4.076   2.789   5.051
 7262SOL     OW29366   4.391   2.129   4.250
 7262SOL    HW229367   4.449   2.205   4.252
 7262SOL    HW329368   4.326   2.150   4.183
 7262SOL    MW429369   4.390   2.141   4.241
 7263SOL     OW29370   4.478   3.056   4.425
 7263SOL    HW229371   4.558   3.059   4.477
 7263SOL    HW329372   4.506   3.023   4.339
 7263SOL    MW429373   4.492   3.052   4.420
 7264SOL     OW29374   4.503   3.397   5.328
 7264SOL    HW229375   4.587   3.423   5.367
 7264SOL    HW329376   4.527   3.341   5.254
 7264SOL    MW429377   4.517   3.393   5.323
 7265SOL     OW29378   4.255   2.560   4.416
 7265SOL    HW229379   4.240   2.480   4.467
 7265SOL    HW329380   4.337   2.595   4.450
 7265SOL    MW429381   4.263   2.552   4.428
 7266SOL     OW29382   4.592   3.246   5.101
 7266SOL    HW229383   4.556   3.312   5.041
 7266SOL    HW329384   4.520   3.184   5.114
 7266SOL    MW429385   4.578   3.246   5.095
 7267SOL     OW29386   4.397   2.386   4.793
 7267SOL    HW229387   4.303   2.382   4.811
 7267SOL    HW329388   4.427   2.295   4.802
 7267SOL    MW429389   4.388   2.374   4.796
 7268SOL     OW29390   4.143   2.800   4.697
 7268SOL    HW229391   4.098   2.807   4.613
 7268SOL    HW329392   4.123   2.883   4.741
 7268SOL    MW429393   4.135   2.812   4.691
 7269SOL     OW29394   3.840   3.646   4.572
 7269SOL    HW229395   3.929   3.638   4.607
 7269SOL    HW329396   3.804   3.558   4.577
 7269SOL    MW429397   3.847   3.633   4.577
 7270SOL     OW29398   5.105   3.038   3.941
 7270SOL    HW229399   5.023   3.074   3.907
 7270SOL    HW329400   5.173   3.081   3.890
 7270SOL    MW429401   5.103   3.048   3.929
 7271SOL     OW29402   4.104   3.173   4.607
 7271SOL    HW229403   4.080   3.226   4.683
 7271SOL    HW329404   4.160   3.231   4.555
 7271SOL    MW429405   4.108   3.188   4.610
 7272SOL     OW29406   4.666   2.817   4.417
 7272SOL    HW229407   4.580   2.804   4.457
 7272SOL    HW329408   4.719   2.744   4.449
 7272SOL    MW429409   4.662   2.806   4.426
 7273SOL     OW29410   4.074   3.469   5.202
 7273SOL    HW229411   3.982   3.445   5.187
 7273SOL    HW329412   4.118   3.386   5.219
 7273SOL    MW429413   4.068   3.454   5.201
 7274SOL     OW29414   4.657   3.179   4.134
 7274SOL    HW229415   4.634   3.241   4.202
 7274SOL    HW329416   4.614   3.097   4.160
 7274SOL    MW429417   4.649   3.175   4.145
 7275SOL     OW29418   5.530   2.180   4.590
 7275SOL    HW229419   5.467   2.160   4.659
 7275SOL    HW329420   5.520   2.109   4.527
 7275SOL    MW429421   5.520   2.167   4.591
 7276SOL     OW29422   4.154   2.152   4.102
 7276SOL    HW229423   4.128   2.114   4.018
 7276SOL    HW329424   4.091   2.222   4.118
 7276SOL    MW429425   4.143   2.155   4.093
 7277SOL     OW29426   3.989   3.113   4.139
 7277SOL    HW229427   3.937   3.181   4.095
 7277SOL    HW329428   3.986   3.039   4.079
 7277SOL    MW429429   3.981   3.112   4.126
 7278SOL     OW29430   4.651   3.576   3.917
 7278SOL    HW229431   4.606   3.592   4.000
 7278SOL    HW329432   4.582   3.541   3.859
 7278SOL    MW429433   4.637   3.573   3.919
 7279SOL     OW29434   5.586   2.349   3.892
 7279SOL    HW229435   5.495   2.351   3.920
 7279SOL    HW329436   5.631   2.411   3.950
 7279SOL    MW429437   5.579   2.357   3.902
 7280SOL     OW29438   5.331   2.952   4.242
 7280SOL    HW229439   5.241   2.952   4.277
 7280SOL    HW329440   5.324   2.998   4.159
 7280SOL    MW429441   5.318   2.958   4.236
 7281SOL     OW29442   5.131   2.587   5.314
 7281SOL    HW229443   5.200   2.525   5.291
 7281SOL    HW329444   5.056   2.561   5.261
 7281SOL    MW429445   5.131   2.574   5.305
 7282SOL     OW29446   3.872   3.467   4.866
 7282SOL    HW229447   3.855   3.413   4.943
 7282SOL    HW329448   3.860   3.557   4.896
 7282SOL    MW429449   3.869   3.471   4.880
 7283SOL     OW29450   4.867   2.974   5.306
 7283SOL    HW229451   4.852   3.067   5.291
 7283SOL    HW329452   4.962   2.964   5.306
 7283SOL    MW429453   4.876   2.984   5.303
 7284SOL     OW29454   4.663   2.398   5.507
 7284SOL    HW229455   4.753   2.399   5.474
 7284SOL    HW329456   4.622   2.323   5.465
 7284SOL    MW429457   4.669   2.388   5.498
 7285SOL     OW29458   5.238   2.930   4.634
 7285SOL    HW229459   5.241   2.864   4.565
 7285SOL    HW329460   5.323   2.973   4.630
 7285SOL    MW429461   5.250   2.926   4.625
 7286SOL     OW29462   4.858   2.533   4.203
 7286SOL    HW229463   4.884   2.557   4.114
 7286SOL    HW329464   4.840   2.440   4.199
 7286SOL    MW429465   4.860   2.525   4.190
 7287SOL     OW29466   5.523   3.153   4.054
 7287SOL    HW229467   5.479   3.194   4.129
 7287SOL    HW329468   5.580   3.221   4.019
 7287SOL    MW429469   5.525   3.167   4.059
 7288SOL     OW29470   4.443   2.202   5.457
 7288SOL    HW229471   4.453   2.128   5.397
 7288SOL    HW329472   4.479   2.171   5.540
 7288SOL    MW429473   4.449   2.188   5.459
 7289SOL     OW29474   4.179   3.569   4.372
 7289SOL    HW229475   4.211   3.657   4.350
 7289SOL    HW329476   4.132   3.541   4.294
 7289SOL    MW429477   4.178   3.577   4.359
 7290SOL     OW29478   5.563   1.931   4.421
 7290SOL    HW229479   5.617   1.882   4.483
 7290SOL    HW329480   5.506   1.865   4.382
 7290SOL    MW429481   5.563   1.915   4.423
 7291SOL     OW29482   3.895   3.629   3.949
 7291SOL    HW229483   3.924   3.719   3.941
 7291SOL    HW329484   3.845   3.612   3.870
 7291SOL    MW429485   3.893   3.637   3.938
 7292SOL     OW29486   4.682   1.884   4.834
 7292SOL    HW229487   4.641   1.962   4.796
 7292SOL    HW329488   4.776   1.902   4.829
 7292SOL    MW429489   4.688   1.896   4.829
 7293SOL     OW29490   5.299   3.437   3.920
 7293SOL    HW229491   5.347   3.506   3.966
 7293SOL    HW329492   5.220   3.481   3.889
 7293SOL    MW429493   5.294   3.451   3.923
 7294SOL     OW29494   4.697   2.562   3.864
 7294SOL    HW229495   4.699   2.509   3.785
 7294SOL    HW329496   4.785   2.599   3.870
 7294SOL    MW429497   4.709   2.561   3.853
 7295SOL     OW29498   5.311   2.488   4.200
 7295SOL    HW229499   5.350   2.488   4.287
 7295SOL    HW329500   5.252   2.564   4.200
 7295SOL    MW429501   5.308   2.499   4.211
 7296SOL     OW29502   4.628   2.855   5.329
 7296SOL    HW229503   4.605   2.835   5.419
 7296SOL    HW329504   4.713   2.899   5.334
 7296SOL    MW429505   4.635   2.858   5.341
 7297SOL     OW29506   4.708   1.992   5.089
 7297SOL    HW229507   4.714   1.954   5.002
 7297SOL    HW329508   4.697   2.086   5.074
 7297SOL    MW429509   4.709   2.000   5.077
 7298SOL     OW29510   4.797   2.481   4.923
 7298SOL    HW229511   4.872   2.510   4.870
 7298SOL    HW329512   4.729   2.546   4.907
 7298SOL    MW429513   4.798   2.493   4.913
 7299SOL     OW29514   5.347   2.449   5.200
 7299SOL    HW229515   5.328   2.358   5.179
 7299SOL    HW329516   5.325   2.498   5.121
 7299SOL    MW429517   5.342   2.442   5.187
 7300SOL     OW29518   5.489   3.543   5.104
 7300SOL    HW229519   5.417   3.505   5.155
 7300SOL    HW329520   5.506   3.628   5.145
 7300SOL    MW429521   5.483   3.548   5.116
 7301SOL     OW29522   4.794   2.187   5.306
 7301SOL    HW229523   4.760   2.226   5.225
 7301SOL    HW329524   4.772   2.095   5.299
 7301SOL    MW429525   4.787   2.180   5.296
 7302SOL     OW29526   5.203   3.001   5.382
 7302SOL    HW229527   5.285   3.042   5.412
 7302SOL    HW329528   5.166   2.963   5.462
 7302SOL    MW429529   5.209   3.002   5.397
 7303SOL     OW29530   5.498   2.374   4.366
 7303SOL    HW229531   5.587   2.343   4.383
 7303SOL    HW329532   5.441   2.314   4.414
 7303SOL    MW429533   5.501   2.362   4.375
 7304SOL     OW29534   3.924   2.088   4.395
 7304SOL    HW229535   3.915   2.028   4.321
 7304SOL    HW329536   3.857   2.059   4.458
 7304SOL    MW429537   3.914   2.075   4.393
 7305SOL     OW29538   4.867   3.181   3.956
 7305SOL    HW229539   4.817   3.183   4.038
 7305SOL    HW329540   4.801   3.199   3.888
 7305SOL    MW429541   4.853   3.183   3.958
 7306SOL     OW29542   3.871   2.261   4.758
 7306SOL    HW229543   3.843   2.352   4.767
 7306SOL    HW329544   3.808   2.222   4.697
 7306SOL    MW429545   3.858   2.267   4.752
 7307SOL     OW29546   4.330   3.599   4.064
 7307SOL    HW229547   4.251   3.557   4.097
 7307SOL    HW329548   4.396   3.582   4.131
 7307SOL    MW429549   4.329   3.591   4.077
 7308SOL     OW29550   5.458   3.119   5.461
 7308SOL    HW229551   5.508   3.045   5.493
 7308SOL    HW329552   5.404   3.146   5.536
 7308SOL    MW429553   5.458   3.113   5.474
 7309SOL     OW29554   4.466   3.014   3.771
 7309SOL    HW229555   4.388   2.960   3.758
 7309SOL    HW329556   4.437   3.087   3.824
 7309SOL    MW429557   4.452   3.016   3.776
 7310SOL     OW29558   5.592   2.754   4.963
 7310SOL    HW229559   5.608   2.792   4.876
 7310SOL    HW329560   5.626   2.820   5.024
 7310SOL    MW429561   5.599   2.767   4.959
 7311SOL     OW29562   5.384   3.463   4.632
 7311SOL    HW229563   5.413   3.530   4.693
 7311SOL    HW329564   5.365   3.387   4.687
 7311SOL    MW429565   5.386   3.463   4.647
 7312SOL     OW29566   5.047   3.530   3.839
 7312SOL    HW229567   4.973   3.493   3.889
 7312SOL    HW329568   5.055   3.620   3.872
 7312SOL    MW429569   5.038   3.537   3.851
 7313SOL     OW29570   3.855   2.536   4.928
 7313SOL    HW229571   3.917   2.566   4.994
 7313SOL    HW329572   3.789   2.605   4.922
 7313SOL    MW429573   3.854   2.549   4.935
 7314SOL     OW29574   5.271   3.204   3.781
 7314SOL    HW229575   5.218   3.253   3.717
 7314SOL    HW329576   5.302   3.270   3.842
 7314SOL    MW429577   5.269   3.218   3.779
 7315SOL     OW29578   4.496   2.093   3.836
 7315SOL    HW229579   4.444   2.013   3.824
 7315SOL    HW329580   4.583   2.070   3.804
 7315SOL    MW429581   4.499   2.079   3.830
 7316SOL     OW29582   3.950   3.645   5.380
 7316SOL    HW229583   3.924   3.713   5.318
 7316SOL    HW329584   3.998   3.582   5.328
 7316SOL    MW429585   3.952   3.645   5.366
 7317SOL     OW29586   4.002   2.964   4.887
 7317SOL    HW229587   4.055   3.039   4.912
 7317SOL    HW329588   3.921   3.002   4.853
 7317SOL    MW429589   3.998   2.979   4.887
 7318SOL     OW29590   4.542   2.868   4.875
 7318SOL    HW229591   4.570   2.777   4.887
 7318SOL    HW329592   4.471   2.862   4.811
 7318SOL    MW429593   4.535   2.856   4.870
 7319SOL     OW29594   3.857   2.733   4.293
 7319SOL    HW229595   3.948   2.748   4.320
 7319SOL    HW329596   3.860   2.654   4.239
 7319SOL    MW429597   3.869   2.725   4.291
 7320SOL     OW29598   4.093   2.441   5.547
 7320SOL    HW229599   4.040   2.521   5.554
 7320SOL    HW329600   4.163   2.453   5.612
 7320SOL    MW429601   4.095   2.454   5.555
 7321SOL     OW29602   4.479   1.991   5.254
 7321SOL    HW229603   4.456   1.899   5.256
 7321SOL    HW329604   4.565   1.993   5.211
 7321SOL    MW429605   4.486   1.981   5.250
 7322SOL     OW29606   4.163   2.515   5.293
 7322SOL    HW229607   4.243   2.565   5.279
 7322SOL    HW329608   4.154   2.509   5.388
 7322SOL    MW429609   4.172   2.521   5.303
 7323SOL     OW29610   4.484   3.665   4.667
 7323SOL    HW229611   4.573   3.680   4.697
 7323SOL    HW329612   4.479   3.712   4.583
 7323SOL    MW429613   4.494   3.673   4.660
 7324SOL     OW29614   5.140   2.040   5.564
 7324SOL    HW229615   5.196   1.967   5.590
 7324SOL    HW329616   5.110   2.078   5.646
 7324SOL    MW429617   5.144   2.035   5.577
 7325SOL     OW29618   3.865   3.345   4.332
 7325SOL    HW229619   3.837   3.384   4.414
 7325SOL    HW329620   3.885   3.254   4.354
 7325SOL    MW429621   3.863   3.337   4.345
 7326SOL     OW29622   4.698   3.388   4.367
 7326SOL    HW229623   4.781   3.342   4.351
 7326SOL    HW329624   4.688   3.387   4.463
 7326SOL    MW429625   4.708   3.381   4.377
 7327SOL     OW29626   5.530   2.533   4.681
 7327SOL    HW229627   5.619   2.563   4.663
 7327SOL    HW329628   5.510   2.473   4.610
 7327SOL    MW429629   5.539   2.530   4.670
 7328SOL     OW29630   5.381   2.712   5.561
 7328SOL    HW229631   5.436   2.636   5.542
 7328SOL    HW329632   5.383   2.720   5.656
 7328SOL    MW429633   5.389   2.703   5.569
 7329SOL     OW29634   4.431   3.445   3.772
 7329SOL    HW229635   4.371   3.514   3.742
 7329SOL    HW329636   4.376   3.387   3.825
 7329SOL    MW429637   4.415   3.447   3.774
 7330SOL     OW29638   4.869   2.090   3.995
 7330SOL    HW229639   4.802   2.066   3.932
 7330SOL    HW329640   4.934   2.139   3.944
 7330SOL    MW429641   4.869   2.092   3.980
 7331SOL     OW29642   4.676   2.274   5.080
 7331SOL    HW229643   4.595   2.315   5.108
 7331SOL    HW329644   4.723   2.342   5.032
 7331SOL    MW429645   4.671   2.289   5.078
 7332SOL     OW29646   4.936   2.612   4.703
 7332SOL    HW229647   4.949   2.706   4.713
 7332SOL    HW329648   4.897   2.602   4.617
 7332SOL    MW429649   4.932   2.623   4.693
 7333SOL     OW29650   4.388   2.807   4.507
 7333SOL    HW229651   4.299   2.798   4.540
 7333SOL    HW329652   4.392   2.897   4.475
 7333SOL    MW429653   4.377   2.818   4.507
 7334SOL     OW29654   5.187   2.390   4.502
 7334SOL    HW229655   5.132   2.311   4.501
 7334SOL    HW329656   5.169   2.431   4.586
 7334SOL    MW429657   5.177   2.385   4.511
 7335SOL     OW29658   4.158   2.077   5.319
 7335SOL    HW229659   4.079   2.095   5.371
 7335SOL    HW329660   4.153   2.139   5.246
 7335SOL    MW429661   4.148   2.087   5.316
 7336SOL     OW29662   4.806   2.594   4.459
 7336SOL    HW229663   4.743   2.526   4.483
 7336SOL    HW329664   4.826   2.575   4.367
 7336SOL    MW429665   4.800   2.581   4.451
 7337SOL     OW29666   4.062   3.489   4.161
 7337SOL    HW229667   4.023   3.536   4.087
 7337SOL    HW329668   3.996   3.424   4.186
 7337SOL    MW429669   4.049   3.487   4.155
 7338SOL     OW29670   4.554   2.898   4.185
 7338SOL    HW229671   4.556   2.872   4.092
 7338SOL    HW329672   4.612   2.835   4.228
 7338SOL    MW429673   4.562   2.887   4.179
 7339SOL     OW29674   5.107   3.458   4.957
 7339SOL    HW229675   5.032   3.504   4.995
 7339SOL    HW329676   5.089   3.365   4.974
 7339SOL    MW429677   5.096   3.452   4.965
 7340SOL     OW29678   5.111   3.666   4.387
 7340SOL    HW229679   5.054   3.619   4.326
 7340SOL    HW329680   5.197   3.627   4.374
 7340SOL    MW429681   5.114   3.657   4.377
 7341SOL     OW29682   5.064   2.142   4.518
 7341SOL    HW229683   5.092   2.074   4.579
 7341SOL    HW329684   4.978   2.113   4.488
 7341SOL    MW429685   5.057   2.129   4.522
 7342SOL     OW29686   3.869   3.076   4.452
 7342SOL    HW229687   3.933   3.108   4.515
 7342SOL    HW329688   3.918   3.012   4.400
 7342SOL    MW429689   3.884   3.072   4.453
 7343SOL     OW29690   4.369   3.152   5.434
 7343SOL    HW229691   4.417   3.235   5.421
 7343SOL    HW329692   4.426   3.100   5.490
 7343SOL    MW429693   4.383   3.156   5.440
 7344SOL     OW29694   3.945   3.394   5.574
 7344SOL    HW229695   4.001   3.318   5.589
 7344SOL    HW329696   3.894   3.372   5.496
 7344SOL    MW429697   3.945   3.381   5.565
 7345SOL     OW29698   5.044   2.246   3.853
 7345SOL    HW229699   5.017   2.312   3.789
 7345SOL    HW329700   5.114   2.289   3.903
 7345SOL    MW429701   5.049   2.259   3.850
 7346SOL     OW29702   4.712   1.951   3.790
 7346SOL    HW229703   4.768   1.943   3.712
 7346SOL    HW329704   4.689   1.861   3.812
 7346SOL    MW429705   4.717   1.938   3.783
 7347SOL     OW29706   5.217   2.802   3.995
 7347SOL    HW229707   5.184   2.891   3.985
 7347SOL    HW329708   5.182   2.773   4.080
 7347SOL    MW429709   5.207   2.811   4.006
 7348SOL     OW29710   4.830   3.231   5.183
 7348SOL    HW229711   4.741   3.237   5.151
 7348SOL    HW329712   4.874   3.310   5.151
 7348SOL    MW429713   4.825   3.241   5.175
 7349SOL     OW29714   4.123   1.899   5.525
 7349SOL    HW229715   4.051   1.864   5.473
 7349SOL    HW329716   4.181   1.940   5.460
 7349SOL    MW429717   4.121   1.900   5.510
 7350SOL     OW29718   4.147   3.389   4.824
 7350SOL    HW229719   4.192   3.451   4.881
 7350SOL    HW329720   4.054   3.408   4.837
 7350SOL    MW429721   4.140   3.399   4.831
 7351SOL     OW29722   5.587   2.918   5.178
 7351SOL    HW229723   5.502   2.931   5.137
 7351SOL    HW329724   5.567   2.882   5.265
 7351SOL    MW429725   5.574   2.914   5.183
 7352SOL     OW29726   4.569   3.457   4.932
 7352SOL    HW229727   4.593   3.446   4.841
 7352SOL    HW329728   4.492   3.514   4.930
 7352SOL    MW429729   4.561   3.462   4.921
 7353SOL     OW29730   4.211   2.840   3.787
 7353SOL    HW229731   4.134   2.853   3.843
 7353SOL    HW329732   4.175   2.804   3.706
 7353SOL    MW429733   4.197   2.836   3.784
 7354SOL     OW29734   4.864   2.813   4.030
 7354SOL    HW229735   4.774   2.834   4.005
 7354SOL    HW329736   4.891   2.886   4.086
 7354SOL    MW429737   4.856   2.825   4.033
 7355SOL     OW29738   4.364   3.162   4.722
 7355SOL    HW229739   4.357   3.141   4.816
 7355SOL    HW329740   4.282   3.130   4.685
 7355SOL    MW429741   4.352   3.156   4.729
 7356SOL     OW29742   5.228   2.172   5.124
 7356SOL    HW229743   5.175   2.174   5.204
 7356SOL    HW329744   5.213   2.085   5.087
 7356SOL    MW429745   5.220   2.162   5.129
 7357SOL     OW29746   5.564   2.096   4.997
 7357SOL    HW229747   5.545   2.163   4.932
 7357SOL    HW329748   5.621   2.034   4.952
 7357SOL    MW429749   5.568   2.097   4.983
 7358SOL     OW29750   3.810   3.254   5.385
 7358SOL    HW229751   3.854   3.187   5.331
 7358SOL    HW329752   3.725   3.216   5.405
 7358SOL    MW429753   3.805   3.240   5.381
 7359SOL     OW29754   4.493   1.929   4.437
 7359SOL    HW229755   4.422   1.990   4.419
 7359SOL    HW329756   4.544   1.926   4.356
 7359SOL    MW429757   4.489   1.935   4.424
 7360SOL     OW29758   4.251   3.169   4.186
 7360SOL    HW229759   4.244   3.201   4.276
 7360SOL    HW329760   4.161   3.153   4.158
 7360SOL    MW429761   4.239   3.171   4.193
 7361SOL     OW29762   4.846   3.562   5.095
 7361SOL    HW229763   4.766   3.547   5.045
 7361SOL    HW329764   4.853   3.657   5.102
 7361SOL    MW429765   4.837   3.573   5.089
 7362SOL     OW29766   4.960   3.527   4.585
 7362SOL    HW229767   5.007   3.600   4.544
 7362SOL    HW329768   4.881   3.566   4.621
 7362SOL    MW429769   4.955   3.542   4.584
 7363SOL     OW29770   5.368   3.622   4.860
 7363SOL    HW229771   5.411   3.592   4.940
 7363SOL    HW329772   5.287   3.570   4.857
 7363SOL    MW429773   5.363   3.611   4.870
 7364SOL     OW29774   4.453   2.586   5.567
 7364SOL    HW229775   4.523   2.528   5.539
 7364SOL    HW329776   4.396   2.531   5.622
 7364SOL    MW429777   4.455   2.573   5.571
 7365SOL     OW29778   5.240   2.798   5.200
 7365SOL    HW229779   5.245   2.851   5.280
 7365SOL    HW329780   5.202   2.715   5.228
 7365SOL    MW429781   5.236   2.793   5.215
 7366SOL     OW29782   4.880   1.933   5.446
 7366SOL    HW229783   4.875   1.840   5.427
 7366SOL    HW329784   4.963   1.944   5.492
 7366SOL    MW429785   4.888   1.922   5.450
 7367SOL     OW29786   4.254   2.453   3.900
 7367SOL    HW229787   4.220   2.509   3.970
 7367SOL    HW329788   4.325   2.403   3.940
 7367SOL    MW429789   4.260   2.454   3.914
 7368SOL     OW29790   5.350   3.204   4.722
 7368SOL    HW229791   5.385   3.186   4.635
 7368SOL    HW329792   5.255   3.205   4.709
 7368SOL    MW429793   5.342   3.201   4.709
 7369SOL     OW29794   4.779   2.852   5.091
 7369SOL    HW229795   4.822   2.887   5.169
 7369SOL    HW329796   4.762   2.929   5.037
 7369SOL    MW429797   4.782   2.867   5.094
 7370SOL     OW29798   5.310   2.339   3.964
 7370SOL    HW229799   5.302   2.410   3.901
 7370SOL    HW329800   5.328   2.383   4.047
 7370SOL    MW429801   5.311   2.353   3.966
 7371SOL     OW29802   4.170   1.994   4.393
 7371SOL    HW229803   4.220   2.037   4.324
 7371SOL    HW329804   4.085   2.038   4.393
 7371SOL    MW429805   4.167   2.007   4.384
 7372SOL     OW29806   3.929   3.056   5.253
 7372SOL    HW229807   3.957   3.009   5.331
 7372SOL    HW329808   3.850   3.011   5.224
 7372SOL    MW429809   3.922   3.045   5.259
 7373SOL     OW29810   4.437   2.383   5.220
 7373SOL    HW229811   4.409   2.471   5.244
 7373SOL    HW329812   4.406   2.327   5.291
 7373SOL    MW429813   4.429   2.386   5.232
 7374SOL     OW29814   4.979   2.601   3.939
 7374SOL    HW229815   5.026   2.619   3.858
 7374SOL    HW329816   4.945   2.685   3.967
 7374SOL    MW429817   4.981   2.615   3.932
 7375SOL     OW29818   4.092   2.779   4.433
 7375SOL    HW229819   4.150   2.835   4.381
 7375SOL    HW329820   4.136   2.694   4.435
 7375SOL    MW429821   4.105   2.776   4.426
 7376SOL     OW29822   5.232   2.131   4.270
 7376SOL    HW229823   5.154   2.081   4.295
 7376SOL    HW329824   5.203   2.222   4.270
 7376SOL    MW429825   5.218   2.135   4.273
 7377SOL     OW29826   4.818   2.093   4.429
 7377SOL    HW229827   4.838   2.168   4.373
 7377SOL    HW329828   4.798   2.132   4.514
 7377SOL    MW429829   4.819   2.109   4.433
 7378SOL     OW29830   4.714   3.343   3.761
 7378SOL    HW229831   4.741   3.421   3.713
 7378SOL    HW329832   4.621   3.358   3.780
 7378SOL    MW429833   4.705   3.356   3.757
 7379SOL     OW29834   5.578   2.866   5.448
 7379SOL    HW229835   5.491   2.846   5.484
 7379SOL    HW329836   5.632   2.792   5.473
 7379SOL    MW429837   5.573   2.855   5.456
 7380SOL     OW29838   3.799   3.379   4.605
 7380SOL    HW229839   3.831   3.383   4.696
 7380SOL    HW329840   3.704   3.387   4.613
 7380SOL    MW429841   3.791   3.382   4.618
 7381SOL     OW29842   3.754   2.505   4.152
 7381SOL    HW229843   3.694   2.477   4.222
 7381SOL    HW329844   3.828   2.445   4.158
 7381SOL    MW429845   3.756   2.494   4.161
 7382SOL     OW29846   5.322   3.717   5.586
 7382SOL    HW229847   5.367   3.641   5.551
 7382SOL    HW329848   5.360   3.730   5.673
 7382SOL    MW429849   5.332   3.710   5.592
 7383SOL     OW29850   4.922   3.236   4.312
 7383SOL    HW229851   4.945   3.187   4.390
 7383SOL    HW329852   5.003   3.278   4.284
 7383SOL    MW429853   4.935   3.236   4.319
 7384SOL     OW29854   4.180   2.244   5.041
 7384SOL    HW229855   4.213   2.325   5.081
 7384SOL    HW329856   4.153   2.270   4.953
 7384SOL    MW429857   4.179   2.258   5.035
 7385SOL     OW29858   4.134   2.211   4.777
 7385SOL    HW229859   4.164   2.125   4.748
 7385SOL    HW329860   4.039   2.204   4.780
 7385SOL    MW429861   4.126   2.200   4.775
 7386SOL     OW29862   4.963   2.420   5.468
 7386SOL    HW229863   5.015   2.355   5.421
 7386SOL    HW329864   4.921   2.471   5.398
 7386SOL    MW429865   4.964   2.417   5.451
 7387SOL     OW29866   5.062   2.215   5.329
 7387SOL    HW229867   4.969   2.199   5.316
 7387SOL    HW329868   5.088   2.153   5.397
 7387SOL    MW429869   5.052   2.205   5.336
 7388SOL     OW29870   4.277   1.989   4.668
 7388SOL    HW229871   4.287   1.898   4.694
 7388SOL    HW329872   4.233   1.985   4.583
 7388SOL    MW429873   4.273   1.977   4.660
 7389SOL     OW29874   4.371   3.604   5.214
 7389SOL    HW229875   4.288   3.589   5.259
 7389SOL    HW329876   4.430   3.537   5.249
 7389SOL    MW429877   4.369   3.594   5.224
 7390SOL     OW29878   5.428   2.311   4.839
 7390SOL    HW229879   5.361   2.344   4.899
 7390SOL    HW329880   5.471   2.389   4.805
 7390SOL    MW429881   5.426   2.326   4.843
 7391SOL     OW29882   5.606   3.031   4.809
 7391SOL    HW229883   5.599   2.971   4.734
 7391SOL    HW329884   5.532   3.091   4.798
 7391SOL    MW429885   5.596   3.031   4.798
 7392SOL     OW29886   4.988   2.893   4.727
 7392SOL    HW229887   5.002   2.865   4.818
 7392SOL    HW329888   5.074   2.924   4.699
 7392SOL    MW429889   5.001   2.894   4.736
 7393SOL     OW29890   5.071   2.388   5.006
 7393SOL    HW229891   5.092   2.389   4.913
 7393SOL    HW329892   5.116   2.310   5.039
 7393SOL    MW429893   5.078   2.378   4.998
 7394SOL     OW29894   5.564   2.519   5.548
 7394SOL    HW229895   5.601   2.464   5.617
 7394SOL    HW329896   5.589   2.476   5.466
 7394SOL    MW429897   5.571   2.507   5.547
 7395SOL     OW29898   5.111   2.817   5.600
 7395SOL    HW229899   5.177   2.765   5.554
 7395SOL    HW329900   5.131   2.804   5.693
 7395SOL    MW429901   5.122   2.808   5.607
 7396SOL     OW29902   5.062   1.903   3.948
 7396SOL    HW229903   5.136   1.947   3.991
 7396SOL    HW329904   4.986   1.957   3.970
 7396SOL    MW429905   5.062   1.915   3.956
 7397SOL     OW29906   5.122   2.678   4.226
 7397SOL    HW229907   5.037   2.648   4.196
 7397SOL    HW329908   5.114   2.685   4.321
 7397SOL    MW429909   5.110   2.676   4.235
 7398SOL     OW29910   4.198   3.141   4.957
 7398SOL    HW229911   4.210   3.168   5.048
 7398SOL    HW329912   4.179   3.222   4.910
 7398SOL    MW429913   4.197   3.156   4.962
 7399SOL     OW29914   4.482   2.121   4.780
 7399SOL    HW229915   4.455   2.123   4.871
 7399SOL    HW329916   4.412   2.073   4.735
 7399SOL    MW429917   4.470   2.117   4.787
 7400SOL     OW29918   4.336   3.613   4.942
 7400SOL    HW229919   4.388   3.690   4.919
 7400SOL    HW329920   4.345   3.605   5.037
 7400SOL    MW429921   4.345   3.620   4.953
 7401SOL     OW29922   5.238   3.198   5.174
 7401SOL    HW229923   5.223   3.127   5.237
 7401SOL    HW329924   5.284   3.156   5.102
 7401SOL    MW429925   5.244   3.182   5.174
 7402SOL     OW29926   4.312   2.929   5.291
 7402SOL    HW229927   4.349   2.934   5.203
 7402SOL    HW329928   4.351   3.002   5.338
 7402SOL    MW429929   4.322   2.939   5.286
 7403SOL     OW29930   4.492   2.972   5.103
 7403SOL    HW229931   4.551   2.918   5.156
 7403SOL    HW329932   4.507   2.944   5.013
 7403SOL    MW429933   4.502   2.961   5.099
 7404SOL     OW29934   4.495   2.344   3.952
 7404SOL    HW229935   4.568   2.393   3.915
 7404SOL    HW329936   4.511   2.253   3.926
 7404SOL    MW429937   4.507   2.339   3.945
 7405SOL     OW29938   5.303   3.461   5.275
 7405SOL    HW229939   5.345   3.446   5.360
 7405SOL    HW329940   5.294   3.374   5.237
 7405SOL    MW429941   5.307   3.449   5.282
 7406SOL     OW29942   4.963   1.940   4.866
 7406SOL    HW229943   5.018   1.949   4.788
 7406SOL    HW329944   5.018   1.974   4.937
 7406SOL    MW429945   4.977   1.945   4.865
 7407SOL     OW29946   3.970   2.853   4.050
 7407SOL    HW229947   3.907   2.869   3.979
 7407SOL    HW329948   3.917   2.816   4.121
 7407SOL    MW429949   3.955   2.850   4.050
 7408SOL     OW29950   4.326   3.207   3.909
 7408SOL    HW229951   4.341   3.183   4.001
 7408SOL    HW329952   4.234   3.185   3.893
 7408SOL    MW429953   4.316   3.200   3.919
 7409SOL     OW29954   4.865   3.438   4.061
 7409SOL    HW229955   4.873   3.356   4.012
 7409SOL    HW329956   4.784   3.477   4.028
 7409SOL    MW429957   4.855   3.433   4.051
 7410SOL     OW29958   4.124   3.596   4.630
 7410SOL    HW229959   4.128   3.507   4.665
 7410SOL    HW329960   4.150   3.587   4.539
 7410SOL    MW429961   4.127   3.584   4.622
 7411SOL     OW29962   4.741   3.074   4.873
 7411SOL    HW229963   4.673   3.008   4.889
 7411SOL    HW329964   4.759   3.068   4.780
 7411SOL    MW429965   4.734   3.065   4.864
 7412SOL     OW29966   3.830   3.349   5.124
 7412SOL    HW229967   3.820   3.307   5.210
 7412SOL    HW329968   3.751   3.402   5.114
 7412SOL    MW429969   3.819   3.350   5.135
 7413SOL     OW29970   4.734   2.213   4.694
 7413SOL    HW229971   4.664   2.165   4.739
 7413SOL    HW329972   4.766   2.276   4.758
 7413SOL    MW429973   4.729   2.215   4.708
 7414SOL     OW29974   4.385   2.649   5.314
 7414SOL    HW229975   4.378   2.744   5.302
 7414SOL    HW329976   4.394   2.638   5.409
 7414SOL    MW429977   4.386   2.661   5.324
 7415SOL     OW29978   4.106   3.164   5.572
 7415SOL    HW229979   4.178   3.166   5.509
 7415SOL    HW329980   4.076   3.073   5.571
 7415SOL    MW429981   4.111   3.153   5.564
 7416SOL     OW29982   5.190   1.927   5.039
 7416SOL    HW229983   5.261   1.873   5.003
 7416SOL    HW329984   5.189   1.906   5.132
 7416SOL    MW429985   5.199   1.918   5.047
 7417SOL     OW29986   5.390   3.457   5.523
 7417SOL    HW229987   5.363   3.454   5.614
 7417SOL    HW329988   5.486   3.461   5.526
 7417SOL    MW429989   5.400   3.457   5.535
 7418SOL     OW29990   4.201   2.319   4.507
 7418SOL    HW229991   4.272   2.267   4.470
 7418SOL    HW329992   4.187   2.284   4.594
 7418SOL    MW429993   4.209   2.308   4.514
 7419SOL     OW29994   3.756   3.654   5.579
 7419SOL    HW229995   3.806   3.632   5.501
 7419SOL    HW329996   3.764   3.749   5.587
 7419SOL    MW429997   3.764   3.663   5.570
 7420SOL     OW29998   4.517   3.412   4.583
 7420SOL    HW229999   4.445   3.349   4.596
 7420SOL    HW330000   4.478   3.497   4.601
 7420SOL    MW430001   4.501   3.415   4.586
 7421SOL     OW30002   4.837   2.260   4.231
 7421SOL    HW230003   4.859   2.197   4.163
 7421SOL    HW330004   4.742   2.252   4.242
 7421SOL    MW430005   4.827   2.251   4.223
 7422SOL     OW30006   3.922   1.950   4.163
 7422SOL    HW230007   3.993   1.971   4.102
 7422SOL    HW330008   3.876   1.878   4.121
 7422SOL    MW430009   3.926   1.944   4.149
 7423SOL     OW30010   3.753   2.417   5.306
 7423SOL    HW230011   3.817   2.483   5.281
 7423SOL    HW330012   3.672   2.444   5.263
 7423SOL    MW430013   3.751   2.429   5.298
 7424SOL     OW30014   5.491   3.324   4.263
 7424SOL    HW230015   5.461   3.257   4.324
 7424SOL    HW330016   5.585   3.330   4.277
 7424SOL    MW430017   5.499   3.316   4.273
 7425SOL     OW30018   5.047   3.001   4.193
 7425SOL    HW230019   5.019   3.087   4.226
 7425SOL    HW330020   5.075   3.017   4.103
 7425SOL    MW430021   5.047   3.015   4.185
 7426SOL     OW30022   4.709   1.921   4.246
 7426SOL    HW230023   4.746   1.980   4.311
 7426SOL    HW330024   4.686   1.977   4.172
 7426SOL    MW430025   4.710   1.936   4.245
 7427SOL     OW30026   5.562   2.803   4.668
 7427SOL    HW230027   5.553   2.835   4.579
 7427SOL    HW330028   5.515   2.719   4.668
 7427SOL    MW430029   5.555   2.796   4.658
 7428SOL     OW30030   3.938   2.643   5.247
 7428SOL    HW230031   3.959   2.712   5.185
 7428SOL    HW330032   4.018   2.590   5.252
 7428SOL    MW430033   3.951   2.644   5.241
 7429SOL     OW30034   5.474   2.734   4.369
 7429SOL    HW230035   5.568   2.723   4.357
 7429SOL    HW330036   5.450   2.806   4.310
 7429SOL    MW430037   5.484   2.742   4.360
 7430SOL     OW30038   3.923   2.658   5.514
 7430SOL    HW230039   3.849   2.602   5.540
 7430SOL    HW330040   3.918   2.661   5.419
 7430SOL    MW430041   3.912   2.651   5.504
 7431SOL     OW30042   4.089   1.945   4.964
 7431SOL    HW230043   4.132   2.029   4.984
 7431SOL    HW330044   4.162   1.883   4.957
 7431SOL    MW430045   4.104   1.948   4.965
 7432SOL     OW30046   4.130   2.612   4.142
 7432SOL    HW230047   4.130   2.707   4.127
 7432SOL    HW330048   4.207   2.596   4.196
 7432SOL    MW430049   4.140   2.623   4.147
 7433SOL     OW30050   4.906   2.471   5.206
 7433SOL    HW230051   4.942   2.444   5.122
 7433SOL    HW330052   4.819   2.505   5.185
 7433SOL    MW430053   4.900   2.472   5.193
 7434SOL     OW30054   3.889   2.343   4.431
 7434SOL    HW230055   3.951   2.350   4.504
 7434SOL    HW330056   3.889   2.250   4.408
 7434SOL    MW430057   3.897   2.332   4.438
 7435SOL     OW30058   5.436   3.683   3.963
 7435SOL    HW230059   5.503   3.716   3.903
 7435SOL    HW330060   5.393   3.762   3.997
 7435SOL    MW430061   5.438   3.698   3.959
 7436SOL     OW30062   4.571   2.604   4.915
 7436SOL    HW230063   4.529   2.522   4.891
 7436SOL    HW330064   4.572   2.603   5.011
 7436SOL    MW430065   4.564   2.593   4.924
 7437SOL     OW30066   5.242   3.737   5.314
 7437SOL    HW230067   5.245   3.643   5.297
 7437SOL    HW330068   5.265   3.745   5.406
 7437SOL    MW430069   5.245   3.725   5.324
 7438SOL     OW30070   4.375   2.074   5.020
 7438SOL    HW230071   4.306   2.137   5.041
 7438SOL    HW330072   4.402   2.038   5.105
 7438SOL    MW430073   4.369   2.077   5.033
 7439SOL     OW30074   3.758   2.915   3.889
 7439SOL    HW230075   3.727   2.980   3.952
 7439SOL    HW330076   3.707   2.837   3.908
 7439SOL    MW430077   3.748   2.912   3.899
 7440SOL     OW30078   5.170   1.927   4.637
 7440SOL    HW230079   5.258   1.936   4.674
 7440SOL    HW330080   5.180   1.868   4.563
 7440SOL    MW430081   5.184   1.921   4.631
 7441SOL     OW30082   5.202   2.666   4.481
 7441SOL    HW230083   5.282   2.681   4.430
 7441SOL    HW330084   5.195   2.571   4.487
 7441SOL    MW430085   5.211   2.655   4.476
 7442SOL     OW30086   4.342   3.715   3.831
 7442SOL    HW230087   4.247   3.715   3.823
 7442SOL    HW330088   4.358   3.661   3.909
 7442SOL    MW430089   4.332   3.709   3.840
 7443SOL     OW30090   4.652   2.592   5.178
 7443SOL    HW230091   4.721   2.659   5.175
 7443SOL    HW330092   4.585   2.630   5.234
 7443SOL    MW430093   4.653   2.605   5.185
 7444SOL     OW30094   4.070   2.892   5.426
 7444SOL    HW230095   4.024   2.808   5.428
 7444SOL    HW330096   4.127   2.886   5.350
 7444SOL    MW430097   4.072   2.880   5.418
 7445SOL     OW30098   5.187   2.535   3.747
 7445SOL    HW230099   5.115   2.511   3.689
 7445SOL    HW330100   5.253   2.572   3.689
 7445SOL    MW430101   5.186   2.537   3.732
 7446SOL     OW30102   4.321   3.267   4.427
 7446SOL    HW230103   4.386   3.200   4.448
 7446SOL    HW330104   4.373   3.344   4.404
 7446SOL    MW430105   4.336   3.269   4.426
 7447SOL     OW30106   4.582   2.432   4.557
 7447SOL    HW230107   4.522   2.450   4.629
 7447SOL    HW330108   4.616   2.344   4.576
 7447SOL    MW430109   4.578   2.422   4.570
 7448SOL     OW30110   5.523   1.931   5.226
 7448SOL    HW230111   5.444   1.977   5.254
 7448SOL    HW330112   5.558   1.985   5.155
 7448SOL    MW430113   5.517   1.944   5.220
 7449SOL     OW30114   4.807   3.015   4.576
 7449SOL    HW230115   4.899   2.996   4.594
 7449SOL    HW330116   4.780   2.945   4.516
 7449SOL    MW430117   4.815   3.003   4.570
 7450SOL     OW30118   4.600   2.835   3.931
 7450SOL    HW230119   4.586   2.747   3.896
 7450SOL    HW330120   4.551   2.892   3.872
 7450SOL    MW430121   4.592   2.830   3.919
 7451SOL     OW30122   5.081   3.253   4.672
 7451SOL    HW230123   5.054   3.337   4.637
 7451SOL    HW330124   5.041   3.248   4.759
 7451SOL    MW430125   5.074   3.262   4.678
 7452SOL     OW30126   5.000   3.201   4.940
 7452SOL    HW230127   5.011   3.168   5.029
 7452SOL    HW330128   4.919   3.160   4.909
 7452SOL    MW430129   4.990   3.193   4.946
 7453SOL     OW30130   4.013   2.559   4.710
 7453SOL    HW230131   3.963   2.558   4.791
 7453SOL    HW330132   4.033   2.651   4.694
 7453SOL    MW430133   4.009   2.571   4.718
 7454SOL     OW30134   5.080   3.323   5.472
 7454SOL    HW230135   5.080   3.417   5.488
 7454SOL    HW330136   5.125   3.313   5.388
 7454SOL    MW430137   5.086   3.333   5.463
 7455SOL     OW30138   5.319   2.041   4.033
 7455SOL    HW230139   5.312   2.045   4.128
 7455SOL    HW330140   5.331   2.132   4.006
 7455SOL    MW430141   5.320   2.054   4.041
 7456SOL     OW30142   4.608   2.604   4.147
 7456SOL    HW230143   4.588   2.590   4.054
 7456SOL    HW330144   4.701   2.583   4.154
 7456SOL    MW430145   4.618   2.599   4.136
 7457SOL     OW30146   3.935   2.227   5.451
 7457SOL    HW230147   3.892   2.286   5.388
 7457SOL    HW330148   4.003   2.282   5.491
 7457SOL    MW430149   3.939   2.242   5.448
 7458SOL     OW30150   5.047   2.847   4.996
 7458SOL    HW230151   5.110   2.844   5.069
 7458SOL    HW330152   4.963   2.865   5.038
 7458SOL    MW430153   5.043   2.849   5.011
 7459SOL     OW30154   4.591   3.562   4.185
 7459SOL    HW230155   4.649   3.633   4.212
 7459SOL    HW330156   4.614   3.490   4.243
 7459SOL    MW430157   4.602   3.562   4.196
 7460SOL     OW30158   5.386   2.024   4.775
 7460SOL    HW230159   5.431   1.942   4.794
 7460SOL    HW330160   5.406   2.080   4.851
 7460SOL    MW430161   5.396   2.020   4.787
 7461SOL     OW30162   3.834   1.867   4.874
 7461SOL    HW230163   3.825   1.868   4.779
 7461SOL    HW330164   3.928   1.879   4.889
 7461SOL    MW430165   3.846   1.870   4.865
 7462SOL     OW30166   5.471   3.060   4.494
 7462SOL    HW230167   5.450   3.006   4.417
 7462SOL    HW330168   5.567   3.058   4.498
 7462SOL    MW430169   5.480   3.053   4.483
 7463SOL     OW30170   4.163   3.205   5.237
 7463SOL    HW230171   4.084   3.155   5.260
 7463SOL    HW330172   4.233   3.164   5.287
 7463SOL    MW430173   4.161   3.193   5.247
 7464SOL     OW30174   4.047   1.994   3.920
 7464SOL    HW230175   3.976   2.049   3.888
 7464SOL    HW330176   4.089   1.960   3.841
 7464SOL    MW430177   4.043   1.996   3.906
 7465SOL     OW30178   5.171   2.491   4.756
 7465SOL    HW230179   5.094   2.537   4.722
 7465SOL    HW330180   5.228   2.560   4.790
 7465SOL    MW430181   5.168   2.506   4.756
 7466SOL     OW30182   3.803   2.093   3.769
 7466SOL    HW230183   3.770   2.172   3.813
 7466SOL    HW330184   3.858   2.126   3.698
 7466SOL    MW430185   3.806   2.107   3.766
 7467SOL     OW30186   3.837   3.350   3.958
 7467SOL    HW230187   3.854   3.434   4.000
 7467SOL    HW330188   3.872   3.359   3.870
 7467SOL    MW430189   3.842   3.363   3.952
 7468SOL     OW30190   5.109   3.439   4.175
 7468SOL    HW230191   5.172   3.429   4.104
 7468SOL    HW330192   5.026   3.459   4.130
 7468SOL    MW430193   5.106   3.440   4.160
 7469SOL     OW30194   5.472   2.707   5.862
 7469SOL    HW230195   5.513   2.649   5.927
 7469SOL    HW330196   5.379   2.699   5.879
 7469SOL    MW430197   5.466   2.699   5.872
 7470SOL     OW30198   4.266   2.890   6.091
 7470SOL    HW230199   4.356   2.865   6.075
 7470SOL    HW330200   4.262   2.983   6.068
 7470SOL    MW430201   4.278   2.899   6.086
 7471SOL     OW30202   5.382   3.593   6.233
 7471SOL    HW230203   5.394   3.539   6.311
 7471SOL    HW330204   5.419   3.541   6.162
 7471SOL    MW430205   5.388   3.578   6.234
 7472SOL     OW30206   4.550   2.346   6.104
 7472SOL    HW230207   4.525   2.434   6.132
 7472SOL    HW330208   4.547   2.349   6.008
 7472SOL    MW430209   4.546   2.358   6.096
 7473SOL     OW30210   3.992   2.374   6.032
 7473SOL    HW230211   4.024   2.462   6.014
 7473SOL    HW330212   3.980   2.372   6.127
 7473SOL    MW430213   3.995   2.386   6.044
 7474SOL     OW30214   4.391   2.129   6.119
 7474SOL    HW230215   4.449   2.205   6.121
 7474SOL    HW330216   4.326   2.150   6.052
 7474SOL    MW430217   4.390   2.141   6.110
 7475SOL     OW30218   4.478   3.056   6.294
 7475SOL    HW230219   4.558   3.059   6.346
 7475SOL    HW330220   4.506   3.023   6.208
 7475SOL    MW430221   4.492   3.052   6.289
 7476SOL     OW30222   4.255   2.560   6.285
 7476SOL    HW230223   4.240   2.480   6.336
 7476SOL    HW330224   4.337   2.595   6.319
 7476SOL    MW430225   4.263   2.552   6.297
 7477SOL     OW30226   4.143   2.800   6.566
 7477SOL    HW230227   4.098   2.807   6.482
 7477SOL    HW330228   4.123   2.883   6.610
 7477SOL    MW430229   4.135   2.812   6.560
 7478SOL     OW30230   3.840   3.646   6.441
 7478SOL    HW230231   3.929   3.638   6.476
 7478SOL    HW330232   3.804   3.558   6.446
 7478SOL    MW430233   3.847   3.633   6.446
 7479SOL     OW30234   5.105   3.038   5.810
 7479SOL    HW230235   5.023   3.074   5.776
 7479SOL    HW330236   5.173   3.081   5.759
 7479SOL    MW430237   5.103   3.048   5.798
 7480SOL     OW30238   4.666   2.817   6.286
 7480SOL    HW230239   4.580   2.804   6.326
 7480SOL    HW330240   4.719   2.744   6.318
 7480SOL    MW430241   4.662   2.806   6.295
 7481SOL     OW30242   4.657   3.179   6.003
 7481SOL    HW230243   4.634   3.241   6.071
 7481SOL    HW330244   4.614   3.097   6.029
 7481SOL    MW430245   4.649   3.175   6.014
 7482SOL     OW30246   5.530   2.180   6.459
 7482SOL    HW230247   5.467   2.160   6.528
 7482SOL    HW330248   5.520   2.109   6.396
 7482SOL    MW430249   5.520   2.167   6.460
 7483SOL     OW30250   4.154   2.152   5.971
 7483SOL    HW230251   4.128   2.114   5.887
 7483SOL    HW330252   4.091   2.222   5.987
 7483SOL    MW430253   4.143   2.155   5.962
 7484SOL     OW30254   3.989   3.113   6.008
 7484SOL    HW230255   3.937   3.181   5.964
 7484SOL    HW330256   3.986   3.039   5.948
 7484SOL    MW430257   3.981   3.112   5.995
 7485SOL     OW30258   4.651   3.576   5.786
 7485SOL    HW230259   4.606   3.592   5.869
 7485SOL    HW330260   4.582   3.541   5.728
 7485SOL    MW430261   4.637   3.573   5.788
 7486SOL     OW30262   5.586   2.349   5.761
 7486SOL    HW230263   5.495   2.351   5.789
 7486SOL    HW330264   5.631   2.411   5.819
 7486SOL    MW430265   5.579   2.357   5.771
 7487SOL     OW30266   5.331   2.952   6.111
 7487SOL    HW230267   5.241   2.952   6.146
 7487SOL    HW330268   5.324   2.998   6.028
 7487SOL    MW430269   5.318   2.958   6.105
 7488SOL     OW30270   4.858   2.533   6.072
 7488SOL    HW230271   4.884   2.557   5.983
 7488SOL    HW330272   4.840   2.440   6.068
 7488SOL    MW430273   4.860   2.525   6.059
 7489SOL     OW30274   5.523   3.153   5.923
 7489SOL    HW230275   5.479   3.194   5.998
 7489SOL    HW330276   5.580   3.221   5.888
 7489SOL    MW430277   5.525   3.167   5.928
 7490SOL     OW30278   4.179   3.569   6.241
 7490SOL    HW230279   4.211   3.657   6.219
 7490SOL    HW330280   4.132   3.541   6.163
 7490SOL    MW430281   4.178   3.577   6.228
 7491SOL     OW30282   5.563   1.931   6.290
 7491SOL    HW230283   5.617   1.882   6.352
 7491SOL    HW330284   5.506   1.865   6.251
 7491SOL    MW430285   5.563   1.915   6.292
 7492SOL     OW30286   3.895   3.629   5.818
 7492SOL    HW230287   3.924   3.719   5.810
 7492SOL    HW330288   3.845   3.612   5.739
 7492SOL    MW430289   3.893   3.637   5.807
 7493SOL     OW30290   5.299   3.437   5.789
 7493SOL    HW230291   5.347   3.506   5.835
 7493SOL    HW330292   5.220   3.481   5.758
 7493SOL    MW430293   5.294   3.451   5.792
 7494SOL     OW30294   4.697   2.562   5.733
 7494SOL    HW230295   4.699   2.509   5.654
 7494SOL    HW330296   4.785   2.599   5.739
 7494SOL    MW430297   4.709   2.561   5.722
 7495SOL     OW30298   5.311   2.488   6.069
 7495SOL    HW230299   5.350   2.488   6.156
 7495SOL    HW330300   5.252   2.564   6.069
 7495SOL    MW430301   5.308   2.499   6.080
 7496SOL     OW30302   5.498   2.374   6.235
 7496SOL    HW230303   5.587   2.343   6.252
 7496SOL    HW330304   5.441   2.314   6.283
 7496SOL    MW430305   5.501   2.362   6.244
 7497SOL     OW30306   3.924   2.088   6.264
 7497SOL    HW230307   3.915   2.028   6.190
 7497SOL    HW330308   3.857   2.059   6.327
 7497SOL    MW430309   3.914   2.075   6.262
 7498SOL     OW30310   4.867   3.181   5.825
 7498SOL    HW230311   4.817   3.183   5.907
 7498SOL    HW330312   4.801   3.199   5.757
 7498SOL    MW430313   4.853   3.183   5.827
 7499SOL     OW30314   4.330   3.599   5.933
 7499SOL    HW230315   4.251   3.557   5.966
 7499SOL    HW330316   4.396   3.582   6.000
 7499SOL    MW430317   4.329   3.591   5.946
 7500SOL     OW30318   4.466   3.014   5.640
 7500SOL    HW230319   4.388   2.960   5.627
 7500SOL    HW330320   4.437   3.087   5.693
 7500SOL    MW430321   4.452   3.016   5.645
 7501SOL     OW30322   5.047   3.530   5.708
 7501SOL    HW230323   4.973   3.493   5.758
 7501SOL    HW330324   5.055   3.620   5.741
 7501SOL    MW430325   5.038   3.537   5.720
 7502SOL     OW30326   5.271   3.204   5.650
 7502SOL    HW230327   5.218   3.253   5.586
 7502SOL    HW330328   5.302   3.270   5.711
 7502SOL    MW430329   5.269   3.218   5.648
 7503SOL     OW30330   4.496   2.093   5.705
 7503SOL    HW230331   4.444   2.013   5.693
 7503SOL    HW330332   4.583   2.070   5.673
 7503SOL    MW430333   4.499   2.079   5.699
 7504SOL     OW30334   3.857   2.733   6.162
 7504SOL    HW230335   3.948   2.748   6.189
 7504SOL    HW330336   3.860   2.654   6.108
 7504SOL    MW430337   3.869   2.725   6.160
 7505SOL     OW30338   4.484   3.665   6.536
 7505SOL    HW230339   4.573   3.680   6.566
 7505SOL    HW330340   4.479   3.712   6.452
 7505SOL    MW430341   4.494   3.673   6.529
 7506SOL     OW30342   3.865   3.345   6.201
 7506SOL    HW230343   3.837   3.384   6.283
 7506SOL    HW330344   3.885   3.254   6.223
 7506SOL    MW430345   3.863   3.337   6.214
 7507SOL     OW30346   4.698   3.388   6.236
 7507SOL    HW230347   4.781   3.342   6.220
 7507SOL    HW330348   4.688   3.387   6.332
 7507SOL    MW430349   4.708   3.381   6.246
 7508SOL     OW30350   4.431   3.445   5.641
 7508SOL    HW230351   4.371   3.514   5.611
 7508SOL    HW330352   4.376   3.387   5.694
 7508SOL    MW430353   4.415   3.447   5.643
 7509SOL     OW30354   4.869   2.090   5.864
 7509SOL    HW230355   4.802   2.066   5.801
 7509SOL    HW330356   4.934   2.139   5.813
 7509SOL    MW430357   4.869   2.092   5.849
 7510SOL     OW30358   4.388   2.807   6.376
 7510SOL    HW230359   4.299   2.798   6.409
 7510SOL    HW330360   4.392   2.897   6.344
 7510SOL    MW430361   4.377   2.818   6.376
 7511SOL     OW30362   5.187   2.390   6.371
 7511SOL    HW230363   5.132   2.311   6.370
 7511SOL    HW330364   5.169   2.431   6.455
 7511SOL    MW430365   5.177   2.385   6.380
 7512SOL     OW30366   4.806   2.594   6.328
 7512SOL    HW230367   4.743   2.526   6.352
 7512SOL    HW330368   4.826   2.575   6.236
 7512SOL    MW430369   4.800   2.581   6.320
 7513SOL     OW30370   4.062   3.489   6.030
 7513SOL    HW230371   4.023   3.536   5.956
 7513SOL    HW330372   3.996   3.424   6.055
 7513SOL    MW430373   4.049   3.487   6.024
 7514SOL     OW30374   4.554   2.898   6.054
 7514SOL    HW230375   4.556   2.872   5.961
 7514SOL    HW330376   4.612   2.835   6.097
 7514SOL    MW430377   4.562   2.887   6.048
 7515SOL     OW30378   5.111   3.666   6.256
 7515SOL    HW230379   5.054   3.619   6.195
 7515SOL    HW330380   5.197   3.627   6.243
 7515SOL    MW430381   5.114   3.657   6.246
 7516SOL     OW30382   5.064   2.142   6.387
 7516SOL    HW230383   5.092   2.074   6.448
 7516SOL    HW330384   4.978   2.113   6.357
 7516SOL    MW430385   5.057   2.129   6.391
 7517SOL     OW30386   3.869   3.076   6.321
 7517SOL    HW230387   3.933   3.108   6.384
 7517SOL    HW330388   3.918   3.012   6.269
 7517SOL    MW430389   3.884   3.072   6.322
 7518SOL     OW30390   5.044   2.246   5.722
 7518SOL    HW230391   5.017   2.312   5.658
 7518SOL    HW330392   5.114   2.289   5.772
 7518SOL    MW430393   5.049   2.259   5.719
 7519SOL     OW30394   4.712   1.951   5.659
 7519SOL    HW230395   4.768   1.943   5.581
 7519SOL    HW330396   4.689   1.861   5.681
 7519SOL    MW430397   4.717   1.938   5.652
 7520SOL     OW30398   5.217   2.802   5.864
 7520SOL    HW230399   5.184   2.891   5.854
 7520SOL    HW330400   5.182   2.773   5.949
 7520SOL    MW430401   5.207   2.811   5.875
 7521SOL     OW30402   4.211   2.840   5.656
 7521SOL    HW230403   4.134   2.853   5.712
 7521SOL    HW330404   4.175   2.804   5.575
 7521SOL    MW430405   4.197   2.836   5.653
 7522SOL     OW30406   4.864   2.813   5.899
 7522SOL    HW230407   4.774   2.834   5.874
 7522SOL    HW330408   4.891   2.886   5.955
 7522SOL    MW430409   4.856   2.825   5.902
 7523SOL     OW30410   4.493   1.929   6.306
 7523SOL    HW230411   4.422   1.990   6.288
 7523SOL    HW330412   4.544   1.926   6.225
 7523SOL    MW430413   4.489   1.935   6.293
 7524SOL     OW30414   4.251   3.169   6.055
 7524SOL    HW230415   4.244   3.201   6.145
 7524SOL    HW330416   4.161   3.153   6.027
 7524SOL    MW430417   4.239   3.171   6.062
 7525SOL     OW30418   4.960   3.527   6.454
 7525SOL    HW230419   5.007   3.600   6.413
 7525SOL    HW330420   4.881   3.566   6.490
 7525SOL    MW430421   4.955   3.542   6.453
 7526SOL     OW30422   4.254   2.453   5.769
 7526SOL    HW230423   4.220   2.509   5.839
 7526SOL    HW330424   4.325   2.403   5.809
 7526SOL    MW430425   4.260   2.454   5.783
 7527SOL     OW30426   5.310   2.339   5.833
 7527SOL    HW230427   5.302   2.410   5.770
 7527SOL    HW330428   5.328   2.383   5.916
 7527SOL    MW430429   5.311   2.353   5.835
 7528SOL     OW30430   4.170   1.994   6.262
 7528SOL    HW230431   4.220   2.037   6.193
 7528SOL    HW330432   4.085   2.038   6.262
 7528SOL    MW430433   4.167   2.007   6.253
 7529SOL     OW30434   4.979   2.601   5.808
 7529SOL    HW230435   5.026   2.619   5.727
 7529SOL    HW330436   4.945   2.685   5.836
 7529SOL    MW430437   4.981   2.615   5.801
 7530SOL     OW30438   4.092   2.779   6.302
 7530SOL    HW230439   4.150   2.835   6.250
 7530SOL    HW330440   4.136   2.694   6.304
 7530SOL    MW430441   4.105   2.776   6.295
 7531SOL     OW30442   5.232   2.131   6.139
 7531SOL    HW230443   5.154   2.081   6.164
 7531SOL    HW330444   5.203   2.222   6.139
 7531SOL    MW430445   5.218   2.135   6.142
 7532SOL     OW30446   4.818   2.093   6.298
 7532SOL    HW230447   4.838   2.168   6.242
 7532SOL    HW330448   4.798   2.132   6.383
 7532SOL    MW430449   4.819   2.109   6.302
 7533SOL     OW30450   4.714   3.343   5.630
 7533SOL    HW230451   4.741   3.421   5.582
 7533SOL    HW330452   4.621   3.358   5.649
 7533SOL    MW430453   4.705   3.356   5.626
 7534SOL     OW30454   3.754   2.505   6.021
 7534SOL    HW230455   3.694   2.477   6.091
 7534SOL    HW330456   3.828   2.445   6.027
 7534SOL    MW430457   3.756   2.494   6.030
 7535SOL     OW30458   4.922   3.236   6.181
 7535SOL    HW230459   4.945   3.187   6.259
 7535SOL    HW330460   5.003   3.278   6.153
 7535SOL    MW430461   4.935   3.236   6.188
 7536SOL     OW30462   4.277   1.989   6.537
 7536SOL    HW230463   4.287   1.898   6.563
 7536SOL    HW330464   4.233   1.985   6.452
 7536SOL    MW430465   4.273   1.977   6.529
 7537SOL     OW30466   5.062   1.903   5.817
 7537SOL    HW230467   5.136   1.947   5.860
 7537SOL    HW330468   4.986   1.957   5.839
 7537SOL    MW430469   5.062   1.915   5.825
 7538SOL     OW30470   5.122   2.678   6.095
 7538SOL    HW230471   5.037   2.648   6.065
 7538SOL    HW330472   5.114   2.685   6.190
 7538SOL    MW430473   5.110   2.676   6.104
 7539SOL     OW30474   4.495   2.344   5.821
 7539SOL    HW230475   4.568   2.393   5.784
 7539SOL    HW330476   4.511   2.253   5.795
 7539SOL    MW430477   4.507   2.339   5.814
 7540SOL     OW30478   3.970   2.853   5.919
 7540SOL    HW230479   3.907   2.869   5.848
 7540SOL    HW330480   3.917   2.816   5.990
 7540SOL    MW430481   3.955   2.850   5.919
 7541SOL     OW30482   4.326   3.207   5.778
 7541SOL    HW230483   4.341   3.183   5.870
 7541SOL    HW330484   4.234   3.185   5.762
 7541SOL    MW430485   4.316   3.200   5.788
 7542SOL     OW30486   4.865   3.438   5.930
 7542SOL    HW230487   4.873   3.356   5.881
 7542SOL    HW330488   4.784   3.477   5.897
 7542SOL    MW430489   4.855   3.433   5.920
 7543SOL     OW30490   4.124   3.596   6.499
 7543SOL    HW230491   4.128   3.507   6.534
 7543SOL    HW330492   4.150   3.587   6.408
 7543SOL    MW430493   4.127   3.584   6.491
 7544SOL     OW30494   4.201   2.319   6.376
 7544SOL    HW230495   4.272   2.267   6.339
 7544SOL    HW330496   4.187   2.284   6.463
 7544SOL    MW430497   4.209   2.308   6.383
 7545SOL     OW30498   4.517   3.412   6.452
 7545SOL    HW230499   4.445   3.349   6.465
 7545SOL    HW330500   4.478   3.497   6.470
 7545SOL    MW430501   4.501   3.415   6.455
 7546SOL     OW30502   4.837   2.260   6.100
 7546SOL    HW230503   4.859   2.197   6.032
 7546SOL    HW330504   4.742   2.252   6.111
 7546SOL    MW430505   4.827   2.251   6.092
 7547SOL     OW30506   3.922   1.950   6.032
 7547SOL    HW230507   3.993   1.971   5.971
 7547SOL    HW330508   3.876   1.878   5.990
 7547SOL    MW430509   3.926   1.944   6.018
 7548SOL     OW30510   5.491   3.324   6.132
 7548SOL    HW230511   5.461   3.257   6.193
 7548SOL    HW330512   5.585   3.330   6.146
 7548SOL    MW430513   5.499   3.316   6.142
 7549SOL     OW30514   5.047   3.001   6.062
 7549SOL    HW230515   5.019   3.087   6.095
 7549SOL    HW330516   5.075   3.017   5.972
 7549SOL    MW430517   5.047   3.015   6.054
 7550SOL     OW30518   4.709   1.921   6.115
 7550SOL    HW230519   4.746   1.980   6.180
 7550SOL    HW330520   4.686   1.977   6.041
 7550SOL    MW430521   4.710   1.936   6.114
 7551SOL     OW30522   5.562   2.803   6.537
 7551SOL    HW230523   5.553   2.835   6.448
 7551SOL    HW330524   5.515   2.719   6.537
 7551SOL    MW430525   5.555   2.796   6.527
 7552SOL     OW30526   5.474   2.734   6.238
 7552SOL    HW230527   5.568   2.723   6.226
 7552SOL    HW330528   5.450   2.806   6.179
 7552SOL    MW430529   5.484   2.742   6.229
 7553SOL     OW30530   4.130   2.612   6.011
 7553SOL    HW230531   4.130   2.707   5.996
 7553SOL    HW330532   4.207   2.596   6.065
 7553SOL    MW430533   4.140   2.623   6.016
 7554SOL     OW30534   3.889   2.343   6.300
 7554SOL    HW230535   3.951   2.350   6.373
 7554SOL    HW330536   3.889   2.250   6.277
 7554SOL    MW430537   3.897   2.332   6.307
 7555SOL     OW30538   5.436   3.683   5.832
 7555SOL    HW230539   5.503   3.716   5.772
 7555SOL    HW330540   5.393   3.762   5.866
 7555SOL    MW430541   5.438   3.698   5.828
 7556SOL     OW30542   3.758   2.915   5.758
 7556SOL    HW230543   3.727   2.980   5.821
 7556SOL    HW330544   3.707   2.837   5.777
 7556SOL    MW430545   3.748   2.912   5.768
 7557SOL     OW30546   5.202   2.666   6.350
 7557SOL    HW230547   5.282   2.681   6.299
 7557SOL    HW330548   5.195   2.571   6.356
 7557SOL    MW430549   5.211   2.655   6.345
 7558SOL     OW30550   4.342   3.715   5.700
 7558SOL    HW230551   4.247   3.715   5.692
 7558SOL    HW330552   4.358   3.661   5.778
 7558SOL    MW430553   4.332   3.709   5.709
 7559SOL     OW30554   5.187   2.535   5.615
 7559SOL    HW230555   5.115   2.511   5.557
 7559SOL    HW330556   5.253   2.572   5.557
 7559SOL    MW430557   5.186   2.537   5.600
 7560SOL     OW30558   4.321   3.267   6.296
 7560SOL    HW230559   4.386   3.200   6.317
 7560SOL    HW330560   4.373   3.344   6.273
 7560SOL    MW430561   4.336   3.269   6.295
 7561SOL     OW30562   4.582   2.432   6.426
 7561SOL    HW230563   4.522   2.450   6.498
 7561SOL    HW330564   4.616   2.344   6.445
 7561SOL    MW430565   4.578   2.422   6.439
 7562SOL     OW30566   4.807   3.015   6.445
 7562SOL    HW230567   4.899   2.996   6.463
 7562SOL    HW330568   4.780   2.945   6.385
 7562SOL    MW430569   4.815   3.003   6.439
 7563SOL     OW30570   4.600   2.835   5.800
 7563SOL    HW230571   4.586   2.747   5.765
 7563SOL    HW330572   4.551   2.892   5.741
 7563SOL    MW430573   4.592   2.830   5.788
 7564SOL     OW30574   5.319   2.041   5.902
 7564SOL    HW230575   5.312   2.045   5.997
 7564SOL    HW330576   5.331   2.132   5.875
 7564SOL    MW430577   5.320   2.054   5.910
 7565SOL     OW30578   4.608   2.604   6.016
 7565SOL    HW230579   4.588   2.590   5.923
 7565SOL    HW330580   4.701   2.583   6.023
 7565SOL    MW430581   4.618   2.599   6.005
 7566SOL     OW30582   4.591   3.562   6.054
 7566SOL    HW230583   4.649   3.633   6.081
 7566SOL    HW330584   4.614   3.490   6.112
 7566SOL    MW430585   4.602   3.562   6.065
 7567SOL     OW30586   5.471   3.060   6.363
 7567SOL    HW230587   5.450   3.006   6.286
 7567SOL    HW330588   5.567   3.058   6.367
 7567SOL    MW430589   5.480   3.053   6.352
 7568SOL     OW30590   4.047   1.994   5.789
 7568SOL    HW230591   3.976   2.049   5.757
 7568SOL    HW330592   4.089   1.960   5.710
 7568SOL    MW430593   4.043   1.996   5.775
 7569SOL     OW30594   3.803   2.093   5.638
 7569SOL    HW230595   3.770   2.172   5.682
 7569SOL    HW330596   3.858   2.126   5.567
 7569SOL    MW430597   3.806   2.107   5.635
 7570SOL     OW30598   3.837   3.350   5.827
 7570SOL    HW230599   3.854   3.434   5.869
 7570SOL    HW330600   3.872   3.359   5.739
 7570SOL    MW430601   3.842   3.363   5.821
 7571SOL     OW30602   5.109   3.439   6.044
 7571SOL    HW230603   5.172   3.429   5.973
 7571SOL    HW330604   5.026   3.459   5.999
 7571SOL    MW430605   5.106   3.440   6.029
 7572SOL     OW30606   5.472   4.575   0.257
 7572SOL    HW230607   5.513   4.517   0.322
 7572SOL    HW330608   5.379   4.567   0.274
 7572SOL    MW430609   5.466   4.567   0.267
 7573SOL     OW30610   5.338   4.507   1.252
 7573SOL    HW230611   5.293   4.574   1.303
 7573SOL    HW330612   5.426   4.543   1.238
 7573SOL    MW430613   5.344   4.520   1.256
 7574SOL     OW30614   4.266   4.758   0.486
 7574SOL    HW230615   4.356   4.733   0.470
 7574SOL    HW330616   4.262   4.851   0.463
 7574SOL    MW430617   4.278   4.767   0.481
 7575SOL     OW30618   5.382   5.461   0.628
 7575SOL    HW230619   5.394   5.407   0.706
 7575SOL    HW330620   5.419   5.409   0.557
 7575SOL    MW430621   5.388   5.446   0.629
 7576SOL     OW30622   5.318   4.901   1.233
 7576SOL    HW230623   5.239   4.866   1.191
 7576SOL    HW330624   5.345   4.973   1.177
 7576SOL    MW430625   5.311   4.906   1.220
 7577SOL     OW30626   4.550   4.214   0.499
 7577SOL    HW230627   4.525   4.302   0.527
 7577SOL    HW330628   4.547   4.217   0.403
 7577SOL    MW430629   4.546   4.226   0.491
 7578SOL     OW30630   3.992   4.242   0.427
 7578SOL    HW230631   4.024   4.330   0.409
 7578SOL    HW330632   3.980   4.240   0.522
 7578SOL    MW430633   3.995   4.254   0.439
 7579SOL     OW30634   4.070   4.655   1.328
 7579SOL    HW230635   4.133   4.602   1.279
 7579SOL    HW330636   4.051   4.729   1.271
 7579SOL    MW430637   4.076   4.657   1.315
 7580SOL     OW30638   4.391   3.997   0.514
 7580SOL    HW230639   4.449   4.073   0.516
 7580SOL    HW330640   4.326   4.018   0.447
 7580SOL    MW430641   4.390   4.009   0.505
 7581SOL     OW30642   4.478   4.924   0.689
 7581SOL    HW230643   4.558   4.927   0.741
 7581SOL    HW330644   4.506   4.891   0.603
 7581SOL    MW430645   4.492   4.920   0.684
 7582SOL     OW30646   4.503   5.265   1.592
 7582SOL    HW230647   4.587   5.291   1.631
 7582SOL    HW330648   4.527   5.209   1.518
 7582SOL    MW430649   4.517   5.261   1.587
 7583SOL     OW30650   4.255   4.428   0.680
 7583SOL    HW230651   4.240   4.348   0.731
 7583SOL    HW330652   4.337   4.463   0.714
 7583SOL    MW430653   4.263   4.420   0.692
 7584SOL     OW30654   4.592   5.114   1.365
 7584SOL    HW230655   4.556   5.180   1.305
 7584SOL    HW330656   4.520   5.052   1.378
 7584SOL    MW430657   4.578   5.114   1.359
 7585SOL     OW30658   4.397   4.254   1.057
 7585SOL    HW230659   4.303   4.250   1.075
 7585SOL    HW330660   4.427   4.163   1.066
 7585SOL    MW430661   4.388   4.242   1.060
 7586SOL     OW30662   4.143   4.668   0.961
 7586SOL    HW230663   4.098   4.675   0.877
 7586SOL    HW330664   4.123   4.751   1.005
 7586SOL    MW430665   4.135   4.680   0.955
 7587SOL     OW30666   3.840   5.514   0.836
 7587SOL    HW230667   3.929   5.506   0.871
 7587SOL    HW330668   3.804   5.426   0.841
 7587SOL    MW430669   3.847   5.501   0.841
 7588SOL     OW30670   5.105   4.906   0.205
 7588SOL    HW230671   5.023   4.942   0.171
 7588SOL    HW330672   5.173   4.949   0.154
 7588SOL    MW430673   5.103   4.916   0.193
 7589SOL     OW30674   4.104   5.041   0.871
 7589SOL    HW230675   4.080   5.094   0.947
 7589SOL    HW330676   4.160   5.099   0.819
 7589SOL    MW430677   4.108   5.056   0.874
 7590SOL     OW30678   4.666   4.685   0.681
 7590SOL    HW230679   4.580   4.672   0.721
 7590SOL    HW330680   4.719   4.612   0.713
 7590SOL    MW430681   4.662   4.674   0.690
 7591SOL     OW30682   4.074   5.337   1.466
 7591SOL    HW230683   3.982   5.313   1.451
 7591SOL    HW330684   4.118   5.254   1.483
 7591SOL    MW430685   4.068   5.322   1.465
 7592SOL     OW30686   4.657   5.047   0.398
 7592SOL    HW230687   4.634   5.109   0.466
 7592SOL    HW330688   4.614   4.965   0.424
 7592SOL    MW430689   4.649   5.043   0.409
 7593SOL     OW30690   5.530   4.048   0.854
 7593SOL    HW230691   5.467   4.028   0.923
 7593SOL    HW330692   5.520   3.977   0.791
 7593SOL    MW430693   5.520   4.035   0.855
 7594SOL     OW30694   4.154   4.020   0.366
 7594SOL    HW230695   4.128   3.982   0.282
 7594SOL    HW330696   4.091   4.090   0.382
 7594SOL    MW430697   4.143   4.023   0.357
 7595SOL     OW30698   3.989   4.981   0.403
 7595SOL    HW230699   3.937   5.049   0.359
 7595SOL    HW330700   3.986   4.907   0.343
 7595SOL    MW430701   3.981   4.980   0.390
 7596SOL     OW30702   4.651   5.444   0.181
 7596SOL    HW230703   4.606   5.460   0.264
 7596SOL    HW330704   4.582   5.409   0.123
 7596SOL    MW430705   4.637   5.441   0.183
 7597SOL     OW30706   5.331   4.820   0.506
 7597SOL    HW230707   5.241   4.820   0.541
 7597SOL    HW330708   5.324   4.866   0.423
 7597SOL    MW430709   5.318   4.826   0.500
 7598SOL     OW30710   5.131   4.455   1.578
 7598SOL    HW230711   5.200   4.393   1.555
 7598SOL    HW330712   5.056   4.429   1.525
 7598SOL    MW430713   5.131   4.442   1.569
 7599SOL     OW30714   3.872   5.335   1.130
 7599SOL    HW230715   3.855   5.281   1.207
 7599SOL    HW330716   3.860   5.425   1.160
 7599SOL    MW430717   3.869   5.339   1.144
 7600SOL     OW30718   4.867   4.842   1.570
 7600SOL    HW230719   4.852   4.935   1.555
 7600SOL    HW330720   4.962   4.832   1.570
 7600SOL    MW430721   4.876   4.852   1.567
 7601SOL     OW30722   4.663   4.266   1.771
 7601SOL    HW230723   4.753   4.267   1.738
 7601SOL    HW330724   4.622   4.191   1.729
 7601SOL    MW430725   4.669   4.256   1.762
 7602SOL     OW30726   5.238   4.798   0.898
 7602SOL    HW230727   5.241   4.732   0.829
 7602SOL    HW330728   5.323   4.841   0.894
 7602SOL    MW430729   5.250   4.794   0.889
 7603SOL     OW30730   4.858   4.401   0.467
 7603SOL    HW230731   4.884   4.425   0.378
 7603SOL    HW330732   4.840   4.308   0.463
 7603SOL    MW430733   4.860   4.393   0.454
 7604SOL     OW30734   5.523   5.021   0.318
 7604SOL    HW230735   5.479   5.062   0.393
 7604SOL    HW330736   5.580   5.089   0.283
 7604SOL    MW430737   5.525   5.035   0.323
 7605SOL     OW30738   4.443   4.070   1.721
 7605SOL    HW230739   4.453   3.996   1.661
 7605SOL    HW330740   4.479   4.039   1.804
 7605SOL    MW430741   4.449   4.056   1.723
 7606SOL     OW30742   4.179   5.437   0.636
 7606SOL    HW230743   4.211   5.525   0.614
 7606SOL    HW330744   4.132   5.409   0.558
 7606SOL    MW430745   4.178   5.445   0.623
 7607SOL     OW30746   5.563   3.799   0.685
 7607SOL    HW230747   5.617   3.750   0.747
 7607SOL    HW330748   5.506   3.733   0.646
 7607SOL    MW430749   5.563   3.783   0.687
 7608SOL     OW30750   3.895   5.497   0.213
 7608SOL    HW230751   3.924   5.587   0.205
 7608SOL    HW330752   3.845   5.480   0.134
 7608SOL    MW430753   3.893   5.505   0.202
 7609SOL     OW30754   4.682   3.752   1.098
 7609SOL    HW230755   4.641   3.830   1.060
 7609SOL    HW330756   4.776   3.770   1.093
 7609SOL    MW430757   4.688   3.764   1.093
 7610SOL     OW30758   4.697   4.430   0.128
 7610SOL    HW230759   4.699   4.377   0.049
 7610SOL    HW330760   4.785   4.467   0.134
 7610SOL    MW430761   4.709   4.429   0.117
 7611SOL     OW30762   5.311   4.356   0.464
 7611SOL    HW230763   5.350   4.356   0.551
 7611SOL    HW330764   5.252   4.432   0.464
 7611SOL    MW430765   5.308   4.367   0.475
 7612SOL     OW30766   4.628   4.723   1.593
 7612SOL    HW230767   4.605   4.703   1.683
 7612SOL    HW330768   4.713   4.767   1.598
 7612SOL    MW430769   4.635   4.726   1.605
 7613SOL     OW30770   4.708   3.860   1.353
 7613SOL    HW230771   4.714   3.822   1.266
 7613SOL    HW330772   4.697   3.954   1.338
 7613SOL    MW430773   4.709   3.868   1.341
 7614SOL     OW30774   4.797   4.349   1.187
 7614SOL    HW230775   4.872   4.378   1.134
 7614SOL    HW330776   4.729   4.414   1.171
 7614SOL    MW430777   4.798   4.361   1.177
 7615SOL     OW30778   5.347   4.317   1.464
 7615SOL    HW230779   5.328   4.226   1.443
 7615SOL    HW330780   5.325   4.366   1.385
 7615SOL    MW430781   5.342   4.310   1.451
 7616SOL     OW30782   5.489   5.411   1.368
 7616SOL    HW230783   5.417   5.373   1.419
 7616SOL    HW330784   5.506   5.496   1.409
 7616SOL    MW430785   5.483   5.416   1.380
 7617SOL     OW30786   4.794   4.055   1.570
 7617SOL    HW230787   4.760   4.094   1.489
 7617SOL    HW330788   4.772   3.963   1.563
 7617SOL    MW430789   4.787   4.048   1.560
 7618SOL     OW30790   5.203   4.869   1.646
 7618SOL    HW230791   5.285   4.910   1.676
 7618SOL    HW330792   5.166   4.831   1.726
 7618SOL    MW430793   5.209   4.870   1.661
 7619SOL     OW30794   5.498   4.242   0.630
 7619SOL    HW230795   5.587   4.211   0.647
 7619SOL    HW330796   5.441   4.182   0.678
 7619SOL    MW430797   5.501   4.230   0.639
 7620SOL     OW30798   3.924   3.956   0.659
 7620SOL    HW230799   3.915   3.896   0.585
 7620SOL    HW330800   3.857   3.927   0.722
 7620SOL    MW430801   3.914   3.943   0.657
 7621SOL     OW30802   4.867   5.049   0.220
 7621SOL    HW230803   4.817   5.051   0.302
 7621SOL    HW330804   4.801   5.067   0.152
 7621SOL    MW430805   4.853   5.051   0.222
 7622SOL     OW30806   3.871   4.129   1.022
 7622SOL    HW230807   3.843   4.220   1.031
 7622SOL    HW330808   3.808   4.090   0.961
 7622SOL    MW430809   3.858   4.135   1.016
 7623SOL     OW30810   4.330   5.467   0.328
 7623SOL    HW230811   4.251   5.425   0.361
 7623SOL    HW330812   4.396   5.450   0.395
 7623SOL    MW430813   4.329   5.459   0.341
 7624SOL     OW30814   5.458   4.987   1.725
 7624SOL    HW230815   5.508   4.913   1.757
 7624SOL    HW330816   5.404   5.014   1.800
 7624SOL    MW430817   5.458   4.981   1.738
 7625SOL     OW30818   4.466   4.882   0.035
 7625SOL    HW230819   4.388   4.828   0.022
 7625SOL    HW330820   4.437   4.955   0.088
 7625SOL    MW430821   4.452   4.884   0.040
 7626SOL     OW30822   5.592   4.622   1.227
 7626SOL    HW230823   5.608   4.660   1.140
 7626SOL    HW330824   5.626   4.688   1.288
 7626SOL    MW430825   5.599   4.635   1.223
 7627SOL     OW30826   5.384   5.331   0.896
 7627SOL    HW230827   5.413   5.398   0.957
 7627SOL    HW330828   5.365   5.255   0.951
 7627SOL    MW430829   5.386   5.331   0.911
 7628SOL     OW30830   5.047   5.398   0.103
 7628SOL    HW230831   4.973   5.361   0.153
 7628SOL    HW330832   5.055   5.488   0.136
 7628SOL    MW430833   5.038   5.405   0.115
 7629SOL     OW30834   3.855   4.404   1.192
 7629SOL    HW230835   3.917   4.434   1.258
 7629SOL    HW330836   3.789   4.473   1.186
 7629SOL    MW430837   3.854   4.417   1.199
 7630SOL     OW30838   5.271   5.072   0.045
 7630SOL    HW230839   5.218   5.121  -0.019
 7630SOL    HW330840   5.302   5.138   0.106
 7630SOL    MW430841   5.269   5.086   0.043
 7631SOL     OW30842   4.496   3.961   0.100
 7631SOL    HW230843   4.444   3.881   0.088
 7631SOL    HW330844   4.583   3.938   0.068
 7631SOL    MW430845   4.499   3.947   0.094
 7632SOL     OW30846   3.950   5.513   1.644
 7632SOL    HW230847   3.924   5.581   1.582
 7632SOL    HW330848   3.998   5.450   1.592
 7632SOL    MW430849   3.952   5.513   1.630
 7633SOL     OW30850   4.002   4.832   1.151
 7633SOL    HW230851   4.055   4.907   1.176
 7633SOL    HW330852   3.921   4.870   1.117
 7633SOL    MW430853   3.998   4.847   1.151
 7634SOL     OW30854   4.542   4.736   1.139
 7634SOL    HW230855   4.570   4.645   1.151
 7634SOL    HW330856   4.471   4.730   1.075
 7634SOL    MW430857   4.535   4.724   1.134
 7635SOL     OW30858   3.857   4.601   0.557
 7635SOL    HW230859   3.948   4.616   0.584
 7635SOL    HW330860   3.860   4.522   0.503
 7635SOL    MW430861   3.869   4.593   0.555
 7636SOL     OW30862   4.093   4.309   1.811
 7636SOL    HW230863   4.040   4.389   1.818
 7636SOL    HW330864   4.163   4.321   1.876
 7636SOL    MW430865   4.095   4.322   1.819
 7637SOL     OW30866   4.479   3.859   1.518
 7637SOL    HW230867   4.456   3.767   1.520
 7637SOL    HW330868   4.565   3.861   1.475
 7637SOL    MW430869   4.486   3.849   1.514
 7638SOL     OW30870   4.163   4.383   1.557
 7638SOL    HW230871   4.243   4.433   1.543
 7638SOL    HW330872   4.154   4.377   1.652
 7638SOL    MW430873   4.172   4.389   1.567
 7639SOL     OW30874   4.484   5.533   0.931
 7639SOL    HW230875   4.573   5.548   0.961
 7639SOL    HW330876   4.479   5.580   0.847
 7639SOL    MW430877   4.494   5.541   0.924
 7640SOL     OW30878   5.140   3.908   1.828
 7640SOL    HW230879   5.196   3.835   1.854
 7640SOL    HW330880   5.110   3.946   1.910
 7640SOL    MW430881   5.144   3.903   1.841
 7641SOL     OW30882   3.865   5.213   0.596
 7641SOL    HW230883   3.837   5.252   0.678
 7641SOL    HW330884   3.885   5.122   0.618
 7641SOL    MW430885   3.863   5.205   0.609
 7642SOL     OW30886   4.698   5.256   0.631
 7642SOL    HW230887   4.781   5.210   0.615
 7642SOL    HW330888   4.688   5.255   0.727
 7642SOL    MW430889   4.708   5.249   0.641
 7643SOL     OW30890   5.530   4.401   0.945
 7643SOL    HW230891   5.619   4.431   0.927
 7643SOL    HW330892   5.510   4.341   0.874
 7643SOL    MW430893   5.539   4.398   0.934
 7644SOL     OW30894   5.381   4.580   1.825
 7644SOL    HW230895   5.436   4.504   1.806
 7644SOL    HW330896   5.383   4.588   1.920
 7644SOL    MW430897   5.389   4.571   1.833
 7645SOL     OW30898   4.431   5.313   0.036
 7645SOL    HW230899   4.371   5.382   0.006
 7645SOL    HW330900   4.376   5.255   0.089
 7645SOL    MW430901   4.415   5.315   0.038
 7646SOL     OW30902   4.869   3.958   0.259
 7646SOL    HW230903   4.802   3.934   0.196
 7646SOL    HW330904   4.934   4.007   0.208
 7646SOL    MW430905   4.869   3.960   0.244
 7647SOL     OW30906   4.676   4.142   1.344
 7647SOL    HW230907   4.595   4.183   1.372
 7647SOL    HW330908   4.723   4.210   1.296
 7647SOL    MW430909   4.671   4.157   1.342
 7648SOL     OW30910   4.936   4.480   0.967
 7648SOL    HW230911   4.949   4.574   0.977
 7648SOL    HW330912   4.897   4.470   0.881
 7648SOL    MW430913   4.932   4.491   0.957
 7649SOL     OW30914   4.388   4.675   0.771
 7649SOL    HW230915   4.299   4.666   0.804
 7649SOL    HW330916   4.392   4.765   0.739
 7649SOL    MW430917   4.377   4.686   0.771
 7650SOL     OW30918   5.187   4.258   0.766
 7650SOL    HW230919   5.132   4.179   0.765
 7650SOL    HW330920   5.169   4.299   0.850
 7650SOL    MW430921   5.177   4.253   0.775
 7651SOL     OW30922   4.158   3.945   1.583
 7651SOL    HW230923   4.079   3.963   1.635
 7651SOL    HW330924   4.153   4.007   1.510
 7651SOL    MW430925   4.148   3.955   1.580
 7652SOL     OW30926   4.806   4.462   0.723
 7652SOL    HW230927   4.743   4.394   0.747
 7652SOL    HW330928   4.826   4.443   0.631
 7652SOL    MW430929   4.800   4.449   0.715
 7653SOL     OW30930   4.062   5.357   0.425
 7653SOL    HW230931   4.023   5.404   0.351
 7653SOL    HW330932   3.996   5.292   0.450
 7653SOL    MW430933   4.049   5.355   0.419
 7654SOL     OW30934   4.554   4.766   0.449
 7654SOL    HW230935   4.556   4.740   0.356
 7654SOL    HW330936   4.612   4.703   0.492
 7654SOL    MW430937   4.562   4.755   0.443
 7655SOL     OW30938   5.107   5.326   1.221
 7655SOL    HW230939   5.032   5.372   1.259
 7655SOL    HW330940   5.089   5.233   1.238
 7655SOL    MW430941   5.096   5.320   1.229
 7656SOL     OW30942   5.111   5.534   0.651
 7656SOL    HW230943   5.054   5.487   0.590
 7656SOL    HW330944   5.197   5.495   0.638
 7656SOL    MW430945   5.114   5.525   0.641
 7657SOL     OW30946   5.064   4.010   0.782
 7657SOL    HW230947   5.092   3.942   0.843
 7657SOL    HW330948   4.978   3.981   0.752
 7657SOL    MW430949   5.057   3.997   0.786
 7658SOL     OW30950   3.869   4.944   0.716
 7658SOL    HW230951   3.933   4.976   0.779
 7658SOL    HW330952   3.918   4.880   0.664
 7658SOL    MW430953   3.884   4.940   0.717
 7659SOL     OW30954   4.369   5.020   1.698
 7659SOL    HW230955   4.417   5.103   1.685
 7659SOL    HW330956   4.426   4.968   1.754
 7659SOL    MW430957   4.383   5.024   1.704
 7660SOL     OW30958   3.945   5.262   1.838
 7660SOL    HW230959   4.001   5.186   1.853
 7660SOL    HW330960   3.894   5.240   1.760
 7660SOL    MW430961   3.945   5.249   1.829
 7661SOL     OW30962   5.044   4.114   0.117
 7661SOL    HW230963   5.017   4.180   0.053
 7661SOL    HW330964   5.114   4.157   0.167
 7661SOL    MW430965   5.049   4.127   0.114
 7662SOL     OW30966   4.712   3.819   0.054
 7662SOL    HW230967   4.768   3.811  -0.024
 7662SOL    HW330968   4.689   3.729   0.076
 7662SOL    MW430969   4.717   3.806   0.047
 7663SOL     OW30970   5.217   4.670   0.259
 7663SOL    HW230971   5.184   4.759   0.249
 7663SOL    HW330972   5.182   4.641   0.344
 7663SOL    MW430973   5.207   4.679   0.270
 7664SOL     OW30974   4.123   3.767   1.789
 7664SOL    HW230975   4.051   3.732   1.737
 7664SOL    HW330976   4.181   3.808   1.724
 7664SOL    MW430977   4.121   3.768   1.774
 7665SOL     OW30978   4.147   5.257   1.088
 7665SOL    HW230979   4.192   5.319   1.145
 7665SOL    HW330980   4.054   5.276   1.101
 7665SOL    MW430981   4.140   5.267   1.095
 7666SOL     OW30982   5.587   4.786   1.442
 7666SOL    HW230983   5.502   4.799   1.401
 7666SOL    HW330984   5.567   4.750   1.529
 7666SOL    MW430985   5.574   4.782   1.447
 7667SOL     OW30986   4.569   5.325   1.196
 7667SOL    HW230987   4.593   5.314   1.105
 7667SOL    HW330988   4.492   5.382   1.194
 7667SOL    MW430989   4.561   5.330   1.185
 7668SOL     OW30990   4.211   4.708   0.051
 7668SOL    HW230991   4.134   4.721   0.107
 7668SOL    HW330992   4.175   4.672  -0.030
 7668SOL    MW430993   4.197   4.704   0.048
 7669SOL     OW30994   4.864   4.681   0.294
 7669SOL    HW230995   4.774   4.702   0.269
 7669SOL    HW330996   4.891   4.754   0.350
 7669SOL    MW430997   4.856   4.693   0.297
 7670SOL     OW30998   4.364   5.030   0.986
 7670SOL    HW230999   4.357   5.009   1.080
 7670SOL    HW331000   4.282   4.998   0.949
 7670SOL    MW431001   4.352   5.024   0.993
 7671SOL     OW31002   5.228   4.040   1.388
 7671SOL    HW231003   5.175   4.042   1.468
 7671SOL    HW331004   5.213   3.953   1.351
 7671SOL    MW431005   5.220   4.030   1.393
 7672SOL     OW31006   5.564   3.964   1.261
 7672SOL    HW231007   5.545   4.031   1.196
 7672SOL    HW331008   5.621   3.902   1.216
 7672SOL    MW431009   5.568   3.965   1.247
 7673SOL     OW31010   3.810   5.122   1.649
 7673SOL    HW231011   3.854   5.055   1.595
 7673SOL    HW331012   3.725   5.084   1.669
 7673SOL    MW431013   3.805   5.108   1.645
 7674SOL     OW31014   4.493   3.797   0.701
 7674SOL    HW231015   4.422   3.858   0.683
 7674SOL    HW331016   4.544   3.794   0.620
 7674SOL    MW431017   4.489   3.803   0.688
 7675SOL     OW31018   4.251   5.037   0.450
 7675SOL    HW231019   4.244   5.069   0.540
 7675SOL    HW331020   4.161   5.021   0.422
 7675SOL    MW431021   4.239   5.039   0.457
 7676SOL     OW31022   4.960   5.395   0.849
 7676SOL    HW231023   5.007   5.468   0.808
 7676SOL    HW331024   4.881   5.434   0.885
 7676SOL    MW431025   4.955   5.410   0.848
 7677SOL     OW31026   5.368   5.490   1.124
 7677SOL    HW231027   5.411   5.460   1.204
 7677SOL    HW331028   5.287   5.438   1.121
 7677SOL    MW431029   5.363   5.479   1.134
 7678SOL     OW31030   4.453   4.454   1.831
 7678SOL    HW231031   4.523   4.396   1.803
 7678SOL    HW331032   4.396   4.399   1.886
 7678SOL    MW431033   4.455   4.441   1.835
 7679SOL     OW31034   5.240   4.666   1.464
 7679SOL    HW231035   5.245   4.719   1.544
 7679SOL    HW331036   5.202   4.583   1.492
 7679SOL    MW431037   5.236   4.661   1.479
 7680SOL     OW31038   4.880   3.801   1.710
 7680SOL    HW231039   4.875   3.708   1.691
 7680SOL    HW331040   4.963   3.812   1.756
 7680SOL    MW431041   4.888   3.790   1.714
 7681SOL     OW31042   4.254   4.321   0.164
 7681SOL    HW231043   4.220   4.377   0.234
 7681SOL    HW331044   4.325   4.271   0.204
 7681SOL    MW431045   4.260   4.322   0.178
 7682SOL     OW31046   5.350   5.072   0.986
 7682SOL    HW231047   5.385   5.054   0.899
 7682SOL    HW331048   5.255   5.073   0.973
 7682SOL    MW431049   5.342   5.069   0.973
 7683SOL     OW31050   4.779   4.720   1.355
 7683SOL    HW231051   4.822   4.755   1.433
 7683SOL    HW331052   4.762   4.797   1.301
 7683SOL    MW431053   4.782   4.735   1.358
 7684SOL     OW31054   5.310   4.207   0.228
 7684SOL    HW231055   5.302   4.278   0.165
 7684SOL    HW331056   5.328   4.251   0.311
 7684SOL    MW431057   5.311   4.221   0.230
 7685SOL     OW31058   4.170   3.862   0.657
 7685SOL    HW231059   4.220   3.905   0.588
 7685SOL    HW331060   4.085   3.906   0.657
 7685SOL    MW431061   4.167   3.875   0.648
 7686SOL     OW31062   3.929   4.924   1.517
 7686SOL    HW231063   3.957   4.877   1.595
 7686SOL    HW331064   3.850   4.879   1.488
 7686SOL    MW431065   3.922   4.913   1.523
 7687SOL     OW31066   4.437   4.251   1.484
 7687SOL    HW231067   4.409   4.339   1.508
 7687SOL    HW331068   4.406   4.195   1.555
 7687SOL    MW431069   4.429   4.254   1.496
 7688SOL     OW31070   4.979   4.469   0.203
 7688SOL    HW231071   5.026   4.487   0.122
 7688SOL    HW331072   4.945   4.553   0.231
 7688SOL    MW431073   4.981   4.483   0.196
 7689SOL     OW31074   4.092   4.647   0.697
 7689SOL    HW231075   4.150   4.703   0.645
 7689SOL    HW331076   4.136   4.562   0.699
 7689SOL    MW431077   4.105   4.644   0.690
 7690SOL     OW31078   5.232   3.999   0.534
 7690SOL    HW231079   5.154   3.949   0.559
 7690SOL    HW331080   5.203   4.090   0.534
 7690SOL    MW431081   5.218   4.003   0.537
 7691SOL     OW31082   4.818   3.961   0.693
 7691SOL    HW231083   4.838   4.036   0.637
 7691SOL    HW331084   4.798   4.000   0.778
 7691SOL    MW431085   4.819   3.977   0.697
 7692SOL     OW31086   4.714   5.211   0.025
 7692SOL    HW231087   4.741   5.289  -0.023
 7692SOL    HW331088   4.621   5.226   0.044
 7692SOL    MW431089   4.705   5.224   0.021
 7693SOL     OW31090   5.578   4.734   1.712
 7693SOL    HW231091   5.491   4.714   1.748
 7693SOL    HW331092   5.632   4.660   1.737
 7693SOL    MW431093   5.573   4.723   1.720
 7694SOL     OW31094   3.799   5.247   0.869
 7694SOL    HW231095   3.831   5.251   0.960
 7694SOL    HW331096   3.704   5.255   0.877
 7694SOL    MW431097   3.791   5.250   0.882
 7695SOL     OW31098   3.754   4.373   0.416
 7695SOL    HW231099   3.694   4.345   0.486
 7695SOL    HW331100   3.828   4.313   0.422
 7695SOL    MW431101   3.756   4.362   0.425
 7696SOL     OW31102   4.922   5.104   0.576
 7696SOL    HW231103   4.945   5.055   0.654
 7696SOL    HW331104   5.003   5.146   0.548
 7696SOL    MW431105   4.935   5.104   0.583
 7697SOL     OW31106   4.180   4.112   1.305
 7697SOL    HW231107   4.213   4.193   1.345
 7697SOL    HW331108   4.153   4.138   1.217
 7697SOL    MW431109   4.179   4.126   1.299
 7698SOL     OW31110   4.134   4.079   1.041
 7698SOL    HW231111   4.164   3.993   1.012
 7698SOL    HW331112   4.039   4.072   1.044
 7698SOL    MW431113   4.126   4.068   1.039
 7699SOL     OW31114   4.963   4.288   1.732
 7699SOL    HW231115   5.015   4.223   1.685
 7699SOL    HW331116   4.921   4.339   1.662
 7699SOL    MW431117   4.964   4.285   1.715
 7700SOL     OW31118   5.062   4.083   1.593
 7700SOL    HW231119   4.969   4.067   1.580
 7700SOL    HW331120   5.088   4.021   1.661
 7700SOL    MW431121   5.052   4.073   1.600
 7701SOL     OW31122   4.277   3.857   0.932
 7701SOL    HW231123   4.287   3.766   0.958
 7701SOL    HW331124   4.233   3.853   0.847
 7701SOL    MW431125   4.273   3.845   0.924
 7702SOL     OW31126   5.428   4.179   1.103
 7702SOL    HW231127   5.361   4.212   1.163
 7702SOL    HW331128   5.471   4.257   1.069
 7702SOL    MW431129   5.426   4.194   1.107
 7703SOL     OW31130   5.606   4.899   1.073
 7703SOL    HW231131   5.599   4.839   0.998
 7703SOL    HW331132   5.532   4.959   1.062
 7703SOL    MW431133   5.596   4.899   1.062
 7704SOL     OW31134   4.988   4.761   0.991
 7704SOL    HW231135   5.002   4.733   1.082
 7704SOL    HW331136   5.074   4.792   0.963
 7704SOL    MW431137   5.001   4.762   1.000
 7705SOL     OW31138   5.071   4.256   1.270
 7705SOL    HW231139   5.092   4.257   1.177
 7705SOL    HW331140   5.116   4.178   1.303
 7705SOL    MW431141   5.078   4.246   1.262
 7706SOL     OW31142   5.564   4.387   1.812
 7706SOL    HW231143   5.601   4.332   1.881
 7706SOL    HW331144   5.589   4.344   1.730
 7706SOL    MW431145   5.571   4.375   1.811
 7707SOL     OW31146   5.111   4.685   1.863
 7707SOL    HW231147   5.177   4.633   1.817
 7707SOL    HW331148   5.131   4.672   1.956
 7707SOL    MW431149   5.122   4.676   1.870
 7708SOL     OW31150   5.062   3.771   0.212
 7708SOL    HW231151   5.136   3.815   0.255
 7708SOL    HW331152   4.986   3.825   0.234
 7708SOL    MW431153   5.062   3.783   0.220
 7709SOL     OW31154   5.122   4.546   0.490
 7709SOL    HW231155   5.037   4.516   0.460
 7709SOL    HW331156   5.114   4.553   0.585
 7709SOL    MW431157   5.110   4.544   0.499
 7710SOL     OW31158   4.198   5.009   1.221
 7710SOL    HW231159   4.210   5.036   1.312
 7710SOL    HW331160   4.179   5.090   1.174
 7710SOL    MW431161   4.197   5.024   1.226
 7711SOL     OW31162   4.482   3.989   1.044
 7711SOL    HW231163   4.455   3.991   1.135
 7711SOL    HW331164   4.412   3.941   0.999
 7711SOL    MW431165   4.470   3.985   1.051
 7712SOL     OW31166   4.336   5.481   1.206
 7712SOL    HW231167   4.388   5.558   1.183
 7712SOL    HW331168   4.345   5.473   1.301
 7712SOL    MW431169   4.345   5.488   1.217
 7713SOL     OW31170   5.238   5.066   1.438
 7713SOL    HW231171   5.223   4.995   1.501
 7713SOL    HW331172   5.284   5.024   1.366
 7713SOL    MW431173   5.244   5.050   1.438
 7714SOL     OW31174   4.312   4.797   1.555
 7714SOL    HW231175   4.349   4.802   1.467
 7714SOL    HW331176   4.351   4.870   1.602
 7714SOL    MW431177   4.322   4.807   1.550
 7715SOL     OW31178   4.492   4.840   1.367
 7715SOL    HW231179   4.551   4.786   1.420
 7715SOL    HW331180   4.507   4.812   1.277
 7715SOL    MW431181   4.502   4.829   1.363
 7716SOL     OW31182   4.495   4.212   0.216
 7716SOL    HW231183   4.568   4.261   0.179
 7716SOL    HW331184   4.511   4.121   0.190
 7716SOL    MW431185   4.507   4.207   0.209
 7717SOL     OW31186   5.303   5.329   1.539
 7717SOL    HW231187   5.345   5.314   1.624
 7717SOL    HW331188   5.294   5.242   1.501
 7717SOL    MW431189   5.307   5.317   1.546
 7718SOL     OW31190   4.963   3.808   1.130
 7718SOL    HW231191   5.018   3.817   1.052
 7718SOL    HW331192   5.018   3.842   1.201
 7718SOL    MW431193   4.977   3.813   1.129
 7719SOL     OW31194   3.970   4.721   0.314
 7719SOL    HW231195   3.907   4.737   0.243
 7719SOL    HW331196   3.917   4.684   0.385
 7719SOL    MW431197   3.955   4.718   0.314
 7720SOL     OW31198   4.326   5.075   0.173
 7720SOL    HW231199   4.341   5.051   0.265
 7720SOL    HW331200   4.234   5.053   0.157
 7720SOL    MW431201   4.316   5.068   0.183
 7721SOL     OW31202   4.865   5.306   0.325
 7721SOL    HW231203   4.873   5.224   0.276
 7721SOL    HW331204   4.784   5.345   0.292
 7721SOL    MW431205   4.855   5.301   0.315
 7722SOL     OW31206   4.124   5.464   0.894
 7722SOL    HW231207   4.128   5.375   0.929
 7722SOL    HW331208   4.150   5.455   0.803
 7722SOL    MW431209   4.127   5.452   0.886
 7723SOL     OW31210   4.741   4.942   1.137
 7723SOL    HW231211   4.673   4.876   1.153
 7723SOL    HW331212   4.759   4.936   1.044
 7723SOL    MW431213   4.734   4.933   1.128
 7724SOL     OW31214   3.830   5.217   1.388
 7724SOL    HW231215   3.820   5.175   1.474
 7724SOL    HW331216   3.751   5.270   1.378
 7724SOL    MW431217   3.819   5.218   1.399
 7725SOL     OW31218   4.734   4.081   0.958
 7725SOL    HW231219   4.664   4.033   1.003
 7725SOL    HW331220   4.766   4.144   1.022
 7725SOL    MW431221   4.729   4.083   0.972
 7726SOL     OW31222   4.385   4.517   1.578
 7726SOL    HW231223   4.378   4.612   1.566
 7726SOL    HW331224   4.394   4.506   1.673
 7726SOL    MW431225   4.386   4.529   1.588
 7727SOL     OW31226   4.106   5.032   1.836
 7727SOL    HW231227   4.178   5.034   1.773
 7727SOL    HW331228   4.076   4.941   1.835
 7727SOL    MW431229   4.111   5.021   1.828
 7728SOL     OW31230   5.190   3.795   1.303
 7728SOL    HW231231   5.261   3.741   1.267
 7728SOL    HW331232   5.189   3.774   1.396
 7728SOL    MW431233   5.199   3.786   1.311
 7729SOL     OW31234   5.390   5.325   1.787
 7729SOL    HW231235   5.363   5.322   1.878
 7729SOL    HW331236   5.486   5.329   1.790
 7729SOL    MW431237   5.400   5.325   1.799
 7730SOL     OW31238   4.201   4.187   0.771
 7730SOL    HW231239   4.272   4.135   0.734
 7730SOL    HW331240   4.187   4.152   0.858
 7730SOL    MW431241   4.209   4.176   0.778
 7731SOL     OW31242   3.756   5.522   1.843
 7731SOL    HW231243   3.806   5.500   1.765
 7731SOL    HW331244   3.764   5.617   1.851
 7731SOL    MW431245   3.764   5.531   1.834
 7732SOL     OW31246   4.517   5.280   0.847
 7732SOL    HW231247   4.445   5.217   0.860
 7732SOL    HW331248   4.478   5.365   0.865
 7732SOL    MW431249   4.501   5.283   0.850
 7733SOL     OW31250   4.837   4.128   0.495
 7733SOL    HW231251   4.859   4.065   0.427
 7733SOL    HW331252   4.742   4.120   0.506
 7733SOL    MW431253   4.827   4.119   0.487
 7734SOL     OW31254   3.922   3.818   0.427
 7734SOL    HW231255   3.993   3.839   0.366
 7734SOL    HW331256   3.876   3.746   0.385
 7734SOL    MW431257   3.926   3.812   0.413
 7735SOL     OW31258   3.753   4.285   1.570
 7735SOL    HW231259   3.817   4.351   1.545
 7735SOL    HW331260   3.672   4.312   1.527
 7735SOL    MW431261   3.751   4.297   1.562
 7736SOL     OW31262   5.491   5.192   0.527
 7736SOL    HW231263   5.461   5.125   0.588
 7736SOL    HW331264   5.585   5.198   0.541
 7736SOL    MW431265   5.499   5.184   0.537
 7737SOL     OW31266   5.047   4.869   0.457
 7737SOL    HW231267   5.019   4.955   0.490
 7737SOL    HW331268   5.075   4.885   0.367
 7737SOL    MW431269   5.047   4.883   0.449
 7738SOL     OW31270   4.709   3.789   0.510
 7738SOL    HW231271   4.746   3.848   0.575
 7738SOL    HW331272   4.686   3.845   0.436
 7738SOL    MW431273   4.710   3.804   0.509
 7739SOL     OW31274   5.562   4.671   0.932
 7739SOL    HW231275   5.553   4.703   0.843
 7739SOL    HW331276   5.515   4.587   0.932
 7739SOL    MW431277   5.555   4.664   0.922
 7740SOL     OW31278   3.938   4.511   1.511
 7740SOL    HW231279   3.959   4.580   1.449
 7740SOL    HW331280   4.018   4.458   1.516
 7740SOL    MW431281   3.951   4.512   1.505
 7741SOL     OW31282   5.474   4.602   0.633
 7741SOL    HW231283   5.568   4.591   0.621
 7741SOL    HW331284   5.450   4.674   0.574
 7741SOL    MW431285   5.484   4.610   0.624
 7742SOL     OW31286   3.923   4.526   1.778
 7742SOL    HW231287   3.849   4.470   1.804
 7742SOL    HW331288   3.918   4.529   1.683
 7742SOL    MW431289   3.912   4.519   1.768
 7743SOL     OW31290   4.089   3.813   1.228
 7743SOL    HW231291   4.132   3.897   1.248
 7743SOL    HW331292   4.162   3.751   1.221
 7743SOL    MW431293   4.104   3.816   1.229
 7744SOL     OW31294   4.130   4.480   0.406
 7744SOL    HW231295   4.130   4.575   0.391
 7744SOL    HW331296   4.207   4.464   0.460
 7744SOL    MW431297   4.140   4.491   0.411
 7745SOL     OW31298   4.906   4.339   1.470
 7745SOL    HW231299   4.942   4.312   1.386
 7745SOL    HW331300   4.819   4.373   1.449
 7745SOL    MW431301   4.900   4.340   1.457
 7746SOL     OW31302   3.889   4.211   0.695
 7746SOL    HW231303   3.951   4.218   0.768
 7746SOL    HW331304   3.889   4.118   0.672
 7746SOL    MW431305   3.897   4.200   0.702
 7747SOL     OW31306   4.571   4.472   1.179
 7747SOL    HW231307   4.529   4.390   1.155
 7747SOL    HW331308   4.572   4.471   1.275
 7747SOL    MW431309   4.564   4.461   1.188
 7748SOL     OW31310   4.375   3.942   1.284
 7748SOL    HW231311   4.306   4.005   1.305
 7748SOL    HW331312   4.402   3.906   1.369
 7748SOL    MW431313   4.369   3.945   1.297
 7749SOL     OW31314   3.758   4.783   0.153
 7749SOL    HW231315   3.727   4.848   0.216
 7749SOL    HW331316   3.707   4.705   0.172
 7749SOL    MW431317   3.748   4.780   0.163
 7750SOL     OW31318   5.170   3.795   0.901
 7750SOL    HW231319   5.258   3.804   0.938
 7750SOL    HW331320   5.180   3.736   0.827
 7750SOL    MW431321   5.184   3.789   0.895
 7751SOL     OW31322   5.202   4.534   0.745
 7751SOL    HW231323   5.282   4.549   0.694
 7751SOL    HW331324   5.195   4.439   0.751
 7751SOL    MW431325   5.211   4.523   0.740
 7752SOL     OW31326   4.342   5.583   0.095
 7752SOL    HW231327   4.247   5.583   0.087
 7752SOL    HW331328   4.358   5.529   0.173
 7752SOL    MW431329   4.332   5.577   0.104
 7753SOL     OW31330   4.652   4.460   1.442
 7753SOL    HW231331   4.721   4.527   1.439
 7753SOL    HW331332   4.585   4.498   1.498
 7753SOL    MW431333   4.653   4.473   1.449
 7754SOL     OW31334   4.070   4.760   1.690
 7754SOL    HW231335   4.024   4.676   1.692
 7754SOL    HW331336   4.127   4.754   1.614
 7754SOL    MW431337   4.072   4.748   1.682
 7755SOL     OW31338   5.187   4.403   0.011
 7755SOL    HW231339   5.115   4.379  -0.047
 7755SOL    HW331340   5.253   4.440  -0.047
 7755SOL    MW431341   5.186   4.405  -0.004
 7756SOL     OW31342   4.321   5.135   0.691
 7756SOL    HW231343   4.386   5.068   0.712
 7756SOL    HW331344   4.373   5.212   0.668
 7756SOL    MW431345   4.336   5.137   0.690
 7757SOL     OW31346   4.582   4.300   0.821
 7757SOL    HW231347   4.522   4.318   0.893
 7757SOL    HW331348   4.616   4.212   0.840
 7757SOL    MW431349   4.578   4.290   0.834
 7758SOL     OW31350   5.523   3.799   1.490
 7758SOL    HW231351   5.444   3.845   1.518
 7758SOL    HW331352   5.558   3.853   1.419
 7758SOL    MW431353   5.517   3.812   1.484
 7759SOL     OW31354   4.807   4.883   0.840
 7759SOL    HW231355   4.899   4.864   0.858
 7759SOL    HW331356   4.780   4.813   0.780
 7759SOL    MW431357   4.815   4.871   0.834
 7760SOL     OW31358   4.600   4.703   0.195
 7760SOL    HW231359   4.586   4.615   0.160
 7760SOL    HW331360   4.551   4.760   0.136
 7760SOL    MW431361   4.592   4.698   0.183
 7761SOL     OW31362   5.081   5.121   0.936
 7761SOL    HW231363   5.054   5.205   0.901
 7761SOL    HW331364   5.041   5.116   1.023
 7761SOL    MW431365   5.074   5.130   0.942
 7762SOL     OW31366   5.000   5.069   1.204
 7762SOL    HW231367   5.011   5.036   1.293
 7762SOL    HW331368   4.919   5.028   1.173
 7762SOL    MW431369   4.990   5.061   1.210
 7763SOL     OW31370   4.013   4.427   0.974
 7763SOL    HW231371   3.963   4.426   1.055
 7763SOL    HW331372   4.033   4.519   0.958
 7763SOL    MW431373   4.009   4.439   0.982
 7764SOL     OW31374   5.080   5.191   1.736
 7764SOL    HW231375   5.080   5.285   1.752
 7764SOL    HW331376   5.125   5.181   1.652
 7764SOL    MW431377   5.086   5.201   1.727
 7765SOL     OW31378   5.319   3.909   0.297
 7765SOL    HW231379   5.312   3.913   0.392
 7765SOL    HW331380   5.331   4.000   0.270
 7765SOL    MW431381   5.320   3.922   0.305
 7766SOL     OW31382   4.608   4.472   0.411
 7766SOL    HW231383   4.588   4.458   0.318
 7766SOL    HW331384   4.701   4.451   0.418
 7766SOL    MW431385   4.618   4.467   0.400
 7767SOL     OW31386   3.935   4.095   1.715
 7767SOL    HW231387   3.892   4.154   1.652
 7767SOL    HW331388   4.003   4.150   1.755
 7767SOL    MW431389   3.939   4.110   1.712
 7768SOL     OW31390   5.047   4.715   1.260
 7768SOL    HW231391   5.110   4.712   1.333
 7768SOL    HW331392   4.963   4.733   1.302
 7768SOL    MW431393   5.043   4.717   1.275
 7769SOL     OW31394   4.591   5.430   0.449
 7769SOL    HW231395   4.649   5.501   0.476
 7769SOL    HW331396   4.614   5.358   0.507
 7769SOL    MW431397   4.602   5.430   0.460
 7770SOL     OW31398   5.386   3.892   1.039
 7770SOL    HW231399   5.431   3.810   1.058
 7770SOL    HW331400   5.406   3.948   1.115
 7770SOL    MW431401   5.396   3.888   1.051
 7771SOL     OW31402   3.834   3.735   1.138
 7771SOL    HW231403   3.825   3.736   1.043
 7771SOL    HW331404   3.928   3.747   1.153
 7771SOL    MW431405   3.846   3.738   1.129
 7772SOL     OW31406   5.471   4.928   0.758
 7772SOL    HW231407   5.450   4.874   0.681
 7772SOL    HW331408   5.567   4.926   0.762
 7772SOL    MW431409   5.480   4.921   0.747
 7773SOL     OW31410   4.163   5.073   1.501
 7773SOL    HW231411   4.084   5.023   1.524
 7773SOL    HW331412   4.233   5.032   1.551
 7773SOL    MW431413   4.161   5.061   1.511
 7774SOL     OW31414   4.047   3.862   0.184
 7774SOL    HW231415   3.976   3.917   0.152
 7774SOL    HW331416   4.089   3.828   0.105
 7774SOL    MW431417   4.043   3.864   0.170
 7775SOL     OW31418   5.171   4.359   1.020
 7775SOL    HW231419   5.094   4.405   0.986
 7775SOL    HW331420   5.228   4.428   1.054
 7775SOL    MW431421   5.168   4.374   1.020
 7776SOL     OW31422   3.803   3.961   0.033
 7776SOL    HW231423   3.770   4.040   0.077
 7776SOL    HW331424   3.858   3.994  -0.038
 7776SOL    MW431425   3.806   3.975   0.030
 7777SOL     OW31426   3.837   5.218   0.222
 7777SOL    HW231427   3.854   5.302   0.264
 7777SOL    HW331428   3.872   5.227   0.134
 7777SOL    MW431429   3.842   5.231   0.216
 7778SOL     OW31430   5.109   5.307   0.439
 7778SOL    HW231431   5.172   5.297   0.368
 7778SOL    HW331432   5.026   5.327   0.394
 7778SOL    MW431433   5.106   5.308   0.424
 7779SOL     OW31434   5.472   4.575   2.125
 7779SOL    HW231435   5.513   4.517   2.190
 7779SOL    HW331436   5.379   4.567   2.142
 7779SOL    MW431437   5.466   4.567   2.135
 7780SOL     OW31438   5.338   4.507   3.120
 7780SOL    HW231439   5.293   4.574   3.171
 7780SOL    HW331440   5.426   4.543   3.106
 7780SOL    MW431441   5.344   4.520   3.124
 7781SOL     OW31442   4.266   4.758   2.354
 7781SOL    HW231443   4.356   4.733   2.338
 7781SOL    HW331444   4.262   4.851   2.331
 7781SOL    MW431445   4.278   4.767   2.349
 7782SOL     OW31446   4.761   5.346   3.497
 7782SOL    HW231447   4.802   5.382   3.418
 7782SOL    HW331448   4.796   5.257   3.504
 7782SOL    MW431449   4.772   5.339   3.488
 7783SOL     OW31450   5.318   4.901   3.101
 7783SOL    HW231451   5.239   4.866   3.059
 7783SOL    HW331452   5.345   4.973   3.045
 7783SOL    MW431453   5.311   4.906   3.088
 7784SOL     OW31454   4.550   4.214   2.367
 7784SOL    HW231455   4.525   4.302   2.395
 7784SOL    HW331456   4.547   4.217   2.271
 7784SOL    MW431457   4.546   4.226   2.359
 7785SOL     OW31458   3.992   4.242   2.295
 7785SOL    HW231459   4.024   4.330   2.277
 7785SOL    HW331460   3.980   4.240   2.390
 7785SOL    MW431461   3.995   4.254   2.307
 7786SOL     OW31462   4.391   3.997   2.382
 7786SOL    HW231463   4.449   4.073   2.384
 7786SOL    HW331464   4.326   4.018   2.315
 7786SOL    MW431465   4.390   4.009   2.373
 7787SOL     OW31466   4.478   4.924   2.557
 7787SOL    HW231467   4.558   4.927   2.609
 7787SOL    HW331468   4.506   4.891   2.471
 7787SOL    MW431469   4.492   4.920   2.552
 7788SOL     OW31470   4.503   5.265   3.460
 7788SOL    HW231471   4.587   5.291   3.499
 7788SOL    HW331472   4.527   5.209   3.386
 7788SOL    MW431473   4.517   5.261   3.455
 7789SOL     OW31474   4.255   4.428   2.548
 7789SOL    HW231475   4.240   4.348   2.599
 7789SOL    HW331476   4.337   4.463   2.582
 7789SOL    MW431477   4.263   4.420   2.560
 7790SOL     OW31478   4.592   5.114   3.233
 7790SOL    HW231479   4.556   5.180   3.173
 7790SOL    HW331480   4.520   5.052   3.246
 7790SOL    MW431481   4.578   5.114   3.227
 7791SOL     OW31482   4.397   4.254   2.925
 7791SOL    HW231483   4.303   4.250   2.943
 7791SOL    HW331484   4.427   4.163   2.934
 7791SOL    MW431485   4.388   4.242   2.928
 7792SOL     OW31486   4.143   4.668   2.829
 7792SOL    HW231487   4.098   4.675   2.745
 7792SOL    HW331488   4.123   4.751   2.873
 7792SOL    MW431489   4.135   4.680   2.823
 7793SOL     OW31490   3.840   5.514   2.704
 7793SOL    HW231491   3.929   5.506   2.739
 7793SOL    HW331492   3.804   5.426   2.709
 7793SOL    MW431493   3.847   5.501   2.709
 7794SOL     OW31494   5.105   4.906   2.073
 7794SOL    HW231495   5.023   4.942   2.039
 7794SOL    HW331496   5.173   4.949   2.022
 7794SOL    MW431497   5.103   4.916   2.061
 7795SOL     OW31498   4.104   5.041   2.739
 7795SOL    HW231499   4.080   5.094   2.815
 7795SOL    HW331500   4.160   5.099   2.687
 7795SOL    MW431501   4.108   5.056   2.742
 7796SOL     OW31502   4.666   4.685   2.549
 7796SOL    HW231503   4.580   4.672   2.589
 7796SOL    HW331504   4.719   4.612   2.581
 7796SOL    MW431505   4.662   4.674   2.558
 7797SOL     OW31506   5.530   4.048   2.722
 7797SOL    HW231507   5.467   4.028   2.791
 7797SOL    HW331508   5.520   3.977   2.659
 7797SOL    MW431509   5.520   4.035   2.723
 7798SOL     OW31510   4.154   4.020   2.234
 7798SOL    HW231511   4.128   3.982   2.150
 7798SOL    HW331512   4.091   4.090   2.250
 7798SOL    MW431513   4.143   4.023   2.225
 7799SOL     OW31514   3.989   4.981   2.271
 7799SOL    HW231515   3.937   5.049   2.227
 7799SOL    HW331516   3.986   4.907   2.211
 7799SOL    MW431517   3.981   4.980   2.258
 7800SOL     OW31518   5.586   4.217   2.024
 7800SOL    HW231519   5.495   4.219   2.052
 7800SOL    HW331520   5.631   4.279   2.082
 7800SOL    MW431521   5.579   4.225   2.034
 7801SOL     OW31522   5.331   4.820   2.374
 7801SOL    HW231523   5.241   4.820   2.409
 7801SOL    HW331524   5.324   4.866   2.291
 7801SOL    MW431525   5.318   4.826   2.368
 7802SOL     OW31526   5.131   4.455   3.446
 7802SOL    HW231527   5.200   4.393   3.423
 7802SOL    HW331528   5.056   4.429   3.393
 7802SOL    MW431529   5.131   4.442   3.437
 7803SOL     OW31530   4.867   4.842   3.438
 7803SOL    HW231531   4.852   4.935   3.423
 7803SOL    HW331532   4.962   4.832   3.438
 7803SOL    MW431533   4.876   4.852   3.435
 7804SOL     OW31534   4.663   4.266   3.639
 7804SOL    HW231535   4.753   4.267   3.606
 7804SOL    HW331536   4.622   4.191   3.597
 7804SOL    MW431537   4.669   4.256   3.630
 7805SOL     OW31538   5.238   4.798   2.766
 7805SOL    HW231539   5.241   4.732   2.697
 7805SOL    HW331540   5.323   4.841   2.762
 7805SOL    MW431541   5.250   4.794   2.757
 7806SOL     OW31542   4.858   4.401   2.335
 7806SOL    HW231543   4.884   4.425   2.246
 7806SOL    HW331544   4.840   4.308   2.331
 7806SOL    MW431545   4.860   4.393   2.322
 7807SOL     OW31546   5.523   5.021   2.186
 7807SOL    HW231547   5.479   5.062   2.261
 7807SOL    HW331548   5.580   5.089   2.151
 7807SOL    MW431549   5.525   5.035   2.191
 7808SOL     OW31550   4.443   4.070   3.589
 7808SOL    HW231551   4.453   3.996   3.529
 7808SOL    HW331552   4.479   4.039   3.672
 7808SOL    MW431553   4.449   4.056   3.591
 7809SOL     OW31554   5.563   3.799   2.553
 7809SOL    HW231555   5.617   3.750   2.615
 7809SOL    HW331556   5.506   3.733   2.514
 7809SOL    MW431557   5.563   3.783   2.555
 7810SOL     OW31558   3.895   5.497   2.081
 7810SOL    HW231559   3.924   5.587   2.073
 7810SOL    HW331560   3.845   5.480   2.002
 7810SOL    MW431561   3.893   5.505   2.070
 7811SOL     OW31562   4.682   3.752   2.966
 7811SOL    HW231563   4.641   3.830   2.928
 7811SOL    HW331564   4.776   3.770   2.961
 7811SOL    MW431565   4.688   3.764   2.961
 7812SOL     OW31566   4.697   4.430   1.996
 7812SOL    HW231567   4.699   4.377   1.917
 7812SOL    HW331568   4.785   4.467   2.002
 7812SOL    MW431569   4.709   4.429   1.985
 7813SOL     OW31570   5.311   4.356   2.332
 7813SOL    HW231571   5.350   4.356   2.419
 7813SOL    HW331572   5.252   4.432   2.332
 7813SOL    MW431573   5.308   4.367   2.343
 7814SOL     OW31574   4.628   4.723   3.461
 7814SOL    HW231575   4.605   4.703   3.551
 7814SOL    HW331576   4.713   4.767   3.466
 7814SOL    MW431577   4.635   4.726   3.473
 7815SOL     OW31578   4.708   3.860   3.221
 7815SOL    HW231579   4.714   3.822   3.134
 7815SOL    HW331580   4.697   3.954   3.206
 7815SOL    MW431581   4.709   3.868   3.209
 7816SOL     OW31582   4.797   4.349   3.055
 7816SOL    HW231583   4.872   4.378   3.002
 7816SOL    HW331584   4.729   4.414   3.039
 7816SOL    MW431585   4.798   4.361   3.045
 7817SOL     OW31586   5.347   4.317   3.332
 7817SOL    HW231587   5.328   4.226   3.311
 7817SOL    HW331588   5.325   4.366   3.253
 7817SOL    MW431589   5.342   4.310   3.319
 7818SOL     OW31590   5.489   5.411   3.236
 7818SOL    HW231591   5.417   5.373   3.287
 7818SOL    HW331592   5.506   5.496   3.277
 7818SOL    MW431593   5.483   5.416   3.248
 7819SOL     OW31594   4.794   4.055   3.438
 7819SOL    HW231595   4.760   4.094   3.357
 7819SOL    HW331596   4.772   3.963   3.431
 7819SOL    MW431597   4.787   4.048   3.428
 7820SOL     OW31598   5.203   4.869   3.514
 7820SOL    HW231599   5.285   4.910   3.544
 7820SOL    HW331600   5.166   4.831   3.594
 7820SOL    MW431601   5.209   4.870   3.529
 7821SOL     OW31602   5.498   4.242   2.498
 7821SOL    HW231603   5.587   4.211   2.515
 7821SOL    HW331604   5.441   4.182   2.546
 7821SOL    MW431605   5.501   4.230   2.507
 7822SOL     OW31606   3.924   3.956   2.527
 7822SOL    HW231607   3.915   3.896   2.453
 7822SOL    HW331608   3.857   3.927   2.590
 7822SOL    MW431609   3.914   3.943   2.525
 7823SOL     OW31610   3.871   4.129   2.890
 7823SOL    HW231611   3.843   4.220   2.899
 7823SOL    HW331612   3.808   4.090   2.829
 7823SOL    MW431613   3.858   4.135   2.884
 7824SOL     OW31614   5.458   4.987   3.593
 7824SOL    HW231615   5.508   4.913   3.625
 7824SOL    HW331616   5.404   5.014   3.668
 7824SOL    MW431617   5.458   4.981   3.606
 7825SOL     OW31618   4.466   4.882   1.903
 7825SOL    HW231619   4.388   4.828   1.890
 7825SOL    HW331620   4.437   4.955   1.956
 7825SOL    MW431621   4.452   4.884   1.908
 7826SOL     OW31622   5.592   4.622   3.095
 7826SOL    HW231623   5.608   4.660   3.008
 7826SOL    HW331624   5.626   4.688   3.156
 7826SOL    MW431625   5.599   4.635   3.091
 7827SOL     OW31626   5.384   5.331   2.764
 7827SOL    HW231627   5.413   5.398   2.825
 7827SOL    HW331628   5.365   5.255   2.819
 7827SOL    MW431629   5.386   5.331   2.779
 7828SOL     OW31630   3.855   4.404   3.060
 7828SOL    HW231631   3.917   4.434   3.126
 7828SOL    HW331632   3.789   4.473   3.054
 7828SOL    MW431633   3.854   4.417   3.067
 7829SOL     OW31634   5.271   5.072   1.913
 7829SOL    HW231635   5.218   5.121   1.849
 7829SOL    HW331636   5.302   5.138   1.974
 7829SOL    MW431637   5.269   5.086   1.911
 7830SOL     OW31638   4.496   3.961   1.968
 7830SOL    HW231639   4.444   3.881   1.956
 7830SOL    HW331640   4.583   3.938   1.936
 7830SOL    MW431641   4.499   3.947   1.962
 7831SOL     OW31642   4.002   4.832   3.019
 7831SOL    HW231643   4.055   4.907   3.044
 7831SOL    HW331644   3.921   4.870   2.985
 7831SOL    MW431645   3.998   4.847   3.019
 7832SOL     OW31646   4.542   4.736   3.007
 7832SOL    HW231647   4.570   4.645   3.019
 7832SOL    HW331648   4.471   4.730   2.943
 7832SOL    MW431649   4.535   4.724   3.002
 7833SOL     OW31650   3.857   4.601   2.425
 7833SOL    HW231651   3.948   4.616   2.452
 7833SOL    HW331652   3.860   4.522   2.371
 7833SOL    MW431653   3.869   4.593   2.423
 7834SOL     OW31654   4.093   4.309   3.679
 7834SOL    HW231655   4.040   4.389   3.686
 7834SOL    HW331656   4.163   4.321   3.744
 7834SOL    MW431657   4.095   4.322   3.687
 7835SOL     OW31658   4.479   3.859   3.386
 7835SOL    HW231659   4.456   3.767   3.388
 7835SOL    HW331660   4.565   3.861   3.343
 7835SOL    MW431661   4.486   3.849   3.382
 7836SOL     OW31662   4.163   4.383   3.425
 7836SOL    HW231663   4.243   4.433   3.411
 7836SOL    HW331664   4.154   4.377   3.520
 7836SOL    MW431665   4.172   4.389   3.435
 7837SOL     OW31666   5.140   3.908   3.696
 7837SOL    HW231667   5.196   3.835   3.722
 7837SOL    HW331668   5.110   3.946   3.778
 7837SOL    MW431669   5.144   3.903   3.709
 7838SOL     OW31670   3.865   5.213   2.464
 7838SOL    HW231671   3.837   5.252   2.546
 7838SOL    HW331672   3.885   5.122   2.486
 7838SOL    MW431673   3.863   5.205   2.477
 7839SOL     OW31674   5.530   4.401   2.813
 7839SOL    HW231675   5.619   4.431   2.795
 7839SOL    HW331676   5.510   4.341   2.742
 7839SOL    MW431677   5.539   4.398   2.802
 7840SOL     OW31678   5.381   4.580   3.693
 7840SOL    HW231679   5.436   4.504   3.674
 7840SOL    HW331680   5.383   4.588   3.788
 7840SOL    MW431681   5.389   4.571   3.701
 7841SOL     OW31682   4.431   5.313   1.904
 7841SOL    HW231683   4.371   5.382   1.874
 7841SOL    HW331684   4.376   5.255   1.957
 7841SOL    MW431685   4.415   5.315   1.906
 7842SOL     OW31686   4.869   3.958   2.127
 7842SOL    HW231687   4.802   3.934   2.064
 7842SOL    HW331688   4.934   4.007   2.076
 7842SOL    MW431689   4.869   3.960   2.112
 7843SOL     OW31690   4.676   4.142   3.212
 7843SOL    HW231691   4.595   4.183   3.240
 7843SOL    HW331692   4.723   4.210   3.164
 7843SOL    MW431693   4.671   4.157   3.210
 7844SOL     OW31694   4.936   4.480   2.835
 7844SOL    HW231695   4.949   4.574   2.845
 7844SOL    HW331696   4.897   4.470   2.749
 7844SOL    MW431697   4.932   4.491   2.825
 7845SOL     OW31698   4.388   4.675   2.639
 7845SOL    HW231699   4.299   4.666   2.672
 7845SOL    HW331700   4.392   4.765   2.607
 7845SOL    MW431701   4.377   4.686   2.639
 7846SOL     OW31702   5.187   4.258   2.634
 7846SOL    HW231703   5.132   4.179   2.633
 7846SOL    HW331704   5.169   4.299   2.718
 7846SOL    MW431705   5.177   4.253   2.643
 7847SOL     OW31706   4.158   3.945   3.451
 7847SOL    HW231707   4.079   3.963   3.503
 7847SOL    HW331708   4.153   4.007   3.378
 7847SOL    MW431709   4.148   3.955   3.448
 7848SOL     OW31710   4.806   4.462   2.591
 7848SOL    HW231711   4.743   4.394   2.615
 7848SOL    HW331712   4.826   4.443   2.499
 7848SOL    MW431713   4.800   4.449   2.583
 7849SOL     OW31714   4.062   5.357   2.293
 7849SOL    HW231715   4.023   5.404   2.219
 7849SOL    HW331716   3.996   5.292   2.318
 7849SOL    MW431717   4.049   5.355   2.287
 7850SOL     OW31718   4.554   4.766   2.317
 7850SOL    HW231719   4.556   4.740   2.224
 7850SOL    HW331720   4.612   4.703   2.360
 7850SOL    MW431721   4.562   4.755   2.311
 7851SOL     OW31722   5.107   5.326   3.089
 7851SOL    HW231723   5.032   5.372   3.127
 7851SOL    HW331724   5.089   5.233   3.106
 7851SOL    MW431725   5.096   5.320   3.097
 7852SOL     OW31726   5.111   5.534   2.519
 7852SOL    HW231727   5.054   5.487   2.458
 7852SOL    HW331728   5.197   5.495   2.506
 7852SOL    MW431729   5.114   5.525   2.509
 7853SOL     OW31730   5.064   4.010   2.650
 7853SOL    HW231731   5.092   3.942   2.711
 7853SOL    HW331732   4.978   3.981   2.620
 7853SOL    MW431733   5.057   3.997   2.654
 7854SOL     OW31734   3.869   4.944   2.584
 7854SOL    HW231735   3.933   4.976   2.647
 7854SOL    HW331736   3.918   4.880   2.532
 7854SOL    MW431737   3.884   4.940   2.585
 7855SOL     OW31738   4.369   5.020   3.566
 7855SOL    HW231739   4.417   5.103   3.553
 7855SOL    HW331740   4.426   4.968   3.622
 7855SOL    MW431741   4.383   5.024   3.572
 7856SOL     OW31742   3.945   5.262   3.706
 7856SOL    HW231743   4.001   5.186   3.721
 7856SOL    HW331744   3.894   5.240   3.628
 7856SOL    MW431745   3.945   5.249   3.697
 7857SOL     OW31746   5.044   4.114   1.985
 7857SOL    HW231747   5.017   4.180   1.921
 7857SOL    HW331748   5.114   4.157   2.035
 7857SOL    MW431749   5.049   4.127   1.982
 7858SOL     OW31750   4.712   3.819   1.922
 7858SOL    HW231751   4.768   3.811   1.844
 7858SOL    HW331752   4.689   3.729   1.944
 7858SOL    MW431753   4.717   3.806   1.915
 7859SOL     OW31754   5.217   4.670   2.127
 7859SOL    HW231755   5.184   4.759   2.117
 7859SOL    HW331756   5.182   4.641   2.212
 7859SOL    MW431757   5.207   4.679   2.138
 7860SOL     OW31758   4.830   5.099   3.315
 7860SOL    HW231759   4.741   5.105   3.283
 7860SOL    HW331760   4.874   5.178   3.283
 7860SOL    MW431761   4.825   5.109   3.307
 7861SOL     OW31762   4.123   3.767   3.657
 7861SOL    HW231763   4.051   3.732   3.605
 7861SOL    HW331764   4.181   3.808   3.592
 7861SOL    MW431765   4.121   3.768   3.642
 7862SOL     OW31766   5.587   4.786   3.310
 7862SOL    HW231767   5.502   4.799   3.269
 7862SOL    HW331768   5.567   4.750   3.397
 7862SOL    MW431769   5.574   4.782   3.315
 7863SOL     OW31770   4.211   4.708   1.919
 7863SOL    HW231771   4.134   4.721   1.975
 7863SOL    HW331772   4.175   4.672   1.838
 7863SOL    MW431773   4.197   4.704   1.916
 7864SOL     OW31774   4.364   5.030   2.854
 7864SOL    HW231775   4.357   5.009   2.948
 7864SOL    HW331776   4.282   4.998   2.817
 7864SOL    MW431777   4.352   5.024   2.861
 7865SOL     OW31778   5.228   4.040   3.256
 7865SOL    HW231779   5.175   4.042   3.336
 7865SOL    HW331780   5.213   3.953   3.219
 7865SOL    MW431781   5.220   4.030   3.261
 7866SOL     OW31782   5.564   3.964   3.129
 7866SOL    HW231783   5.545   4.031   3.064
 7866SOL    HW331784   5.621   3.902   3.084
 7866SOL    MW431785   5.568   3.965   3.115
 7867SOL     OW31786   4.493   3.797   2.569
 7867SOL    HW231787   4.422   3.858   2.551
 7867SOL    HW331788   4.544   3.794   2.488
 7867SOL    MW431789   4.489   3.803   2.556
 7868SOL     OW31790   4.251   5.037   2.318
 7868SOL    HW231791   4.244   5.069   2.408
 7868SOL    HW331792   4.161   5.021   2.290
 7868SOL    MW431793   4.239   5.039   2.325
 7869SOL     OW31794   4.846   5.430   3.227
 7869SOL    HW231795   4.766   5.415   3.177
 7869SOL    HW331796   4.853   5.525   3.234
 7869SOL    MW431797   4.837   5.441   3.221
 7870SOL     OW31798   5.368   5.490   2.992
 7870SOL    HW231799   5.411   5.460   3.072
 7870SOL    HW331800   5.287   5.438   2.989
 7870SOL    MW431801   5.363   5.479   3.002
 7871SOL     OW31802   4.453   4.454   3.699
 7871SOL    HW231803   4.523   4.396   3.671
 7871SOL    HW331804   4.396   4.399   3.754
 7871SOL    MW431805   4.455   4.441   3.703
 7872SOL     OW31806   5.240   4.666   3.332
 7872SOL    HW231807   5.245   4.719   3.412
 7872SOL    HW331808   5.202   4.583   3.360
 7872SOL    MW431809   5.236   4.661   3.347
 7873SOL     OW31810   4.880   3.801   3.578
 7873SOL    HW231811   4.875   3.708   3.559
 7873SOL    HW331812   4.963   3.812   3.624
 7873SOL    MW431813   4.888   3.790   3.582
 7874SOL     OW31814   4.254   4.321   2.032
 7874SOL    HW231815   4.220   4.377   2.102
 7874SOL    HW331816   4.325   4.271   2.072
 7874SOL    MW431817   4.260   4.322   2.046
 7875SOL     OW31818   5.350   5.072   2.854
 7875SOL    HW231819   5.385   5.054   2.767
 7875SOL    HW331820   5.255   5.073   2.841
 7875SOL    MW431821   5.342   5.069   2.841
 7876SOL     OW31822   4.779   4.720   3.223
 7876SOL    HW231823   4.822   4.755   3.301
 7876SOL    HW331824   4.762   4.797   3.169
 7876SOL    MW431825   4.782   4.735   3.226
 7877SOL     OW31826   5.310   4.207   2.096
 7877SOL    HW231827   5.302   4.278   2.033
 7877SOL    HW331828   5.328   4.251   2.179
 7877SOL    MW431829   5.311   4.221   2.098
 7878SOL     OW31830   4.170   3.862   2.525
 7878SOL    HW231831   4.220   3.905   2.456
 7878SOL    HW331832   4.085   3.906   2.525
 7878SOL    MW431833   4.167   3.875   2.516
 7879SOL     OW31834   4.437   4.251   3.352
 7879SOL    HW231835   4.409   4.339   3.376
 7879SOL    HW331836   4.406   4.195   3.423
 7879SOL    MW431837   4.429   4.254   3.364
 7880SOL     OW31838   4.979   4.469   2.071
 7880SOL    HW231839   5.026   4.487   1.990
 7880SOL    HW331840   4.945   4.553   2.099
 7880SOL    MW431841   4.981   4.483   2.064
 7881SOL     OW31842   4.092   4.647   2.565
 7881SOL    HW231843   4.150   4.703   2.513
 7881SOL    HW331844   4.136   4.562   2.567
 7881SOL    MW431845   4.105   4.644   2.558
 7882SOL     OW31846   5.232   3.999   2.402
 7882SOL    HW231847   5.154   3.949   2.427
 7882SOL    HW331848   5.203   4.090   2.402
 7882SOL    MW431849   5.218   4.003   2.405
 7883SOL     OW31850   4.818   3.961   2.561
 7883SOL    HW231851   4.838   4.036   2.505
 7883SOL    HW331852   4.798   4.000   2.646
 7883SOL    MW431853   4.819   3.977   2.565
 7884SOL     OW31854   4.714   5.211   1.893
 7884SOL    HW231855   4.741   5.289   1.845
 7884SOL    HW331856   4.621   5.226   1.912
 7884SOL    MW431857   4.705   5.224   1.889
 7885SOL     OW31858   5.578   4.734   3.580
 7885SOL    HW231859   5.491   4.714   3.616
 7885SOL    HW331860   5.632   4.660   3.605
 7885SOL    MW431861   5.573   4.723   3.588
 7886SOL     OW31862   3.799   5.247   2.737
 7886SOL    HW231863   3.831   5.251   2.828
 7886SOL    HW331864   3.704   5.255   2.745
 7886SOL    MW431865   3.791   5.250   2.750
 7887SOL     OW31866   3.754   4.373   2.284
 7887SOL    HW231867   3.694   4.345   2.354
 7887SOL    HW331868   3.828   4.313   2.290
 7887SOL    MW431869   3.756   4.362   2.293
 7888SOL     OW31870   5.322   5.585   3.718
 7888SOL    HW231871   5.367   5.509   3.683
 7888SOL    HW331872   5.360   5.598   3.805
 7888SOL    MW431873   5.332   5.578   3.724
 7889SOL     OW31874   4.180   4.112   3.173
 7889SOL    HW231875   4.213   4.193   3.213
 7889SOL    HW331876   4.153   4.138   3.085
 7889SOL    MW431877   4.179   4.126   3.167
 7890SOL     OW31878   4.134   4.079   2.909
 7890SOL    HW231879   4.164   3.993   2.880
 7890SOL    HW331880   4.039   4.072   2.912
 7890SOL    MW431881   4.126   4.068   2.907
 7891SOL     OW31882   4.963   4.288   3.600
 7891SOL    HW231883   5.015   4.223   3.553
 7891SOL    HW331884   4.921   4.339   3.530
 7891SOL    MW431885   4.964   4.285   3.583
 7892SOL     OW31886   5.062   4.083   3.461
 7892SOL    HW231887   4.969   4.067   3.448
 7892SOL    HW331888   5.088   4.021   3.529
 7892SOL    MW431889   5.052   4.073   3.468
 7893SOL     OW31890   4.277   3.857   2.800
 7893SOL    HW231891   4.287   3.766   2.826
 7893SOL    HW331892   4.233   3.853   2.715
 7893SOL    MW431893   4.273   3.845   2.792
 7894SOL     OW31894   5.428   4.179   2.971
 7894SOL    HW231895   5.361   4.212   3.031
 7894SOL    HW331896   5.471   4.257   2.937
 7894SOL    MW431897   5.426   4.194   2.975
 7895SOL     OW31898   5.606   4.899   2.941
 7895SOL    HW231899   5.599   4.839   2.866
 7895SOL    HW331900   5.532   4.959   2.930
 7895SOL    MW431901   5.596   4.899   2.930
 7896SOL     OW31902   4.988   4.761   2.859
 7896SOL    HW231903   5.002   4.733   2.950
 7896SOL    HW331904   5.074   4.792   2.831
 7896SOL    MW431905   5.001   4.762   2.868
 7897SOL     OW31906   5.071   4.256   3.138
 7897SOL    HW231907   5.092   4.257   3.045
 7897SOL    HW331908   5.116   4.178   3.171
 7897SOL    MW431909   5.078   4.246   3.130
 7898SOL     OW31910   5.564   4.387   3.680
 7898SOL    HW231911   5.601   4.332   3.749
 7898SOL    HW331912   5.589   4.344   3.598
 7898SOL    MW431913   5.571   4.375   3.679
 7899SOL     OW31914   5.111   4.685   3.731
 7899SOL    HW231915   5.177   4.633   3.685
 7899SOL    HW331916   5.131   4.672   3.824
 7899SOL    MW431917   5.122   4.676   3.738
 7900SOL     OW31918   5.062   3.771   2.080
 7900SOL    HW231919   5.136   3.815   2.123
 7900SOL    HW331920   4.986   3.825   2.102
 7900SOL    MW431921   5.062   3.783   2.088
 7901SOL     OW31922   5.122   4.546   2.358
 7901SOL    HW231923   5.037   4.516   2.328
 7901SOL    HW331924   5.114   4.553   2.453
 7901SOL    MW431925   5.110   4.544   2.367
 7902SOL     OW31926   4.198   5.009   3.089
 7902SOL    HW231927   4.210   5.036   3.180
 7902SOL    HW331928   4.179   5.090   3.042
 7902SOL    MW431929   4.197   5.024   3.094
 7903SOL     OW31930   4.482   3.989   2.912
 7903SOL    HW231931   4.455   3.991   3.003
 7903SOL    HW331932   4.412   3.941   2.867
 7903SOL    MW431933   4.470   3.985   2.919
 7904SOL     OW31934   5.238   5.066   3.306
 7904SOL    HW231935   5.223   4.995   3.369
 7904SOL    HW331936   5.284   5.024   3.234
 7904SOL    MW431937   5.244   5.050   3.306
 7905SOL     OW31938   4.312   4.797   3.423
 7905SOL    HW231939   4.349   4.802   3.335
 7905SOL    HW331940   4.351   4.870   3.470
 7905SOL    MW431941   4.322   4.807   3.418
 7906SOL     OW31942   4.492   4.840   3.235
 7906SOL    HW231943   4.551   4.786   3.288
 7906SOL    HW331944   4.507   4.812   3.145
 7906SOL    MW431945   4.502   4.829   3.231
 7907SOL     OW31946   4.495   4.212   2.084
 7907SOL    HW231947   4.568   4.261   2.047
 7907SOL    HW331948   4.511   4.121   2.058
 7907SOL    MW431949   4.507   4.207   2.077
 7908SOL     OW31950   5.303   5.329   3.407
 7908SOL    HW231951   5.345   5.314   3.492
 7908SOL    HW331952   5.294   5.242   3.369
 7908SOL    MW431953   5.307   5.317   3.414
 7909SOL     OW31954   4.963   3.808   2.998
 7909SOL    HW231955   5.018   3.817   2.920
 7909SOL    HW331956   5.018   3.842   3.069
 7909SOL    MW431957   4.977   3.813   2.997
 7910SOL     OW31958   3.970   4.721   2.182
 7910SOL    HW231959   3.907   4.737   2.111
 7910SOL    HW331960   3.917   4.684   2.253
 7910SOL    MW431961   3.955   4.718   2.182
 7911SOL     OW31962   4.326   5.075   2.041
 7911SOL    HW231963   4.341   5.051   2.133
 7911SOL    HW331964   4.234   5.053   2.025
 7911SOL    MW431965   4.316   5.068   2.051
 7912SOL     OW31966   4.741   4.942   3.005
 7912SOL    HW231967   4.673   4.876   3.021
 7912SOL    HW331968   4.759   4.936   2.912
 7912SOL    MW431969   4.734   4.933   2.996
 7913SOL     OW31970   4.734   4.081   2.826
 7913SOL    HW231971   4.664   4.033   2.871
 7913SOL    HW331972   4.766   4.144   2.890
 7913SOL    MW431973   4.729   4.083   2.840
 7914SOL     OW31974   4.385   4.517   3.446
 7914SOL    HW231975   4.378   4.612   3.434
 7914SOL    HW331976   4.394   4.506   3.541
 7914SOL    MW431977   4.386   4.529   3.456
 7915SOL     OW31978   4.106   5.032   3.704
 7915SOL    HW231979   4.178   5.034   3.641
 7915SOL    HW331980   4.076   4.941   3.703
 7915SOL    MW431981   4.111   5.021   3.696
 7916SOL     OW31982   5.190   3.795   3.171
 7916SOL    HW231983   5.261   3.741   3.135
 7916SOL    HW331984   5.189   3.774   3.264
 7916SOL    MW431985   5.199   3.786   3.179
 7917SOL     OW31986   5.390   5.325   3.655
 7917SOL    HW231987   5.363   5.322   3.746
 7917SOL    HW331988   5.486   5.329   3.658
 7917SOL    MW431989   5.400   5.325   3.667
 7918SOL     OW31990   4.201   4.187   2.639
 7918SOL    HW231991   4.272   4.135   2.602
 7918SOL    HW331992   4.187   4.152   2.726
 7918SOL    MW431993   4.209   4.176   2.646
 7919SOL     OW31994   4.837   4.128   2.363
 7919SOL    HW231995   4.859   4.065   2.295
 7919SOL    HW331996   4.742   4.120   2.374
 7919SOL    MW431997   4.827   4.119   2.355
 7920SOL     OW31998   3.922   3.818   2.295
 7920SOL    HW231999   3.993   3.839   2.234
 7920SOL    HW332000   3.876   3.746   2.253
 7920SOL    MW432001   3.926   3.812   2.281
 7921SOL     OW32002   3.753   4.285   3.438
 7921SOL    HW232003   3.817   4.351   3.413
 7921SOL    HW332004   3.672   4.312   3.395
 7921SOL    MW432005   3.751   4.297   3.430
 7922SOL     OW32006   5.491   5.192   2.395
 7922SOL    HW232007   5.461   5.125   2.456
 7922SOL    HW332008   5.585   5.198   2.409
 7922SOL    MW432009   5.499   5.184   2.405
 7923SOL     OW32010   4.709   3.789   2.378
 7923SOL    HW232011   4.746   3.848   2.443
 7923SOL    HW332012   4.686   3.845   2.304
 7923SOL    MW432013   4.710   3.804   2.377
 7924SOL     OW32014   5.562   4.671   2.800
 7924SOL    HW232015   5.553   4.703   2.711
 7924SOL    HW332016   5.515   4.587   2.800
 7924SOL    MW432017   5.555   4.664   2.790
 7925SOL     OW32018   5.474   4.602   2.501
 7925SOL    HW232019   5.568   4.591   2.489
 7925SOL    HW332020   5.450   4.674   2.442
 7925SOL    MW432021   5.484   4.610   2.492
 7926SOL     OW32022   3.923   4.526   3.646
 7926SOL    HW232023   3.849   4.470   3.672
 7926SOL    HW332024   3.918   4.529   3.551
 7926SOL    MW432025   3.912   4.519   3.636
 7927SOL     OW32026   4.089   3.813   3.096
 7927SOL    HW232027   4.132   3.897   3.116
 7927SOL    HW332028   4.162   3.751   3.089
 7927SOL    MW432029   4.104   3.816   3.097
 7928SOL     OW32030   4.130   4.480   2.274
 7928SOL    HW232031   4.130   4.575   2.259
 7928SOL    HW332032   4.207   4.464   2.328
 7928SOL    MW432033   4.140   4.491   2.279
 7929SOL     OW32034   4.906   4.339   3.338
 7929SOL    HW232035   4.942   4.312   3.254
 7929SOL    HW332036   4.819   4.373   3.317
 7929SOL    MW432037   4.900   4.340   3.325
 7930SOL     OW32038   3.889   4.211   2.563
 7930SOL    HW232039   3.951   4.218   2.636
 7930SOL    HW332040   3.889   4.118   2.540
 7930SOL    MW432041   3.897   4.200   2.570
 7931SOL     OW32042   4.571   4.472   3.047
 7931SOL    HW232043   4.529   4.390   3.023
 7931SOL    HW332044   4.572   4.471   3.143
 7931SOL    MW432045   4.564   4.461   3.056
 7932SOL     OW32046   5.242   5.605   3.446
 7932SOL    HW232047   5.245   5.511   3.429
 7932SOL    HW332048   5.265   5.613   3.538
 7932SOL    MW432049   5.245   5.593   3.456
 7933SOL     OW32050   4.375   3.942   3.152
 7933SOL    HW232051   4.306   4.005   3.173
 7933SOL    HW332052   4.402   3.906   3.237
 7933SOL    MW432053   4.369   3.945   3.165
 7934SOL     OW32054   3.758   4.783   2.021
 7934SOL    HW232055   3.727   4.848   2.084
 7934SOL    HW332056   3.707   4.705   2.040
 7934SOL    MW432057   3.748   4.780   2.031
 7935SOL     OW32058   5.170   3.795   2.769
 7935SOL    HW232059   5.258   3.804   2.806
 7935SOL    HW332060   5.180   3.736   2.695
 7935SOL    MW432061   5.184   3.789   2.763
 7936SOL     OW32062   5.202   4.534   2.613
 7936SOL    HW232063   5.282   4.549   2.562
 7936SOL    HW332064   5.195   4.439   2.619
 7936SOL    MW432065   5.211   4.523   2.608
 7937SOL     OW32066   4.652   4.460   3.310
 7937SOL    HW232067   4.721   4.527   3.307
 7937SOL    HW332068   4.585   4.498   3.366
 7937SOL    MW432069   4.653   4.473   3.317
 7938SOL     OW32070   4.070   4.760   3.558
 7938SOL    HW232071   4.024   4.676   3.560
 7938SOL    HW332072   4.127   4.754   3.482
 7938SOL    MW432073   4.072   4.748   3.550
 7939SOL     OW32074   5.187   4.403   1.879
 7939SOL    HW232075   5.115   4.379   1.821
 7939SOL    HW332076   5.253   4.440   1.821
 7939SOL    MW432077   5.186   4.405   1.864
 7940SOL     OW32078   4.321   5.135   2.559
 7940SOL    HW232079   4.386   5.068   2.580
 7940SOL    HW332080   4.373   5.212   2.536
 7940SOL    MW432081   4.336   5.137   2.558
 7941SOL     OW32082   4.582   4.300   2.689
 7941SOL    HW232083   4.522   4.318   2.761
 7941SOL    HW332084   4.616   4.212   2.708
 7941SOL    MW432085   4.578   4.290   2.702
 7942SOL     OW32086   5.523   3.799   3.358
 7942SOL    HW232087   5.444   3.845   3.386
 7942SOL    HW332088   5.558   3.853   3.287
 7942SOL    MW432089   5.517   3.812   3.352
 7943SOL     OW32090   4.807   4.883   2.708
 7943SOL    HW232091   4.899   4.864   2.726
 7943SOL    HW332092   4.780   4.813   2.648
 7943SOL    MW432093   4.815   4.871   2.702
 7944SOL     OW32094   4.600   4.703   2.063
 7944SOL    HW232095   4.586   4.615   2.028
 7944SOL    HW332096   4.551   4.760   2.004
 7944SOL    MW432097   4.592   4.698   2.051
 7945SOL     OW32098   5.081   5.121   2.804
 7945SOL    HW232099   5.054   5.205   2.769
 7945SOL    HW332100   5.041   5.116   2.891
 7945SOL    MW432101   5.074   5.130   2.810
 7946SOL     OW32102   5.000   5.069   3.072
 7946SOL    HW232103   5.011   5.036   3.161
 7946SOL    HW332104   4.919   5.028   3.041
 7946SOL    MW432105   4.990   5.061   3.078
 7947SOL     OW32106   4.013   4.427   2.842
 7947SOL    HW232107   3.963   4.426   2.923
 7947SOL    HW332108   4.033   4.519   2.826
 7947SOL    MW432109   4.009   4.439   2.850
 7948SOL     OW32110   5.080   5.191   3.604
 7948SOL    HW232111   5.080   5.285   3.620
 7948SOL    HW332112   5.125   5.181   3.520
 7948SOL    MW432113   5.086   5.201   3.595
 7949SOL     OW32114   5.319   3.909   2.165
 7949SOL    HW232115   5.312   3.913   2.260
 7949SOL    HW332116   5.331   4.000   2.138
 7949SOL    MW432117   5.320   3.922   2.173
 7950SOL     OW32118   4.608   4.472   2.279
 7950SOL    HW232119   4.588   4.458   2.186
 7950SOL    HW332120   4.701   4.451   2.286
 7950SOL    MW432121   4.618   4.467   2.268
 7951SOL     OW32122   3.935   4.095   3.583
 7951SOL    HW232123   3.892   4.154   3.520
 7951SOL    HW332124   4.003   4.150   3.623
 7951SOL    MW432125   3.939   4.110   3.580
 7952SOL     OW32126   5.047   4.715   3.128
 7952SOL    HW232127   5.110   4.712   3.201
 7952SOL    HW332128   4.963   4.733   3.170
 7952SOL    MW432129   5.043   4.717   3.143
 7953SOL     OW32130   5.386   3.892   2.907
 7953SOL    HW232131   5.431   3.810   2.926
 7953SOL    HW332132   5.406   3.948   2.983
 7953SOL    MW432133   5.396   3.888   2.919
 7954SOL     OW32134   3.834   3.735   3.006
 7954SOL    HW232135   3.825   3.736   2.911
 7954SOL    HW332136   3.928   3.747   3.021
 7954SOL    MW432137   3.846   3.738   2.997
 7955SOL     OW32138   5.471   4.928   2.626
 7955SOL    HW232139   5.450   4.874   2.549
 7955SOL    HW332140   5.567   4.926   2.630
 7955SOL    MW432141   5.480   4.921   2.615
 7956SOL     OW32142   4.163   5.073   3.369
 7956SOL    HW232143   4.084   5.023   3.392
 7956SOL    HW332144   4.233   5.032   3.419
 7956SOL    MW432145   4.161   5.061   3.379
 7957SOL     OW32146   4.047   3.862   2.052
 7957SOL    HW232147   3.976   3.917   2.020
 7957SOL    HW332148   4.089   3.828   1.973
 7957SOL    MW432149   4.043   3.864   2.038
 7958SOL     OW32150   5.171   4.359   2.888
 7958SOL    HW232151   5.094   4.405   2.854
 7958SOL    HW332152   5.228   4.428   2.922
 7958SOL    MW432153   5.168   4.374   2.888
 7959SOL     OW32154   3.803   3.961   1.901
 7959SOL    HW232155   3.770   4.040   1.945
 7959SOL    HW332156   3.858   3.994   1.830
 7959SOL    MW432157   3.806   3.975   1.898
 7960SOL     OW32158   3.837   5.218   2.090
 7960SOL    HW232159   3.854   5.302   2.132
 7960SOL    HW332160   3.872   5.227   2.002
 7960SOL    MW432161   3.842   5.231   2.084
 7961SOL     OW32162   5.109   5.307   2.307
 7961SOL    HW232163   5.172   5.297   2.236
 7961SOL    HW332164   5.026   5.327   2.262
 7961SOL    MW432165   5.106   5.308   2.292
 7962SOL     OW32166   5.472   4.575   3.993
 7962SOL    HW232167   5.513   4.517   4.058
 7962SOL    HW332168   5.379   4.567   4.010
 7962SOL    MW432169   5.466   4.567   4.003
 7963SOL     OW32170   5.338   4.507   4.988
 7963SOL    HW232171   5.293   4.574   5.039
 7963SOL    HW332172   5.426   4.543   4.974
 7963SOL    MW432173   5.344   4.520   4.992
 7964SOL     OW32174   4.266   4.758   4.222
 7964SOL    HW232175   4.356   4.733   4.206
 7964SOL    HW332176   4.262   4.851   4.199
 7964SOL    MW432177   4.278   4.767   4.217
 7965SOL     OW32178   5.382   5.461   4.364
 7965SOL    HW232179   5.394   5.407   4.442
 7965SOL    HW332180   5.419   5.409   4.293
 7965SOL    MW432181   5.388   5.446   4.365
 7966SOL     OW32182   4.761   5.346   5.365
 7966SOL    HW232183   4.802   5.382   5.286
 7966SOL    HW332184   4.796   5.257   5.372
 7966SOL    MW432185   4.772   5.339   5.356
 7967SOL     OW32186   5.318   4.901   4.969
 7967SOL    HW232187   5.239   4.866   4.927
 7967SOL    HW332188   5.345   4.973   4.913
 7967SOL    MW432189   5.311   4.906   4.956
 7968SOL     OW32190   4.550   4.214   4.235
 7968SOL    HW232191   4.525   4.302   4.263
 7968SOL    HW332192   4.547   4.217   4.139
 7968SOL    MW432193   4.546   4.226   4.227
 7969SOL     OW32194   3.992   4.242   4.163
 7969SOL    HW232195   4.024   4.330   4.145
 7969SOL    HW332196   3.980   4.240   4.258
 7969SOL    MW432197   3.995   4.254   4.175
 7970SOL     OW32198   4.070   4.655   5.064
 7970SOL    HW232199   4.133   4.602   5.015
 7970SOL    HW332200   4.051   4.729   5.007
 7970SOL    MW432201   4.076   4.657   5.051
 7971SOL     OW32202   4.391   3.997   4.250
 7971SOL    HW232203   4.449   4.073   4.252
 7971SOL    HW332204   4.326   4.018   4.183
 7971SOL    MW432205   4.390   4.009   4.241
 7972SOL     OW32206   4.478   4.924   4.425
 7972SOL    HW232207   4.558   4.927   4.477
 7972SOL    HW332208   4.506   4.891   4.339
 7972SOL    MW432209   4.492   4.920   4.420
 7973SOL     OW32210   4.503   5.265   5.328
 7973SOL    HW232211   4.587   5.291   5.367
 7973SOL    HW332212   4.527   5.209   5.254
 7973SOL    MW432213   4.517   5.261   5.323
 7974SOL     OW32214   4.255   4.428   4.416
 7974SOL    HW232215   4.240   4.348   4.467
 7974SOL    HW332216   4.337   4.463   4.450
 7974SOL    MW432217   4.263   4.420   4.428
 7975SOL     OW32218   4.592   5.114   5.101
 7975SOL    HW232219   4.556   5.180   5.041
 7975SOL    HW332220   4.520   5.052   5.114
 7975SOL    MW432221   4.578   5.114   5.095
 7976SOL     OW32222   4.397   4.254   4.793
 7976SOL    HW232223   4.303   4.250   4.811
 7976SOL    HW332224   4.427   4.163   4.802
 7976SOL    MW432225   4.388   4.242   4.796
 7977SOL     OW32226   4.143   4.668   4.697
 7977SOL    HW232227   4.098   4.675   4.613
 7977SOL    HW332228   4.123   4.751   4.741
 7977SOL    MW432229   4.135   4.680   4.691
 7978SOL     OW32230   3.840   5.514   4.572
 7978SOL    HW232231   3.929   5.506   4.607
 7978SOL    HW332232   3.804   5.426   4.577
 7978SOL    MW432233   3.847   5.501   4.577
 7979SOL     OW32234   5.105   4.906   3.941
 7979SOL    HW232235   5.023   4.942   3.907
 7979SOL    HW332236   5.173   4.949   3.890
 7979SOL    MW432237   5.103   4.916   3.929
 7980SOL     OW32238   4.104   5.041   4.607
 7980SOL    HW232239   4.080   5.094   4.683
 7980SOL    HW332240   4.160   5.099   4.555
 7980SOL    MW432241   4.108   5.056   4.610
 7981SOL     OW32242   4.666   4.685   4.417
 7981SOL    HW232243   4.580   4.672   4.457
 7981SOL    HW332244   4.719   4.612   4.449
 7981SOL    MW432245   4.662   4.674   4.426
 7982SOL     OW32246   4.074   5.337   5.202
 7982SOL    HW232247   3.982   5.313   5.187
 7982SOL    HW332248   4.118   5.254   5.219
 7982SOL    MW432249   4.068   5.322   5.201
 7983SOL     OW32250   4.657   5.047   4.134
 7983SOL    HW232251   4.634   5.109   4.202
 7983SOL    HW332252   4.614   4.965   4.160
 7983SOL    MW432253   4.649   5.043   4.145
 7984SOL     OW32254   5.530   4.048   4.590
 7984SOL    HW232255   5.467   4.028   4.659
 7984SOL    HW332256   5.520   3.977   4.527
 7984SOL    MW432257   5.520   4.035   4.591
 7985SOL     OW32258   4.154   4.020   4.102
 7985SOL    HW232259   4.128   3.982   4.018
 7985SOL    HW332260   4.091   4.090   4.118
 7985SOL    MW432261   4.143   4.023   4.093
 7986SOL     OW32262   4.651   5.444   3.917
 7986SOL    HW232263   4.606   5.460   4.000
 7986SOL    HW332264   4.582   5.409   3.859
 7986SOL    MW432265   4.637   5.441   3.919
 7987SOL     OW32266   5.586   4.217   3.892
 7987SOL    HW232267   5.495   4.219   3.920
 7987SOL    HW332268   5.631   4.279   3.950
 7987SOL    MW432269   5.579   4.225   3.902
 7988SOL     OW32270   5.331   4.820   4.242
 7988SOL    HW232271   5.241   4.820   4.277
 7988SOL    HW332272   5.324   4.866   4.159
 7988SOL    MW432273   5.318   4.826   4.236
 7989SOL     OW32274   5.131   4.455   5.314
 7989SOL    HW232275   5.200   4.393   5.291
 7989SOL    HW332276   5.056   4.429   5.261
 7989SOL    MW432277   5.131   4.442   5.305
 7990SOL     OW32278   3.872   5.335   4.866
 7990SOL    HW232279   3.855   5.281   4.943
 7990SOL    HW332280   3.860   5.425   4.896
 7990SOL    MW432281   3.869   5.339   4.880
 7991SOL     OW32282   4.867   4.842   5.306
 7991SOL    HW232283   4.852   4.935   5.291
 7991SOL    HW332284   4.962   4.832   5.306
 7991SOL    MW432285   4.876   4.852   5.303
 7992SOL     OW32286   4.663   4.266   5.507
 7992SOL    HW232287   4.753   4.267   5.474
 7992SOL    HW332288   4.622   4.191   5.465
 7992SOL    MW432289   4.669   4.256   5.498
 7993SOL     OW32290   5.238   4.798   4.634
 7993SOL    HW232291   5.241   4.732   4.565
 7993SOL    HW332292   5.323   4.841   4.630
 7993SOL    MW432293   5.250   4.794   4.625
 7994SOL     OW32294   4.858   4.401   4.203
 7994SOL    HW232295   4.884   4.425   4.114
 7994SOL    HW332296   4.840   4.308   4.199
 7994SOL    MW432297   4.860   4.393   4.190
 7995SOL     OW32298   5.523   5.021   4.054
 7995SOL    HW232299   5.479   5.062   4.129
 7995SOL    HW332300   5.580   5.089   4.019
 7995SOL    MW432301   5.525   5.035   4.059
 7996SOL     OW32302   4.443   4.070   5.457
 7996SOL    HW232303   4.453   3.996   5.397
 7996SOL    HW332304   4.479   4.039   5.540
 7996SOL    MW432305   4.449   4.056   5.459
 7997SOL     OW32306   4.179   5.437   4.372
 7997SOL    HW232307   4.211   5.525   4.350
 7997SOL    HW332308   4.132   5.409   4.294
 7997SOL    MW432309   4.178   5.445   4.359
 7998SOL     OW32310   5.563   3.799   4.421
 7998SOL    HW232311   5.617   3.750   4.483
 7998SOL    HW332312   5.506   3.733   4.382
 7998SOL    MW432313   5.563   3.783   4.423
 7999SOL     OW32314   4.682   3.752   4.834
 7999SOL    HW232315   4.641   3.830   4.796
 7999SOL    HW332316   4.776   3.770   4.829
 7999SOL    MW432317   4.688   3.764   4.829
 8000SOL     OW32318   5.299   5.305   3.920
 8000SOL    HW232319   5.347   5.374   3.966
 8000SOL    HW332320   5.220   5.349   3.889
 8000SOL    MW432321   5.294   5.319   3.923
 8001SOL     OW32322   4.697   4.430   3.864
 8001SOL    HW232323   4.699   4.377   3.785
 8001SOL    HW332324   4.785   4.467   3.870
 8001SOL    MW432325   4.709   4.429   3.853
 8002SOL     OW32326   5.311   4.356   4.200
 8002SOL    HW232327   5.350   4.356   4.287
 8002SOL    HW332328   5.252   4.432   4.200
 8002SOL    MW432329   5.308   4.367   4.211
 8003SOL     OW32330   4.628   4.723   5.329
 8003SOL    HW232331   4.605   4.703   5.419
 8003SOL    HW332332   4.713   4.767   5.334
 8003SOL    MW432333   4.635   4.726   5.341
 8004SOL     OW32334   4.708   3.860   5.089
 8004SOL    HW232335   4.714   3.822   5.002
 8004SOL    HW332336   4.697   3.954   5.074
 8004SOL    MW432337   4.709   3.868   5.077
 8005SOL     OW32338   4.797   4.349   4.923
 8005SOL    HW232339   4.872   4.378   4.870
 8005SOL    HW332340   4.729   4.414   4.907
 8005SOL    MW432341   4.798   4.361   4.913
 8006SOL     OW32342   5.347   4.317   5.200
 8006SOL    HW232343   5.328   4.226   5.179
 8006SOL    HW332344   5.325   4.366   5.121
 8006SOL    MW432345   5.342   4.310   5.187
 8007SOL     OW32346   5.489   5.411   5.104
 8007SOL    HW232347   5.417   5.373   5.155
 8007SOL    HW332348   5.506   5.496   5.145
 8007SOL    MW432349   5.483   5.416   5.116
 8008SOL     OW32350   4.794   4.055   5.306
 8008SOL    HW232351   4.760   4.094   5.225
 8008SOL    HW332352   4.772   3.963   5.299
 8008SOL    MW432353   4.787   4.048   5.296
 8009SOL     OW32354   5.203   4.869   5.382
 8009SOL    HW232355   5.285   4.910   5.412
 8009SOL    HW332356   5.166   4.831   5.462
 8009SOL    MW432357   5.209   4.870   5.397
 8010SOL     OW32358   5.498   4.242   4.366
 8010SOL    HW232359   5.587   4.211   4.383
 8010SOL    HW332360   5.441   4.182   4.414
 8010SOL    MW432361   5.501   4.230   4.375
 8011SOL     OW32362   3.924   3.956   4.395
 8011SOL    HW232363   3.915   3.896   4.321
 8011SOL    HW332364   3.857   3.927   4.458
 8011SOL    MW432365   3.914   3.943   4.393
 8012SOL     OW32366   4.867   5.049   3.956
 8012SOL    HW232367   4.817   5.051   4.038
 8012SOL    HW332368   4.801   5.067   3.888
 8012SOL    MW432369   4.853   5.051   3.958
 8013SOL     OW32370   3.871   4.129   4.758
 8013SOL    HW232371   3.843   4.220   4.767
 8013SOL    HW332372   3.808   4.090   4.697
 8013SOL    MW432373   3.858   4.135   4.752
 8014SOL     OW32374   5.458   4.987   5.461
 8014SOL    HW232375   5.508   4.913   5.493
 8014SOL    HW332376   5.404   5.014   5.536
 8014SOL    MW432377   5.458   4.981   5.474
 8015SOL     OW32378   4.466   4.882   3.771
 8015SOL    HW232379   4.388   4.828   3.758
 8015SOL    HW332380   4.437   4.955   3.824
 8015SOL    MW432381   4.452   4.884   3.776
 8016SOL     OW32382   5.592   4.622   4.963
 8016SOL    HW232383   5.608   4.660   4.876
 8016SOL    HW332384   5.626   4.688   5.024
 8016SOL    MW432385   5.599   4.635   4.959
 8017SOL     OW32386   5.384   5.331   4.632
 8017SOL    HW232387   5.413   5.398   4.693
 8017SOL    HW332388   5.365   5.255   4.687
 8017SOL    MW432389   5.386   5.331   4.647
 8018SOL     OW32390   5.047   5.398   3.839
 8018SOL    HW232391   4.973   5.361   3.889
 8018SOL    HW332392   5.055   5.488   3.872
 8018SOL    MW432393   5.038   5.405   3.851
 8019SOL     OW32394   3.855   4.404   4.928
 8019SOL    HW232395   3.917   4.434   4.994
 8019SOL    HW332396   3.789   4.473   4.922
 8019SOL    MW432397   3.854   4.417   4.935
 8020SOL     OW32398   5.271   5.072   3.781
 8020SOL    HW232399   5.218   5.121   3.717
 8020SOL    HW332400   5.302   5.138   3.842
 8020SOL    MW432401   5.269   5.086   3.779
 8021SOL     OW32402   4.496   3.961   3.836
 8021SOL    HW232403   4.444   3.881   3.824
 8021SOL    HW332404   4.583   3.938   3.804
 8021SOL    MW432405   4.499   3.947   3.830
 8022SOL     OW32406   3.950   5.513   5.380
 8022SOL    HW232407   3.924   5.581   5.318
 8022SOL    HW332408   3.998   5.450   5.328
 8022SOL    MW432409   3.952   5.513   5.366
 8023SOL     OW32410   4.002   4.832   4.887
 8023SOL    HW232411   4.055   4.907   4.912
 8023SOL    HW332412   3.921   4.870   4.853
 8023SOL    MW432413   3.998   4.847   4.887
 8024SOL     OW32414   4.542   4.736   4.875
 8024SOL    HW232415   4.570   4.645   4.887
 8024SOL    HW332416   4.471   4.730   4.811
 8024SOL    MW432417   4.535   4.724   4.870
 8025SOL     OW32418   3.857   4.601   4.293
 8025SOL    HW232419   3.948   4.616   4.320
 8025SOL    HW332420   3.860   4.522   4.239
 8025SOL    MW432421   3.869   4.593   4.291
 8026SOL     OW32422   4.093   4.309   5.547
 8026SOL    HW232423   4.040   4.389   5.554
 8026SOL    HW332424   4.163   4.321   5.612
 8026SOL    MW432425   4.095   4.322   5.555
 8027SOL     OW32426   4.479   3.859   5.254
 8027SOL    HW232427   4.456   3.767   5.256
 8027SOL    HW332428   4.565   3.861   5.211
 8027SOL    MW432429   4.486   3.849   5.250
 8028SOL     OW32430   4.163   4.383   5.293
 8028SOL    HW232431   4.243   4.433   5.279
 8028SOL    HW332432   4.154   4.377   5.388
 8028SOL    MW432433   4.172   4.389   5.303
 8029SOL     OW32434   4.484   5.533   4.667
 8029SOL    HW232435   4.573   5.548   4.697
 8029SOL    HW332436   4.479   5.580   4.583
 8029SOL    MW432437   4.494   5.541   4.660
 8030SOL     OW32438   5.140   3.908   5.564
 8030SOL    HW232439   5.196   3.835   5.590
 8030SOL    HW332440   5.110   3.946   5.646
 8030SOL    MW432441   5.144   3.903   5.577
 8031SOL     OW32442   3.865   5.213   4.332
 8031SOL    HW232443   3.837   5.252   4.414
 8031SOL    HW332444   3.885   5.122   4.354
 8031SOL    MW432445   3.863   5.205   4.345
 8032SOL     OW32446   4.698   5.256   4.367
 8032SOL    HW232447   4.781   5.210   4.351
 8032SOL    HW332448   4.688   5.255   4.463
 8032SOL    MW432449   4.708   5.249   4.377
 8033SOL     OW32450   5.530   4.401   4.681
 8033SOL    HW232451   5.619   4.431   4.663
 8033SOL    HW332452   5.510   4.341   4.610
 8033SOL    MW432453   5.539   4.398   4.670
 8034SOL     OW32454   5.381   4.580   5.561
 8034SOL    HW232455   5.436   4.504   5.542
 8034SOL    HW332456   5.383   4.588   5.656
 8034SOL    MW432457   5.389   4.571   5.569
 8035SOL     OW32458   4.869   3.958   3.995
 8035SOL    HW232459   4.802   3.934   3.932
 8035SOL    HW332460   4.934   4.007   3.944
 8035SOL    MW432461   4.869   3.960   3.980
 8036SOL     OW32462   4.676   4.142   5.080
 8036SOL    HW232463   4.595   4.183   5.108
 8036SOL    HW332464   4.723   4.210   5.032
 8036SOL    MW432465   4.671   4.157   5.078
 8037SOL     OW32466   4.936   4.480   4.703
 8037SOL    HW232467   4.949   4.574   4.713
 8037SOL    HW332468   4.897   4.470   4.617
 8037SOL    MW432469   4.932   4.491   4.693
 8038SOL     OW32470   4.388   4.675   4.507
 8038SOL    HW232471   4.299   4.666   4.540
 8038SOL    HW332472   4.392   4.765   4.475
 8038SOL    MW432473   4.377   4.686   4.507
 8039SOL     OW32474   5.187   4.258   4.502
 8039SOL    HW232475   5.132   4.179   4.501
 8039SOL    HW332476   5.169   4.299   4.586
 8039SOL    MW432477   5.177   4.253   4.511
 8040SOL     OW32478   4.158   3.945   5.319
 8040SOL    HW232479   4.079   3.963   5.371
 8040SOL    HW332480   4.153   4.007   5.246
 8040SOL    MW432481   4.148   3.955   5.316
 8041SOL     OW32482   4.806   4.462   4.459
 8041SOL    HW232483   4.743   4.394   4.483
 8041SOL    HW332484   4.826   4.443   4.367
 8041SOL    MW432485   4.800   4.449   4.451
 8042SOL     OW32486   4.062   5.357   4.161
 8042SOL    HW232487   4.023   5.404   4.087
 8042SOL    HW332488   3.996   5.292   4.186
 8042SOL    MW432489   4.049   5.355   4.155
 8043SOL     OW32490   4.554   4.766   4.185
 8043SOL    HW232491   4.556   4.740   4.092
 8043SOL    HW332492   4.612   4.703   4.228
 8043SOL    MW432493   4.562   4.755   4.179
 8044SOL     OW32494   5.107   5.326   4.957
 8044SOL    HW232495   5.032   5.372   4.995
 8044SOL    HW332496   5.089   5.233   4.974
 8044SOL    MW432497   5.096   5.320   4.965
 8045SOL     OW32498   5.111   5.534   4.387
 8045SOL    HW232499   5.054   5.487   4.326
 8045SOL    HW332500   5.197   5.495   4.374
 8045SOL    MW432501   5.114   5.525   4.377
 8046SOL     OW32502   5.064   4.010   4.518
 8046SOL    HW232503   5.092   3.942   4.579
 8046SOL    HW332504   4.978   3.981   4.488
 8046SOL    MW432505   5.057   3.997   4.522
 8047SOL     OW32506   3.869   4.944   4.452
 8047SOL    HW232507   3.933   4.976   4.515
 8047SOL    HW332508   3.918   4.880   4.400
 8047SOL    MW432509   3.884   4.940   4.453
 8048SOL     OW32510   4.369   5.020   5.434
 8048SOL    HW232511   4.417   5.103   5.421
 8048SOL    HW332512   4.426   4.968   5.490
 8048SOL    MW432513   4.383   5.024   5.440
 8049SOL     OW32514   3.945   5.262   5.574
 8049SOL    HW232515   4.001   5.186   5.589
 8049SOL    HW332516   3.894   5.240   5.496
 8049SOL    MW432517   3.945   5.249   5.565
 8050SOL     OW32518   5.044   4.114   3.853
 8050SOL    HW232519   5.017   4.180   3.789
 8050SOL    HW332520   5.114   4.157   3.903
 8050SOL    MW432521   5.049   4.127   3.850
 8051SOL     OW32522   4.712   3.819   3.790
 8051SOL    HW232523   4.768   3.811   3.712
 8051SOL    HW332524   4.689   3.729   3.812
 8051SOL    MW432525   4.717   3.806   3.783
 8052SOL     OW32526   5.217   4.670   3.995
 8052SOL    HW232527   5.184   4.759   3.985
 8052SOL    HW332528   5.182   4.641   4.080
 8052SOL    MW432529   5.207   4.679   4.006
 8053SOL     OW32530   4.830   5.099   5.183
 8053SOL    HW232531   4.741   5.105   5.151
 8053SOL    HW332532   4.874   5.178   5.151
 8053SOL    MW432533   4.825   5.109   5.175
 8054SOL     OW32534   4.123   3.767   5.525
 8054SOL    HW232535   4.051   3.732   5.473
 8054SOL    HW332536   4.181   3.808   5.460
 8054SOL    MW432537   4.121   3.768   5.510
 8055SOL     OW32538   4.147   5.257   4.824
 8055SOL    HW232539   4.192   5.319   4.881
 8055SOL    HW332540   4.054   5.276   4.837
 8055SOL    MW432541   4.140   5.267   4.831
 8056SOL     OW32542   5.587   4.786   5.178
 8056SOL    HW232543   5.502   4.799   5.137
 8056SOL    HW332544   5.567   4.750   5.265
 8056SOL    MW432545   5.574   4.782   5.183
 8057SOL     OW32546   4.569   5.325   4.932
 8057SOL    HW232547   4.593   5.314   4.841
 8057SOL    HW332548   4.492   5.382   4.930
 8057SOL    MW432549   4.561   5.330   4.921
 8058SOL     OW32550   4.211   4.708   3.787
 8058SOL    HW232551   4.134   4.721   3.843
 8058SOL    HW332552   4.175   4.672   3.706
 8058SOL    MW432553   4.197   4.704   3.784
 8059SOL     OW32554   4.864   4.681   4.030
 8059SOL    HW232555   4.774   4.702   4.005
 8059SOL    HW332556   4.891   4.754   4.086
 8059SOL    MW432557   4.856   4.693   4.033
 8060SOL     OW32558   4.364   5.030   4.722
 8060SOL    HW232559   4.357   5.009   4.816
 8060SOL    HW332560   4.282   4.998   4.685
 8060SOL    MW432561   4.352   5.024   4.729
 8061SOL     OW32562   5.228   4.040   5.124
 8061SOL    HW232563   5.175   4.042   5.204
 8061SOL    HW332564   5.213   3.953   5.087
 8061SOL    MW432565   5.220   4.030   5.129
 8062SOL     OW32566   5.564   3.964   4.997
 8062SOL    HW232567   5.545   4.031   4.932
 8062SOL    HW332568   5.621   3.902   4.952
 8062SOL    MW432569   5.568   3.965   4.983
 8063SOL     OW32570   3.810   5.122   5.385
 8063SOL    HW232571   3.854   5.055   5.331
 8063SOL    HW332572   3.725   5.084   5.405
 8063SOL    MW432573   3.805   5.108   5.381
 8064SOL     OW32574   4.493   3.797   4.437
 8064SOL    HW232575   4.422   3.858   4.419
 8064SOL    HW332576   4.544   3.794   4.356
 8064SOL    MW432577   4.489   3.803   4.424
 8065SOL     OW32578   4.846   5.430   5.095
 8065SOL    HW232579   4.766   5.415   5.045
 8065SOL    HW332580   4.853   5.525   5.102
 8065SOL    MW432581   4.837   5.441   5.089
 8066SOL     OW32582   4.960   5.395   4.585
 8066SOL    HW232583   5.007   5.468   4.544
 8066SOL    HW332584   4.881   5.434   4.621
 8066SOL    MW432585   4.955   5.410   4.584
 8067SOL     OW32586   5.368   5.490   4.860
 8067SOL    HW232587   5.411   5.460   4.940
 8067SOL    HW332588   5.287   5.438   4.857
 8067SOL    MW432589   5.363   5.479   4.870
 8068SOL     OW32590   4.453   4.454   5.567
 8068SOL    HW232591   4.523   4.396   5.539
 8068SOL    HW332592   4.396   4.399   5.622
 8068SOL    MW432593   4.455   4.441   5.571
 8069SOL     OW32594   5.240   4.666   5.200
 8069SOL    HW232595   5.245   4.719   5.280
 8069SOL    HW332596   5.202   4.583   5.228
 8069SOL    MW432597   5.236   4.661   5.215
 8070SOL     OW32598   4.880   3.801   5.446
 8070SOL    HW232599   4.875   3.708   5.427
 8070SOL    HW332600   4.963   3.812   5.492
 8070SOL    MW432601   4.888   3.790   5.450
 8071SOL     OW32602   4.254   4.321   3.900
 8071SOL    HW232603   4.220   4.377   3.970
 8071SOL    HW332604   4.325   4.271   3.940
 8071SOL    MW432605   4.260   4.322   3.914
 8072SOL     OW32606   5.350   5.072   4.722
 8072SOL    HW232607   5.385   5.054   4.635
 8072SOL    HW332608   5.255   5.073   4.709
 8072SOL    MW432609   5.342   5.069   4.709
 8073SOL     OW32610   4.779   4.720   5.091
 8073SOL    HW232611   4.822   4.755   5.169
 8073SOL    HW332612   4.762   4.797   5.037
 8073SOL    MW432613   4.782   4.735   5.094
 8074SOL     OW32614   5.310   4.207   3.964
 8074SOL    HW232615   5.302   4.278   3.901
 8074SOL    HW332616   5.328   4.251   4.047
 8074SOL    MW432617   5.311   4.221   3.966
 8075SOL     OW32618   4.170   3.862   4.393
 8075SOL    HW232619   4.220   3.905   4.324
 8075SOL    HW332620   4.085   3.906   4.393
 8075SOL    MW432621   4.167   3.875   4.384
 8076SOL     OW32622   3.929   4.924   5.253
 8076SOL    HW232623   3.957   4.877   5.331
 8076SOL    HW332624   3.850   4.879   5.224
 8076SOL    MW432625   3.922   4.913   5.259
 8077SOL     OW32626   4.437   4.251   5.220
 8077SOL    HW232627   4.409   4.339   5.244
 8077SOL    HW332628   4.406   4.195   5.291
 8077SOL    MW432629   4.429   4.254   5.232
 8078SOL     OW32630   4.979   4.469   3.939
 8078SOL    HW232631   5.026   4.487   3.858
 8078SOL    HW332632   4.945   4.553   3.967
 8078SOL    MW432633   4.981   4.483   3.932
 8079SOL     OW32634   4.092   4.647   4.433
 8079SOL    HW232635   4.150   4.703   4.381
 8079SOL    HW332636   4.136   4.562   4.435
 8079SOL    MW432637   4.105   4.644   4.426
 8080SOL     OW32638   5.232   3.999   4.270
 8080SOL    HW232639   5.154   3.949   4.295
 8080SOL    HW332640   5.203   4.090   4.270
 8080SOL    MW432641   5.218   4.003   4.273
 8081SOL     OW32642   4.818   3.961   4.429
 8081SOL    HW232643   4.838   4.036   4.373
 8081SOL    HW332644   4.798   4.000   4.514
 8081SOL    MW432645   4.819   3.977   4.433
 8082SOL     OW32646   4.714   5.211   3.761
 8082SOL    HW232647   4.741   5.289   3.713
 8082SOL    HW332648   4.621   5.226   3.780
 8082SOL    MW432649   4.705   5.224   3.757
 8083SOL     OW32650   5.578   4.734   5.448
 8083SOL    HW232651   5.491   4.714   5.484
 8083SOL    HW332652   5.632   4.660   5.473
 8083SOL    MW432653   5.573   4.723   5.456
 8084SOL     OW32654   3.799   5.247   4.605
 8084SOL    HW232655   3.831   5.251   4.696
 8084SOL    HW332656   3.704   5.255   4.613
 8084SOL    MW432657   3.791   5.250   4.618
 8085SOL     OW32658   3.754   4.373   4.152
 8085SOL    HW232659   3.694   4.345   4.222
 8085SOL    HW332660   3.828   4.313   4.158
 8085SOL    MW432661   3.756   4.362   4.161
 8086SOL     OW32662   5.322   5.585   5.586
 8086SOL    HW232663   5.367   5.509   5.551
 8086SOL    HW332664   5.360   5.598   5.673
 8086SOL    MW432665   5.332   5.578   5.592
 8087SOL     OW32666   4.922   5.104   4.312
 8087SOL    HW232667   4.945   5.055   4.390
 8087SOL    HW332668   5.003   5.146   4.284
 8087SOL    MW432669   4.935   5.104   4.319
 8088SOL     OW32670   4.180   4.112   5.041
 8088SOL    HW232671   4.213   4.193   5.081
 8088SOL    HW332672   4.153   4.138   4.953
 8088SOL    MW432673   4.179   4.126   5.035
 8089SOL     OW32674   4.134   4.079   4.777
 8089SOL    HW232675   4.164   3.993   4.748
 8089SOL    HW332676   4.039   4.072   4.780
 8089SOL    MW432677   4.126   4.068   4.775
 8090SOL     OW32678   4.963   4.288   5.468
 8090SOL    HW232679   5.015   4.223   5.421
 8090SOL    HW332680   4.921   4.339   5.398
 8090SOL    MW432681   4.964   4.285   5.451
 8091SOL     OW32682   5.062   4.083   5.329
 8091SOL    HW232683   4.969   4.067   5.316
 8091SOL    HW332684   5.088   4.021   5.397
 8091SOL    MW432685   5.052   4.073   5.336
 8092SOL     OW32686   4.277   3.857   4.668
 8092SOL    HW232687   4.287   3.766   4.694
 8092SOL    HW332688   4.233   3.853   4.583
 8092SOL    MW432689   4.273   3.845   4.660
 8093SOL     OW32690   4.371   5.472   5.214
 8093SOL    HW232691   4.288   5.457   5.259
 8093SOL    HW332692   4.430   5.405   5.249
 8093SOL    MW432693   4.369   5.462   5.224
 8094SOL     OW32694   5.428   4.179   4.839
 8094SOL    HW232695   5.361   4.212   4.899
 8094SOL    HW332696   5.471   4.257   4.805
 8094SOL    MW432697   5.426   4.194   4.843
 8095SOL     OW32698   5.606   4.899   4.809
 8095SOL    HW232699   5.599   4.839   4.734
 8095SOL    HW332700   5.532   4.959   4.798
 8095SOL    MW432701   5.596   4.899   4.798
 8096SOL     OW32702   4.988   4.761   4.727
 8096SOL    HW232703   5.002   4.733   4.818
 8096SOL    HW332704   5.074   4.792   4.699
 8096SOL    MW432705   5.001   4.762   4.736
 8097SOL     OW32706   5.071   4.256   5.006
 8097SOL    HW232707   5.092   4.257   4.913
 8097SOL    HW332708   5.116   4.178   5.039
 8097SOL    MW432709   5.078   4.246   4.998
 8098SOL     OW32710   5.564   4.387   5.548
 8098SOL    HW232711   5.601   4.332   5.617
 8098SOL    HW332712   5.589   4.344   5.466
 8098SOL    MW432713   5.571   4.375   5.547
 8099SOL     OW32714   5.111   4.685   5.600
 8099SOL    HW232715   5.177   4.633   5.554
 8099SOL    HW332716   5.131   4.672   5.693
 8099SOL    MW432717   5.122   4.676   5.607
 8100SOL     OW32718   5.062   3.771   3.948
 8100SOL    HW232719   5.136   3.815   3.991
 8100SOL    HW332720   4.986   3.825   3.970
 8100SOL    MW432721   5.062   3.783   3.956
 8101SOL     OW32722   5.122   4.546   4.226
 8101SOL    HW232723   5.037   4.516   4.196
 8101SOL    HW332724   5.114   4.553   4.321
 8101SOL    MW432725   5.110   4.544   4.235
 8102SOL     OW32726   4.198   5.009   4.957
 8102SOL    HW232727   4.210   5.036   5.048
 8102SOL    HW332728   4.179   5.090   4.910
 8102SOL    MW432729   4.197   5.024   4.962
 8103SOL     OW32730   4.482   3.989   4.780
 8103SOL    HW232731   4.455   3.991   4.871
 8103SOL    HW332732   4.412   3.941   4.735
 8103SOL    MW432733   4.470   3.985   4.787
 8104SOL     OW32734   4.336   5.481   4.942
 8104SOL    HW232735   4.388   5.558   4.919
 8104SOL    HW332736   4.345   5.473   5.037
 8104SOL    MW432737   4.345   5.488   4.953
 8105SOL     OW32738   5.238   5.066   5.174
 8105SOL    HW232739   5.223   4.995   5.237
 8105SOL    HW332740   5.284   5.024   5.102
 8105SOL    MW432741   5.244   5.050   5.174
 8106SOL     OW32742   4.312   4.797   5.291
 8106SOL    HW232743   4.349   4.802   5.203
 8106SOL    HW332744   4.351   4.870   5.338
 8106SOL    MW432745   4.322   4.807   5.286
 8107SOL     OW32746   4.492   4.840   5.103
 8107SOL    HW232747   4.551   4.786   5.156
 8107SOL    HW332748   4.507   4.812   5.013
 8107SOL    MW432749   4.502   4.829   5.099
 8108SOL     OW32750   4.495   4.212   3.952
 8108SOL    HW232751   4.568   4.261   3.915
 8108SOL    HW332752   4.511   4.121   3.926
 8108SOL    MW432753   4.507   4.207   3.945
 8109SOL     OW32754   5.303   5.329   5.275
 8109SOL    HW232755   5.345   5.314   5.360
 8109SOL    HW332756   5.294   5.242   5.237
 8109SOL    MW432757   5.307   5.317   5.282
 8110SOL     OW32758   4.963   3.808   4.866
 8110SOL    HW232759   5.018   3.817   4.788
 8110SOL    HW332760   5.018   3.842   4.937
 8110SOL    MW432761   4.977   3.813   4.865
 8111SOL     OW32762   3.970   4.721   4.050
 8111SOL    HW232763   3.907   4.737   3.979
 8111SOL    HW332764   3.917   4.684   4.121
 8111SOL    MW432765   3.955   4.718   4.050
 8112SOL     OW32766   4.326   5.075   3.909
 8112SOL    HW232767   4.341   5.051   4.001
 8112SOL    HW332768   4.234   5.053   3.893
 8112SOL    MW432769   4.316   5.068   3.919
 8113SOL     OW32770   4.865   5.306   4.061
 8113SOL    HW232771   4.873   5.224   4.012
 8113SOL    HW332772   4.784   5.345   4.028
 8113SOL    MW432773   4.855   5.301   4.051
 8114SOL     OW32774   4.124   5.464   4.630
 8114SOL    HW232775   4.128   5.375   4.665
 8114SOL    HW332776   4.150   5.455   4.539
 8114SOL    MW432777   4.127   5.452   4.622
 8115SOL     OW32778   4.741   4.942   4.873
 8115SOL    HW232779   4.673   4.876   4.889
 8115SOL    HW332780   4.759   4.936   4.780
 8115SOL    MW432781   4.734   4.933   4.864
 8116SOL     OW32782   3.830   5.217   5.124
 8116SOL    HW232783   3.820   5.175   5.210
 8116SOL    HW332784   3.751   5.270   5.114
 8116SOL    MW432785   3.819   5.218   5.135
 8117SOL     OW32786   4.734   4.081   4.694
 8117SOL    HW232787   4.664   4.033   4.739
 8117SOL    HW332788   4.766   4.144   4.758
 8117SOL    MW432789   4.729   4.083   4.708
 8118SOL     OW32790   4.385   4.517   5.314
 8118SOL    HW232791   4.378   4.612   5.302
 8118SOL    HW332792   4.394   4.506   5.409
 8118SOL    MW432793   4.386   4.529   5.324
 8119SOL     OW32794   4.106   5.032   5.572
 8119SOL    HW232795   4.178   5.034   5.509
 8119SOL    HW332796   4.076   4.941   5.571
 8119SOL    MW432797   4.111   5.021   5.564
 8120SOL     OW32798   5.190   3.795   5.039
 8120SOL    HW232799   5.261   3.741   5.003
 8120SOL    HW332800   5.189   3.774   5.132
 8120SOL    MW432801   5.199   3.786   5.047
 8121SOL     OW32802   5.390   5.325   5.523
 8121SOL    HW232803   5.363   5.322   5.614
 8121SOL    HW332804   5.486   5.329   5.526
 8121SOL    MW432805   5.400   5.325   5.535
 8122SOL     OW32806   4.201   4.187   4.507
 8122SOL    HW232807   4.272   4.135   4.470
 8122SOL    HW332808   4.187   4.152   4.594
 8122SOL    MW432809   4.209   4.176   4.514
 8123SOL     OW32810   3.756   5.522   5.579
 8123SOL    HW232811   3.806   5.500   5.501
 8123SOL    HW332812   3.764   5.617   5.587
 8123SOL    MW432813   3.764   5.531   5.570
 8124SOL     OW32814   4.517   5.280   4.583
 8124SOL    HW232815   4.445   5.217   4.596
 8124SOL    HW332816   4.478   5.365   4.601
 8124SOL    MW432817   4.501   5.283   4.586
 8125SOL     OW32818   4.837   4.128   4.231
 8125SOL    HW232819   4.859   4.065   4.163
 8125SOL    HW332820   4.742   4.120   4.242
 8125SOL    MW432821   4.827   4.119   4.223
 8126SOL     OW32822   3.922   3.818   4.163
 8126SOL    HW232823   3.993   3.839   4.102
 8126SOL    HW332824   3.876   3.746   4.121
 8126SOL    MW432825   3.926   3.812   4.149
 8127SOL     OW32826   3.753   4.285   5.306
 8127SOL    HW232827   3.817   4.351   5.281
 8127SOL    HW332828   3.672   4.312   5.263
 8127SOL    MW432829   3.751   4.297   5.298
 8128SOL     OW32830   5.491   5.192   4.263
 8128SOL    HW232831   5.461   5.125   4.324
 8128SOL    HW332832   5.585   5.198   4.277
 8128SOL    MW432833   5.499   5.184   4.273
 8129SOL     OW32834   5.047   4.869   4.193
 8129SOL    HW232835   5.019   4.955   4.226
 8129SOL    HW332836   5.075   4.885   4.103
 8129SOL    MW432837   5.047   4.883   4.185
 8130SOL     OW32838   4.709   3.789   4.246
 8130SOL    HW232839   4.746   3.848   4.311
 8130SOL    HW332840   4.686   3.845   4.172
 8130SOL    MW432841   4.710   3.804   4.245
 8131SOL     OW32842   5.562   4.671   4.668
 8131SOL    HW232843   5.553   4.703   4.579
 8131SOL    HW332844   5.515   4.587   4.668
 8131SOL    MW432845   5.555   4.664   4.658
 8132SOL     OW32846   3.938   4.511   5.247
 8132SOL    HW232847   3.959   4.580   5.185
 8132SOL    HW332848   4.018   4.458   5.252
 8132SOL    MW432849   3.951   4.512   5.241
 8133SOL     OW32850   5.474   4.602   4.369
 8133SOL    HW232851   5.568   4.591   4.357
 8133SOL    HW332852   5.450   4.674   4.310
 8133SOL    MW432853   5.484   4.610   4.360
 8134SOL     OW32854   3.923   4.526   5.514
 8134SOL    HW232855   3.849   4.470   5.540
 8134SOL    HW332856   3.918   4.529   5.419
 8134SOL    MW432857   3.912   4.519   5.504
 8135SOL     OW32858   4.089   3.813   4.964
 8135SOL    HW232859   4.132   3.897   4.984
 8135SOL    HW332860   4.162   3.751   4.957
 8135SOL    MW432861   4.104   3.816   4.965
 8136SOL     OW32862   4.130   4.480   4.142
 8136SOL    HW232863   4.130   4.575   4.127
 8136SOL    HW332864   4.207   4.464   4.196
 8136SOL    MW432865   4.140   4.491   4.147
 8137SOL     OW32866   4.906   4.339   5.206
 8137SOL    HW232867   4.942   4.312   5.122
 8137SOL    HW332868   4.819   4.373   5.185
 8137SOL    MW432869   4.900   4.340   5.193
 8138SOL     OW32870   3.889   4.211   4.431
 8138SOL    HW232871   3.951   4.218   4.504
 8138SOL    HW332872   3.889   4.118   4.408
 8138SOL    MW432873   3.897   4.200   4.438
 8139SOL     OW32874   5.436   5.551   3.963
 8139SOL    HW232875   5.503   5.584   3.903
 8139SOL    HW332876   5.393   5.630   3.997
 8139SOL    MW432877   5.438   5.566   3.959
 8140SOL     OW32878   4.571   4.472   4.915
 8140SOL    HW232879   4.529   4.390   4.891
 8140SOL    HW332880   4.572   4.471   5.011
 8140SOL    MW432881   4.564   4.461   4.924
 8141SOL     OW32882   5.242   5.605   5.314
 8141SOL    HW232883   5.245   5.511   5.297
 8141SOL    HW332884   5.265   5.613   5.406
 8141SOL    MW432885   5.245   5.593   5.324
 8142SOL     OW32886   4.375   3.942   5.020
 8142SOL    HW232887   4.306   4.005   5.041
 8142SOL    HW332888   4.402   3.906   5.105
 8142SOL    MW432889   4.369   3.945   5.033
 8143SOL     OW32890   3.758   4.783   3.889
 8143SOL    HW232891   3.727   4.848   3.952
 8143SOL    HW332892   3.707   4.705   3.908
 8143SOL    MW432893   3.748   4.780   3.899
 8144SOL     OW32894   5.170   3.795   4.637
 8144SOL    HW232895   5.258   3.804   4.674
 8144SOL    HW332896   5.180   3.736   4.563
 8144SOL    MW432897   5.184   3.789   4.631
 8145SOL     OW32898   5.202   4.534   4.481
 8145SOL    HW232899   5.282   4.549   4.430
 8145SOL    HW332900   5.195   4.439   4.487
 8145SOL    MW432901   5.211   4.523   4.476
 8146SOL     OW32902   4.652   4.460   5.178
 8146SOL    HW232903   4.721   4.527   5.175
 8146SOL    HW332904   4.585   4.498   5.234
 8146SOL    MW432905   4.653   4.473   5.185
 8147SOL     OW32906   4.070   4.760   5.426
 8147SOL    HW232907   4.024   4.676   5.428
 8147SOL    HW332908   4.127   4.754   5.350
 8147SOL    MW432909   4.072   4.748   5.418
 8148SOL     OW32910   5.187   4.403   3.747
 8148SOL    HW232911   5.115   4.379   3.689
 8148SOL    HW332912   5.253   4.440   3.689
 8148SOL    MW432913   5.186   4.405   3.732
 8149SOL     OW32914   4.321   5.135   4.427
 8149SOL    HW232915   4.386   5.068   4.448
 8149SOL    HW332916   4.373   5.212   4.404
 8149SOL    MW432917   4.336   5.137   4.426
 8150SOL     OW32918   4.582   4.300   4.557
 8150SOL    HW232919   4.522   4.318   4.629
 8150SOL    HW332920   4.616   4.212   4.576
 8150SOL    MW432921   4.578   4.290   4.570
 8151SOL     OW32922   5.523   3.799   5.226
 8151SOL    HW232923   5.444   3.845   5.254
 8151SOL    HW332924   5.558   3.853   5.155
 8151SOL    MW432925   5.517   3.812   5.220
 8152SOL     OW32926   4.807   4.883   4.576
 8152SOL    HW232927   4.899   4.864   4.594
 8152SOL    HW332928   4.780   4.813   4.516
 8152SOL    MW432929   4.815   4.871   4.570
 8153SOL     OW32930   4.600   4.703   3.931
 8153SOL    HW232931   4.586   4.615   3.896
 8153SOL    HW332932   4.551   4.760   3.872
 8153SOL    MW432933   4.592   4.698   3.919
 8154SOL     OW32934   5.081   5.121   4.672
 8154SOL    HW232935   5.054   5.205   4.637
 8154SOL    HW332936   5.041   5.116   4.759
 8154SOL    MW432937   5.074   5.130   4.678
 8155SOL     OW32938   5.000   5.069   4.940
 8155SOL    HW232939   5.011   5.036   5.029
 8155SOL    HW332940   4.919   5.028   4.909
 8155SOL    MW432941   4.990   5.061   4.946
 8156SOL     OW32942   4.013   4.427   4.710
 8156SOL    HW232943   3.963   4.426   4.791
 8156SOL    HW332944   4.033   4.519   4.694
 8156SOL    MW432945   4.009   4.439   4.718
 8157SOL     OW32946   5.080   5.191   5.472
 8157SOL    HW232947   5.080   5.285   5.488
 8157SOL    HW332948   5.125   5.181   5.388
 8157SOL    MW432949   5.086   5.201   5.463
 8158SOL     OW32950   5.319   3.909   4.033
 8158SOL    HW232951   5.312   3.913   4.128
 8158SOL    HW332952   5.331   4.000   4.006
 8158SOL    MW432953   5.320   3.922   4.041
 8159SOL     OW32954   4.608   4.472   4.147
 8159SOL    HW232955   4.588   4.458   4.054
 8159SOL    HW332956   4.701   4.451   4.154
 8159SOL    MW432957   4.618   4.467   4.136
 8160SOL     OW32958   3.935   4.095   5.451
 8160SOL    HW232959   3.892   4.154   5.388
 8160SOL    HW332960   4.003   4.150   5.491
 8160SOL    MW432961   3.939   4.110   5.448
 8161SOL     OW32962   5.047   4.715   4.996
 8161SOL    HW232963   5.110   4.712   5.069
 8161SOL    HW332964   4.963   4.733   5.038
 8161SOL    MW432965   5.043   4.717   5.011
 8162SOL     OW32966   4.591   5.430   4.185
 8162SOL    HW232967   4.649   5.501   4.212
 8162SOL    HW332968   4.614   5.358   4.243
 8162SOL    MW432969   4.602   5.430   4.196
 8163SOL     OW32970   5.386   3.892   4.775
 8163SOL    HW232971   5.431   3.810   4.794
 8163SOL    HW332972   5.406   3.948   4.851
 8163SOL    MW432973   5.396   3.888   4.787
 8164SOL     OW32974   3.834   3.735   4.874
 8164SOL    HW232975   3.825   3.736   4.779
 8164SOL    HW332976   3.928   3.747   4.889
 8164SOL    MW432977   3.846   3.738   4.865
 8165SOL     OW32978   5.471   4.928   4.494
 8165SOL    HW232979   5.450   4.874   4.417
 8165SOL    HW332980   5.567   4.926   4.498
 8165SOL    MW432981   5.480   4.921   4.483
 8166SOL     OW32982   4.163   5.073   5.237
 8166SOL    HW232983   4.084   5.023   5.260
 8166SOL    HW332984   4.233   5.032   5.287
 8166SOL    MW432985   4.161   5.061   5.247
 8167SOL     OW32986   4.047   3.862   3.920
 8167SOL    HW232987   3.976   3.917   3.888
 8167SOL    HW332988   4.089   3.828   3.841
 8167SOL    MW432989   4.043   3.864   3.906
 8168SOL     OW32990   5.171   4.359   4.756
 8168SOL    HW232991   5.094   4.405   4.722
 8168SOL    HW332992   5.228   4.428   4.790
 8168SOL    MW432993   5.168   4.374   4.756
 8169SOL     OW32994   3.803   3.961   3.769
 8169SOL    HW232995   3.770   4.040   3.813
 8169SOL    HW332996   3.858   3.994   3.698
 8169SOL    MW432997   3.806   3.975   3.766
 8170SOL     OW32998   5.109   5.307   4.175
 8170SOL    HW232999   5.172   5.297   4.104
 8170SOL    HW333000   5.026   5.327   4.130
 8170SOL    MW433001   5.106   5.308   4.160
 8171SOL     OW33002   5.472   4.575   5.862
 8171SOL    HW233003   5.513   4.517   5.927
 8171SOL    HW333004   5.379   4.567   5.879
 8171SOL    MW433005   5.466   4.567   5.872
 8172SOL     OW33006   4.266   4.758   6.091
 8172SOL    HW233007   4.356   4.733   6.075
 8172SOL    HW333008   4.262   4.851   6.068
 8172SOL    MW433009   4.278   4.767   6.086
 8173SOL     OW33010   5.382   5.461   6.233
 8173SOL    HW233011   5.394   5.407   6.311
 8173SOL    HW333012   5.419   5.409   6.162
 8173SOL    MW433013   5.388   5.446   6.234
 8174SOL     OW33014   4.550   4.214   6.104
 8174SOL    HW233015   4.525   4.302   6.132
 8174SOL    HW333016   4.547   4.217   6.008
 8174SOL    MW433017   4.546   4.226   6.096
 8175SOL     OW33018   3.992   4.242   6.032
 8175SOL    HW233019   4.024   4.330   6.014
 8175SOL    HW333020   3.980   4.240   6.127
 8175SOL    MW433021   3.995   4.254   6.044
 8176SOL     OW33022   4.391   3.997   6.119
 8176SOL    HW233023   4.449   4.073   6.121
 8176SOL    HW333024   4.326   4.018   6.052
 8176SOL    MW433025   4.390   4.009   6.110
 8177SOL     OW33026   4.478   4.924   6.294
 8177SOL    HW233027   4.558   4.927   6.346
 8177SOL    HW333028   4.506   4.891   6.208
 8177SOL    MW433029   4.492   4.920   6.289
 8178SOL     OW33030   4.255   4.428   6.285
 8178SOL    HW233031   4.240   4.348   6.336
 8178SOL    HW333032   4.337   4.463   6.319
 8178SOL    MW433033   4.263   4.420   6.297
 8179SOL     OW33034   4.397   4.254   6.662
 8179SOL    HW233035   4.303   4.250   6.680
 8179SOL    HW333036   4.427   4.163   6.671
 8179SOL    MW433037   4.388   4.242   6.665
 8180SOL     OW33038   4.143   4.668   6.566
 8180SOL    HW233039   4.098   4.675   6.482
 8180SOL    HW333040   4.123   4.751   6.610
 8180SOL    MW433041   4.135   4.680   6.560
 8181SOL     OW33042   3.840   5.514   6.441
 8181SOL    HW233043   3.929   5.506   6.476
 8181SOL    HW333044   3.804   5.426   6.446
 8181SOL    MW433045   3.847   5.501   6.446
 8182SOL     OW33046   5.105   4.906   5.810
 8182SOL    HW233047   5.023   4.942   5.776
 8182SOL    HW333048   5.173   4.949   5.759
 8182SOL    MW433049   5.103   4.916   5.798
 8183SOL     OW33050   4.104   5.041   6.476
 8183SOL    HW233051   4.080   5.094   6.552
 8183SOL    HW333052   4.160   5.099   6.424
 8183SOL    MW433053   4.108   5.056   6.479
 8184SOL     OW33054   4.666   4.685   6.286
 8184SOL    HW233055   4.580   4.672   6.326
 8184SOL    HW333056   4.719   4.612   6.318
 8184SOL    MW433057   4.662   4.674   6.295
 8185SOL     OW33058   4.657   5.047   6.003
 8185SOL    HW233059   4.634   5.109   6.071
 8185SOL    HW333060   4.614   4.965   6.029
 8185SOL    MW433061   4.649   5.043   6.014
 8186SOL     OW33062   4.154   4.020   5.971
 8186SOL    HW233063   4.128   3.982   5.887
 8186SOL    HW333064   4.091   4.090   5.987
 8186SOL    MW433065   4.143   4.023   5.962
 8187SOL     OW33066   3.989   4.981   6.008
 8187SOL    HW233067   3.937   5.049   5.964
 8187SOL    HW333068   3.986   4.907   5.948
 8187SOL    MW433069   3.981   4.980   5.995
 8188SOL     OW33070   4.651   5.444   5.786
 8188SOL    HW233071   4.606   5.460   5.869
 8188SOL    HW333072   4.582   5.409   5.728
 8188SOL    MW433073   4.637   5.441   5.788
 8189SOL     OW33074   5.586   4.217   5.761
 8189SOL    HW233075   5.495   4.219   5.789
 8189SOL    HW333076   5.631   4.279   5.819
 8189SOL    MW433077   5.579   4.225   5.771
 8190SOL     OW33078   5.331   4.820   6.111
 8190SOL    HW233079   5.241   4.820   6.146
 8190SOL    HW333080   5.324   4.866   6.028
 8190SOL    MW433081   5.318   4.826   6.105
 8191SOL     OW33082   3.872   5.335   6.735
 8191SOL    HW233083   3.855   5.281   6.812
 8191SOL    HW333084   3.860   5.425   6.765
 8191SOL    MW433085   3.869   5.339   6.749
 8192SOL     OW33086   5.238   4.798   6.503
 8192SOL    HW233087   5.241   4.732   6.434
 8192SOL    HW333088   5.323   4.841   6.499
 8192SOL    MW433089   5.250   4.794   6.494
 8193SOL     OW33090   4.858   4.401   6.072
 8193SOL    HW233091   4.884   4.425   5.983
 8193SOL    HW333092   4.840   4.308   6.068
 8193SOL    MW433093   4.860   4.393   6.059
 8194SOL     OW33094   5.523   5.021   5.923
 8194SOL    HW233095   5.479   5.062   5.998
 8194SOL    HW333096   5.580   5.089   5.888
 8194SOL    MW433097   5.525   5.035   5.928
 8195SOL     OW33098   4.179   5.437   6.241
 8195SOL    HW233099   4.211   5.525   6.219
 8195SOL    HW333100   4.132   5.409   6.163
 8195SOL    MW433101   4.178   5.445   6.228
 8196SOL     OW33102   5.563   3.799   6.290
 8196SOL    HW233103   5.617   3.750   6.352
 8196SOL    HW333104   5.506   3.733   6.251
 8196SOL    MW433105   5.563   3.783   6.292
 8197SOL     OW33106   3.895   5.497   5.818
 8197SOL    HW233107   3.924   5.587   5.810
 8197SOL    HW333108   3.845   5.480   5.739
 8197SOL    MW433109   3.893   5.505   5.807
 8198SOL     OW33110   5.299   5.305   5.789
 8198SOL    HW233111   5.347   5.374   5.835
 8198SOL    HW333112   5.220   5.349   5.758
 8198SOL    MW433113   5.294   5.319   5.792
 8199SOL     OW33114   4.697   4.430   5.733
 8199SOL    HW233115   4.699   4.377   5.654
 8199SOL    HW333116   4.785   4.467   5.739
 8199SOL    MW433117   4.709   4.429   5.722
 8200SOL     OW33118   5.311   4.356   6.069
 8200SOL    HW233119   5.350   4.356   6.156
 8200SOL    HW333120   5.252   4.432   6.069
 8200SOL    MW433121   5.308   4.367   6.080
 8201SOL     OW33122   4.797   4.349   6.792
 8201SOL    HW233123   4.872   4.378   6.739
 8201SOL    HW333124   4.729   4.414   6.776
 8201SOL    MW433125   4.798   4.361   6.782
 8202SOL     OW33126   5.498   4.242   6.235
 8202SOL    HW233127   5.587   4.211   6.252
 8202SOL    HW333128   5.441   4.182   6.283
 8202SOL    MW433129   5.501   4.230   6.244
 8203SOL     OW33130   3.924   3.956   6.264
 8203SOL    HW233131   3.915   3.896   6.190
 8203SOL    HW333132   3.857   3.927   6.327
 8203SOL    MW433133   3.914   3.943   6.262
 8204SOL     OW33134   4.867   5.049   5.825
 8204SOL    HW233135   4.817   5.051   5.907
 8204SOL    HW333136   4.801   5.067   5.757
 8204SOL    MW433137   4.853   5.051   5.827
 8205SOL     OW33138   3.871   4.129   6.627
 8205SOL    HW233139   3.843   4.220   6.636
 8205SOL    HW333140   3.808   4.090   6.566
 8205SOL    MW433141   3.858   4.135   6.621
 8206SOL     OW33142   4.330   5.467   5.933
 8206SOL    HW233143   4.251   5.425   5.966
 8206SOL    HW333144   4.396   5.450   6.000
 8206SOL    MW433145   4.329   5.459   5.946
 8207SOL     OW33146   4.466   4.882   5.640
 8207SOL    HW233147   4.388   4.828   5.627
 8207SOL    HW333148   4.437   4.955   5.693
 8207SOL    MW433149   4.452   4.884   5.645
 8208SOL     OW33150   5.047   5.398   5.708
 8208SOL    HW233151   4.973   5.361   5.758
 8208SOL    HW333152   5.055   5.488   5.741
 8208SOL    MW433153   5.038   5.405   5.720
 8209SOL     OW33154   5.271   5.072   5.650
 8209SOL    HW233155   5.218   5.121   5.586
 8209SOL    HW333156   5.302   5.138   5.711
 8209SOL    MW433157   5.269   5.086   5.648
 8210SOL     OW33158   4.496   3.961   5.705
 8210SOL    HW233159   4.444   3.881   5.693
 8210SOL    HW333160   4.583   3.938   5.673
 8210SOL    MW433161   4.499   3.947   5.699
 8211SOL     OW33162   4.002   4.832   6.756
 8211SOL    HW233163   4.055   4.907   6.781
 8211SOL    HW333164   3.921   4.870   6.722
 8211SOL    MW433165   3.998   4.847   6.756
 8212SOL     OW33166   4.542   4.736   6.744
 8212SOL    HW233167   4.570   4.645   6.756
 8212SOL    HW333168   4.471   4.730   6.680
 8212SOL    MW433169   4.535   4.724   6.739
 8213SOL     OW33170   3.857   4.601   6.162
 8213SOL    HW233171   3.948   4.616   6.189
 8213SOL    HW333172   3.860   4.522   6.108
 8213SOL    MW433173   3.869   4.593   6.160
 8214SOL     OW33174   4.484   5.533   6.536
 8214SOL    HW233175   4.573   5.548   6.566
 8214SOL    HW333176   4.479   5.580   6.452
 8214SOL    MW433177   4.494   5.541   6.529
 8215SOL     OW33178   3.865   5.213   6.201
 8215SOL    HW233179   3.837   5.252   6.283
 8215SOL    HW333180   3.885   5.122   6.223
 8215SOL    MW433181   3.863   5.205   6.214
 8216SOL     OW33182   4.698   5.256   6.236
 8216SOL    HW233183   4.781   5.210   6.220
 8216SOL    HW333184   4.688   5.255   6.332
 8216SOL    MW433185   4.708   5.249   6.246
 8217SOL     OW33186   5.530   4.401   6.550
 8217SOL    HW233187   5.619   4.431   6.532
 8217SOL    HW333188   5.510   4.341   6.479
 8217SOL    MW433189   5.539   4.398   6.539
 8218SOL     OW33190   4.431   5.313   5.641
 8218SOL    HW233191   4.371   5.382   5.611
 8218SOL    HW333192   4.376   5.255   5.694
 8218SOL    MW433193   4.415   5.315   5.643
 8219SOL     OW33194   4.869   3.958   5.864
 8219SOL    HW233195   4.802   3.934   5.801
 8219SOL    HW333196   4.934   4.007   5.813
 8219SOL    MW433197   4.869   3.960   5.849
 8220SOL     OW33198   4.936   4.480   6.572
 8220SOL    HW233199   4.949   4.574   6.582
 8220SOL    HW333200   4.897   4.470   6.486
 8220SOL    MW433201   4.932   4.491   6.562
 8221SOL     OW33202   4.388   4.675   6.376
 8221SOL    HW233203   4.299   4.666   6.409
 8221SOL    HW333204   4.392   4.765   6.344
 8221SOL    MW433205   4.377   4.686   6.376
 8222SOL     OW33206   5.187   4.258   6.371
 8222SOL    HW233207   5.132   4.179   6.370
 8222SOL    HW333208   5.169   4.299   6.455
 8222SOL    MW433209   5.177   4.253   6.380
 8223SOL     OW33210   4.806   4.462   6.328
 8223SOL    HW233211   4.743   4.394   6.352
 8223SOL    HW333212   4.826   4.443   6.236
 8223SOL    MW433213   4.800   4.449   6.320
 8224SOL     OW33214   4.062   5.357   6.030
 8224SOL    HW233215   4.023   5.404   5.956
 8224SOL    HW333216   3.996   5.292   6.055
 8224SOL    MW433217   4.049   5.355   6.024
 8225SOL     OW33218   4.554   4.766   6.054
 8225SOL    HW233219   4.556   4.740   5.961
 8225SOL    HW333220   4.612   4.703   6.097
 8225SOL    MW433221   4.562   4.755   6.048
 8226SOL     OW33222   5.111   5.534   6.256
 8226SOL    HW233223   5.054   5.487   6.195
 8226SOL    HW333224   5.197   5.495   6.243
 8226SOL    MW433225   5.114   5.525   6.246
 8227SOL     OW33226   5.064   4.010   6.387
 8227SOL    HW233227   5.092   3.942   6.448
 8227SOL    HW333228   4.978   3.981   6.357
 8227SOL    MW433229   5.057   3.997   6.391
 8228SOL     OW33230   3.869   4.944   6.321
 8228SOL    HW233231   3.933   4.976   6.384
 8228SOL    HW333232   3.918   4.880   6.269
 8228SOL    MW433233   3.884   4.940   6.322
 8229SOL     OW33234   5.044   4.114   5.722
 8229SOL    HW233235   5.017   4.180   5.658
 8229SOL    HW333236   5.114   4.157   5.772
 8229SOL    MW433237   5.049   4.127   5.719
 8230SOL     OW33238   4.712   3.819   5.659
 8230SOL    HW233239   4.768   3.811   5.581
 8230SOL    HW333240   4.689   3.729   5.681
 8230SOL    MW433241   4.717   3.806   5.652
 8231SOL     OW33242   5.217   4.670   5.864
 8231SOL    HW233243   5.184   4.759   5.854
 8231SOL    HW333244   5.182   4.641   5.949
 8231SOL    MW433245   5.207   4.679   5.875
 8232SOL     OW33246   4.147   5.257   6.693
 8232SOL    HW233247   4.192   5.319   6.750
 8232SOL    HW333248   4.054   5.276   6.706
 8232SOL    MW433249   4.140   5.267   6.700
 8233SOL     OW33250   4.569   5.325   6.801
 8233SOL    HW233251   4.593   5.314   6.710
 8233SOL    HW333252   4.492   5.382   6.799
 8233SOL    MW433253   4.561   5.330   6.790
 8234SOL     OW33254   4.211   4.708   5.656
 8234SOL    HW233255   4.134   4.721   5.712
 8234SOL    HW333256   4.175   4.672   5.575
 8234SOL    MW433257   4.197   4.704   5.653
 8235SOL     OW33258   4.864   4.681   5.899
 8235SOL    HW233259   4.774   4.702   5.874
 8235SOL    HW333260   4.891   4.754   5.955
 8235SOL    MW433261   4.856   4.693   5.902
 8236SOL     OW33262   4.364   5.030   6.591
 8236SOL    HW233263   4.357   5.009   6.685
 8236SOL    HW333264   4.282   4.998   6.554
 8236SOL    MW433265   4.352   5.024   6.598
 8237SOL     OW33266   4.493   3.797   6.306
 8237SOL    HW233267   4.422   3.858   6.288
 8237SOL    HW333268   4.544   3.794   6.225
 8237SOL    MW433269   4.489   3.803   6.293
 8238SOL     OW33270   4.251   5.037   6.055
 8238SOL    HW233271   4.244   5.069   6.145
 8238SOL    HW333272   4.161   5.021   6.027
 8238SOL    MW433273   4.239   5.039   6.062
 8239SOL     OW33274   4.960   5.395   6.454
 8239SOL    HW233275   5.007   5.468   6.413
 8239SOL    HW333276   4.881   5.434   6.490
 8239SOL    MW433277   4.955   5.410   6.453
 8240SOL     OW33278   4.254   4.321   5.769
 8240SOL    HW233279   4.220   4.377   5.839
 8240SOL    HW333280   4.325   4.271   5.809
 8240SOL    MW433281   4.260   4.322   5.783
 8241SOL     OW33282   5.350   5.072   6.591
 8241SOL    HW233283   5.385   5.054   6.504
 8241SOL    HW333284   5.255   5.073   6.578
 8241SOL    MW433285   5.342   5.069   6.578
 8242SOL     OW33286   5.310   4.207   5.833
 8242SOL    HW233287   5.302   4.278   5.770
 8242SOL    HW333288   5.328   4.251   5.916
 8242SOL    MW433289   5.311   4.221   5.835
 8243SOL     OW33290   4.170   3.862   6.262
 8243SOL    HW233291   4.220   3.905   6.193
 8243SOL    HW333292   4.085   3.906   6.262
 8243SOL    MW433293   4.167   3.875   6.253
 8244SOL     OW33294   4.979   4.469   5.808
 8244SOL    HW233295   5.026   4.487   5.727
 8244SOL    HW333296   4.945   4.553   5.836
 8244SOL    MW433297   4.981   4.483   5.801
 8245SOL     OW33298   4.092   4.647   6.302
 8245SOL    HW233299   4.150   4.703   6.250
 8245SOL    HW333300   4.136   4.562   6.304
 8245SOL    MW433301   4.105   4.644   6.295
 8246SOL     OW33302   5.232   3.999   6.139
 8246SOL    HW233303   5.154   3.949   6.164
 8246SOL    HW333304   5.203   4.090   6.139
 8246SOL    MW433305   5.218   4.003   6.142
 8247SOL     OW33306   4.818   3.961   6.298
 8247SOL    HW233307   4.838   4.036   6.242
 8247SOL    HW333308   4.798   4.000   6.383
 8247SOL    MW433309   4.819   3.977   6.302
 8248SOL     OW33310   4.714   5.211   5.630
 8248SOL    HW233311   4.741   5.289   5.582
 8248SOL    HW333312   4.621   5.226   5.649
 8248SOL    MW433313   4.705   5.224   5.626
 8249SOL     OW33314   3.799   5.247   6.474
 8249SOL    HW233315   3.831   5.251   6.565
 8249SOL    HW333316   3.704   5.255   6.482
 8249SOL    MW433317   3.791   5.250   6.487
 8250SOL     OW33318   3.754   4.373   6.021
 8250SOL    HW233319   3.694   4.345   6.091
 8250SOL    HW333320   3.828   4.313   6.027
 8250SOL    MW433321   3.756   4.362   6.030
 8251SOL     OW33322   4.922   5.104   6.181
 8251SOL    HW233323   4.945   5.055   6.259
 8251SOL    HW333324   5.003   5.146   6.153
 8251SOL    MW433325   4.935   5.104   6.188
 8252SOL     OW33326   4.134   4.079   6.646
 8252SOL    HW233327   4.164   3.993   6.617
 8252SOL    HW333328   4.039   4.072   6.649
 8252SOL    MW433329   4.126   4.068   6.644
 8253SOL     OW33330   4.277   3.857   6.537
 8253SOL    HW233331   4.287   3.766   6.563
 8253SOL    HW333332   4.233   3.853   6.452
 8253SOL    MW433333   4.273   3.845   6.529
 8254SOL     OW33334   5.428   4.179   6.708
 8254SOL    HW233335   5.361   4.212   6.768
 8254SOL    HW333336   5.471   4.257   6.674
 8254SOL    MW433337   5.426   4.194   6.712
 8255SOL     OW33338   5.606   4.899   6.678
 8255SOL    HW233339   5.599   4.839   6.603
 8255SOL    HW333340   5.532   4.959   6.667
 8255SOL    MW433341   5.596   4.899   6.667
 8256SOL     OW33342   4.988   4.761   6.596
 8256SOL    HW233343   5.002   4.733   6.687
 8256SOL    HW333344   5.074   4.792   6.568
 8256SOL    MW433345   5.001   4.762   6.605
 8257SOL     OW33346   5.062   3.771   5.817
 8257SOL    HW233347   5.136   3.815   5.860
 8257SOL    HW333348   4.986   3.825   5.839
 8257SOL    MW433349   5.062   3.783   5.825
 8258SOL     OW33350   5.122   4.546   6.095
 8258SOL    HW233351   5.037   4.516   6.065
 8258SOL    HW333352   5.114   4.553   6.190
 8258SOL    MW433353   5.110   4.544   6.104
 8259SOL     OW33354   4.482   3.989   6.649
 8259SOL    HW233355   4.455   3.991   6.740
 8259SOL    HW333356   4.412   3.941   6.604
 8259SOL    MW433357   4.470   3.985   6.656
 8260SOL     OW33358   4.495   4.212   5.821
 8260SOL    HW233359   4.568   4.261   5.784
 8260SOL    HW333360   4.511   4.121   5.795
 8260SOL    MW433361   4.507   4.207   5.814
 8261SOL     OW33362   4.963   3.808   6.735
 8261SOL    HW233363   5.018   3.817   6.657
 8261SOL    HW333364   5.018   3.842   6.806
 8261SOL    MW433365   4.977   3.813   6.734
 8262SOL     OW33366   3.970   4.721   5.919
 8262SOL    HW233367   3.907   4.737   5.848
 8262SOL    HW333368   3.917   4.684   5.990
 8262SOL    MW433369   3.955   4.718   5.919
 8263SOL     OW33370   4.326   5.075   5.778
 8263SOL    HW233371   4.341   5.051   5.870
 8263SOL    HW333372   4.234   5.053   5.762
 8263SOL    MW433373   4.316   5.068   5.788
 8264SOL     OW33374   4.865   5.306   5.930
 8264SOL    HW233375   4.873   5.224   5.881
 8264SOL    HW333376   4.784   5.345   5.897
 8264SOL    MW433377   4.855   5.301   5.920
 8265SOL     OW33378   4.124   5.464   6.499
 8265SOL    HW233379   4.128   5.375   6.534
 8265SOL    HW333380   4.150   5.455   6.408
 8265SOL    MW433381   4.127   5.452   6.491
 8266SOL     OW33382   4.741   4.942   6.742
 8266SOL    HW233383   4.673   4.876   6.758
 8266SOL    HW333384   4.759   4.936   6.649
 8266SOL    MW433385   4.734   4.933   6.733
 8267SOL     OW33386   4.734   4.081   6.563
 8267SOL    HW233387   4.664   4.033   6.608
 8267SOL    HW333388   4.766   4.144   6.627
 8267SOL    MW433389   4.729   4.083   6.577
 8268SOL     OW33390   4.201   4.187   6.376
 8268SOL    HW233391   4.272   4.135   6.339
 8268SOL    HW333392   4.187   4.152   6.463
 8268SOL    MW433393   4.209   4.176   6.383
 8269SOL     OW33394   4.517   5.280   6.452
 8269SOL    HW233395   4.445   5.217   6.465
 8269SOL    HW333396   4.478   5.365   6.470
 8269SOL    MW433397   4.501   5.283   6.455
 8270SOL     OW33398   4.837   4.128   6.100
 8270SOL    HW233399   4.859   4.065   6.032
 8270SOL    HW333400   4.742   4.120   6.111
 8270SOL    MW433401   4.827   4.119   6.092
 8271SOL     OW33402   3.922   3.818   6.032
 8271SOL    HW233403   3.993   3.839   5.971
 8271SOL    HW333404   3.876   3.746   5.990
 8271SOL    MW433405   3.926   3.812   6.018
 8272SOL     OW33406   5.491   5.192   6.132
 8272SOL    HW233407   5.461   5.125   6.193
 8272SOL    HW333408   5.585   5.198   6.146
 8272SOL    MW433409   5.499   5.184   6.142
 8273SOL     OW33410   5.047   4.869   6.062
 8273SOL    HW233411   5.019   4.955   6.095
 8273SOL    HW333412   5.075   4.885   5.972
 8273SOL    MW433413   5.047   4.883   6.054
 8274SOL     OW33414   4.709   3.789   6.115
 8274SOL    HW233415   4.746   3.848   6.180
 8274SOL    HW333416   4.686   3.845   6.041
 8274SOL    MW433417   4.710   3.804   6.114
 8275SOL     OW33418   5.562   4.671   6.537
 8275SOL    HW233419   5.553   4.703   6.448
 8275SOL    HW333420   5.515   4.587   6.537
 8275SOL    MW433421   5.555   4.664   6.527
 8276SOL     OW33422   5.474   4.602   6.238
 8276SOL    HW233423   5.568   4.591   6.226
 8276SOL    HW333424   5.450   4.674   6.179
 8276SOL    MW433425   5.484   4.610   6.229
 8277SOL     OW33426   4.130   4.480   6.011
 8277SOL    HW233427   4.130   4.575   5.996
 8277SOL    HW333428   4.207   4.464   6.065
 8277SOL    MW433429   4.140   4.491   6.016
 8278SOL     OW33430   3.889   4.211   6.300
 8278SOL    HW233431   3.951   4.218   6.373
 8278SOL    HW333432   3.889   4.118   6.277
 8278SOL    MW433433   3.897   4.200   6.307
 8279SOL     OW33434   5.436   5.551   5.832
 8279SOL    HW233435   5.503   5.584   5.772
 8279SOL    HW333436   5.393   5.630   5.866
 8279SOL    MW433437   5.438   5.566   5.828
 8280SOL     OW33438   4.571   4.472   6.784
 8280SOL    HW233439   4.529   4.390   6.760
 8280SOL    HW333440   4.572   4.471   6.880
 8280SOL    MW433441   4.564   4.461   6.793
 8281SOL     OW33442   3.758   4.783   5.758
 8281SOL    HW233443   3.727   4.848   5.821
 8281SOL    HW333444   3.707   4.705   5.777
 8281SOL    MW433445   3.748   4.780   5.768
 8282SOL     OW33446   5.202   4.534   6.350
 8282SOL    HW233447   5.282   4.549   6.299
 8282SOL    HW333448   5.195   4.439   6.356
 8282SOL    MW433449   5.211   4.523   6.345
 8283SOL     OW33450   4.342   5.583   5.700
 8283SOL    HW233451   4.247   5.583   5.692
 8283SOL    HW333452   4.358   5.529   5.778
 8283SOL    MW433453   4.332   5.577   5.709
 8284SOL     OW33454   5.187   4.403   5.615
 8284SOL    HW233455   5.115   4.379   5.557
 8284SOL    HW333456   5.253   4.440   5.557
 8284SOL    MW433457   5.186   4.405   5.600
 8285SOL     OW33458   4.321   5.135   6.296
 8285SOL    HW233459   4.386   5.068   6.317
 8285SOL    HW333460   4.373   5.212   6.273
 8285SOL    MW433461   4.336   5.137   6.295
 8286SOL     OW33462   4.582   4.300   6.426
 8286SOL    HW233463   4.522   4.318   6.498
 8286SOL    HW333464   4.616   4.212   6.445
 8286SOL    MW433465   4.578   4.290   6.439
 8287SOL     OW33466   4.807   4.883   6.445
 8287SOL    HW233467   4.899   4.864   6.463
 8287SOL    HW333468   4.780   4.813   6.385
 8287SOL    MW433469   4.815   4.871   6.439
 8288SOL     OW33470   4.600   4.703   5.800
 8288SOL    HW233471   4.586   4.615   5.765
 8288SOL    HW333472   4.551   4.760   5.741
 8288SOL    MW433473   4.592   4.698   5.788
 8289SOL     OW33474   5.081   5.121   6.541
 8289SOL    HW233475   5.054   5.205   6.506
 8289SOL    HW333476   5.041   5.116   6.628
 8289SOL    MW433477   5.074   5.130   6.547
 8290SOL     OW33478   4.013   4.427   6.579
 8290SOL    HW233479   3.963   4.426   6.660
 8290SOL    HW333480   4.033   4.519   6.563
 8290SOL    MW433481   4.009   4.439   6.587
 8291SOL     OW33482   5.319   3.909   5.902
 8291SOL    HW233483   5.312   3.913   5.997
 8291SOL    HW333484   5.331   4.000   5.875
 8291SOL    MW433485   5.320   3.922   5.910
 8292SOL     OW33486   4.608   4.472   6.016
 8292SOL    HW233487   4.588   4.458   5.923
 8292SOL    HW333488   4.701   4.451   6.023
 8292SOL    MW433489   4.618   4.467   6.005
 8293SOL     OW33490   4.591   5.430   6.054
 8293SOL    HW233491   4.649   5.501   6.081
 8293SOL    HW333492   4.614   5.358   6.112
 8293SOL    MW433493   4.602   5.430   6.065
 8294SOL     OW33494   3.834   3.735   6.743
 8294SOL    HW233495   3.825   3.736   6.648
 8294SOL    HW333496   3.928   3.747   6.758
 8294SOL    MW433497   3.846   3.738   6.734
 8295SOL     OW33498   5.471   4.928   6.363
 8295SOL    HW233499   5.450   4.874   6.286
 8295SOL    HW333500   5.567   4.926   6.367
 8295SOL    MW433501   5.480   4.921   6.352
 8296SOL     OW33502   4.047   3.862   5.789
 8296SOL    HW233503   3.976   3.917   5.757
 8296SOL    HW333504   4.089   3.828   5.710
 8296SOL    MW433505   4.043   3.864   5.775
 8297SOL     OW33506   5.171   4.359   6.625
 8297SOL    HW233507   5.094   4.405   6.591
 8297SOL    HW333508   5.228   4.428   6.659
 8297SOL    MW433509   5.168   4.374   6.625
 8298SOL     OW33510   3.803   3.961   5.638
 8298SOL    HW233511   3.770   4.040   5.682
 8298SOL    HW333512   3.858   3.994   5.567
 8298SOL    MW433513   3.806   3.975   5.635
 8299SOL     OW33514   3.837   5.218   5.827
 8299SOL    HW233515   3.854   5.302   5.869
 8299SOL    HW333516   3.872   5.227   5.739
 8299SOL    MW433517   3.842   5.231   5.821
 8300SOL     OW33518   5.109   5.307   6.044
 8300SOL    HW233519   5.172   5.297   5.973
 8300SOL    HW333520   5.026   5.327   5.999
 8300SOL    MW433521   5.106   5.308   6.029
 8301SOL     OW33522   5.472   6.444   0.257
 8301SOL    HW233523   5.513   6.386   0.322
 8301SOL    HW333524   5.379   6.436   0.274
 8301SOL    MW433525   5.466   6.436   0.267
 8302SOL     OW33526   5.338   6.376   1.252
 8302SOL    HW233527   5.293   6.443   1.303
 8302SOL    HW333528   5.426   6.412   1.238
 8302SOL    MW433529   5.344   6.389   1.256
 8303SOL     OW33530   4.266   6.627   0.486
 8303SOL    HW233531   4.356   6.602   0.470
 8303SOL    HW333532   4.262   6.720   0.463
 8303SOL    MW433533   4.278   6.636   0.481
 8304SOL     OW33534   5.382   7.330   0.628
 8304SOL    HW233535   5.394   7.276   0.706
 8304SOL    HW333536   5.419   7.278   0.557
 8304SOL    MW433537   5.388   7.315   0.629
 8305SOL     OW33538   4.761   7.215   1.629
 8305SOL    HW233539   4.802   7.251   1.550
 8305SOL    HW333540   4.796   7.126   1.636
 8305SOL    MW433541   4.772   7.208   1.620
 8306SOL     OW33542   5.318   6.770   1.233
 8306SOL    HW233543   5.239   6.735   1.191
 8306SOL    HW333544   5.345   6.842   1.177
 8306SOL    MW433545   5.311   6.775   1.220
 8307SOL     OW33546   4.550   6.083   0.499
 8307SOL    HW233547   4.525   6.171   0.527
 8307SOL    HW333548   4.547   6.086   0.403
 8307SOL    MW433549   4.546   6.095   0.491
 8308SOL     OW33550   3.992   6.111   0.427
 8308SOL    HW233551   4.024   6.199   0.409
 8308SOL    HW333552   3.980   6.109   0.522
 8308SOL    MW433553   3.995   6.123   0.439
 8309SOL     OW33554   4.070   6.524   1.328
 8309SOL    HW233555   4.133   6.471   1.279
 8309SOL    HW333556   4.051   6.598   1.271
 8309SOL    MW433557   4.076   6.526   1.315
 8310SOL     OW33558   4.391   5.866   0.514
 8310SOL    HW233559   4.449   5.942   0.516
 8310SOL    HW333560   4.326   5.887   0.447
 8310SOL    MW433561   4.390   5.878   0.505
 8311SOL     OW33562   4.478   6.793   0.689
 8311SOL    HW233563   4.558   6.796   0.741
 8311SOL    HW333564   4.506   6.760   0.603
 8311SOL    MW433565   4.492   6.789   0.684
 8312SOL     OW33566   4.503   7.134   1.592
 8312SOL    HW233567   4.587   7.160   1.631
 8312SOL    HW333568   4.527   7.078   1.518
 8312SOL    MW433569   4.517   7.130   1.587
 8313SOL     OW33570   4.255   6.297   0.680
 8313SOL    HW233571   4.240   6.217   0.731
 8313SOL    HW333572   4.337   6.332   0.714
 8313SOL    MW433573   4.263   6.289   0.692
 8314SOL     OW33574   4.592   6.983   1.365
 8314SOL    HW233575   4.556   7.049   1.305
 8314SOL    HW333576   4.520   6.921   1.378
 8314SOL    MW433577   4.578   6.983   1.359
 8315SOL     OW33578   4.397   6.123   1.057
 8315SOL    HW233579   4.303   6.119   1.075
 8315SOL    HW333580   4.427   6.032   1.066
 8315SOL    MW433581   4.388   6.111   1.060
 8316SOL     OW33582   4.143   6.537   0.961
 8316SOL    HW233583   4.098   6.544   0.877
 8316SOL    HW333584   4.123   6.620   1.005
 8316SOL    MW433585   4.135   6.549   0.955
 8317SOL     OW33586   3.840   7.383   0.836
 8317SOL    HW233587   3.929   7.375   0.871
 8317SOL    HW333588   3.804   7.295   0.841
 8317SOL    MW433589   3.847   7.370   0.841
 8318SOL     OW33590   5.105   6.775   0.205
 8318SOL    HW233591   5.023   6.811   0.171
 8318SOL    HW333592   5.173   6.818   0.154
 8318SOL    MW433593   5.103   6.785   0.193
 8319SOL     OW33594   4.104   6.910   0.871
 8319SOL    HW233595   4.080   6.963   0.947
 8319SOL    HW333596   4.160   6.968   0.819
 8319SOL    MW433597   4.108   6.925   0.874
 8320SOL     OW33598   4.666   6.554   0.681
 8320SOL    HW233599   4.580   6.541   0.721
 8320SOL    HW333600   4.719   6.481   0.713
 8320SOL    MW433601   4.662   6.543   0.690
 8321SOL     OW33602   4.074   7.206   1.466
 8321SOL    HW233603   3.982   7.182   1.451
 8321SOL    HW333604   4.118   7.123   1.483
 8321SOL    MW433605   4.068   7.191   1.465
 8322SOL     OW33606   4.657   6.916   0.398
 8322SOL    HW233607   4.634   6.978   0.466
 8322SOL    HW333608   4.614   6.834   0.424
 8322SOL    MW433609   4.649   6.912   0.409
 8323SOL     OW33610   5.530   5.917   0.854
 8323SOL    HW233611   5.467   5.897   0.923
 8323SOL    HW333612   5.520   5.846   0.791
 8323SOL    MW433613   5.520   5.904   0.855
 8324SOL     OW33614   4.154   5.889   0.366
 8324SOL    HW233615   4.128   5.851   0.282
 8324SOL    HW333616   4.091   5.959   0.382
 8324SOL    MW433617   4.143   5.892   0.357
 8325SOL     OW33618   3.989   6.850   0.403
 8325SOL    HW233619   3.937   6.918   0.359
 8325SOL    HW333620   3.986   6.776   0.343
 8325SOL    MW433621   3.981   6.849   0.390
 8326SOL     OW33622   4.651   7.313   0.181
 8326SOL    HW233623   4.606   7.329   0.264
 8326SOL    HW333624   4.582   7.278   0.123
 8326SOL    MW433625   4.637   7.310   0.183
 8327SOL     OW33626   5.331   6.689   0.506
 8327SOL    HW233627   5.241   6.689   0.541
 8327SOL    HW333628   5.324   6.735   0.423
 8327SOL    MW433629   5.318   6.695   0.500
 8328SOL     OW33630   5.131   6.324   1.578
 8328SOL    HW233631   5.200   6.262   1.555
 8328SOL    HW333632   5.056   6.298   1.525
 8328SOL    MW433633   5.131   6.311   1.569
 8329SOL     OW33634   3.872   7.204   1.130
 8329SOL    HW233635   3.855   7.150   1.207
 8329SOL    HW333636   3.860   7.294   1.160
 8329SOL    MW433637   3.869   7.208   1.144
 8330SOL     OW33638   4.867   6.711   1.570
 8330SOL    HW233639   4.852   6.804   1.555
 8330SOL    HW333640   4.962   6.701   1.570
 8330SOL    MW433641   4.876   6.721   1.567
 8331SOL     OW33642   4.663   6.135   1.771
 8331SOL    HW233643   4.753   6.136   1.738
 8331SOL    HW333644   4.622   6.060   1.729
 8331SOL    MW433645   4.669   6.125   1.762
 8332SOL     OW33646   5.238   6.667   0.898
 8332SOL    HW233647   5.241   6.601   0.829
 8332SOL    HW333648   5.323   6.710   0.894
 8332SOL    MW433649   5.250   6.663   0.889
 8333SOL     OW33650   4.858   6.270   0.467
 8333SOL    HW233651   4.884   6.294   0.378
 8333SOL    HW333652   4.840   6.177   0.463
 8333SOL    MW433653   4.860   6.262   0.454
 8334SOL     OW33654   5.523   6.890   0.318
 8334SOL    HW233655   5.479   6.931   0.393
 8334SOL    HW333656   5.580   6.958   0.283
 8334SOL    MW433657   5.525   6.904   0.323
 8335SOL     OW33658   4.443   5.939   1.721
 8335SOL    HW233659   4.453   5.865   1.661
 8335SOL    HW333660   4.479   5.908   1.804
 8335SOL    MW433661   4.449   5.925   1.723
 8336SOL     OW33662   4.179   7.306   0.636
 8336SOL    HW233663   4.211   7.394   0.614
 8336SOL    HW333664   4.132   7.278   0.558
 8336SOL    MW433665   4.178   7.314   0.623
 8337SOL     OW33666   5.563   5.668   0.685
 8337SOL    HW233667   5.617   5.619   0.747
 8337SOL    HW333668   5.506   5.602   0.646
 8337SOL    MW433669   5.563   5.652   0.687
 8338SOL     OW33670   4.682   5.621   1.098
 8338SOL    HW233671   4.641   5.699   1.060
 8338SOL    HW333672   4.776   5.639   1.093
 8338SOL    MW433673   4.688   5.633   1.093
 8339SOL     OW33674   4.697   6.299   0.128
 8339SOL    HW233675   4.699   6.246   0.049
 8339SOL    HW333676   4.785   6.336   0.134
 8339SOL    MW433677   4.709   6.298   0.117
 8340SOL     OW33678   5.311   6.225   0.464
 8340SOL    HW233679   5.350   6.225   0.551
 8340SOL    HW333680   5.252   6.301   0.464
 8340SOL    MW433681   5.308   6.236   0.475
 8341SOL     OW33682   4.628   6.592   1.593
 8341SOL    HW233683   4.605   6.572   1.683
 8341SOL    HW333684   4.713   6.636   1.598
 8341SOL    MW433685   4.635   6.595   1.605
 8342SOL     OW33686   4.797   6.218   1.187
 8342SOL    HW233687   4.872   6.247   1.134
 8342SOL    HW333688   4.729   6.283   1.171
 8342SOL    MW433689   4.798   6.230   1.177
 8343SOL     OW33690   5.347   6.186   1.464
 8343SOL    HW233691   5.328   6.095   1.443
 8343SOL    HW333692   5.325   6.235   1.385
 8343SOL    MW433693   5.342   6.179   1.451
 8344SOL     OW33694   5.489   7.280   1.368
 8344SOL    HW233695   5.417   7.242   1.419
 8344SOL    HW333696   5.506   7.365   1.409
 8344SOL    MW433697   5.483   7.285   1.380
 8345SOL     OW33698   4.794   5.924   1.570
 8345SOL    HW233699   4.760   5.963   1.489
 8345SOL    HW333700   4.772   5.832   1.563
 8345SOL    MW433701   4.787   5.917   1.560
 8346SOL     OW33702   5.203   6.738   1.646
 8346SOL    HW233703   5.285   6.779   1.676
 8346SOL    HW333704   5.166   6.700   1.726
 8346SOL    MW433705   5.209   6.739   1.661
 8347SOL     OW33706   5.498   6.111   0.630
 8347SOL    HW233707   5.587   6.080   0.647
 8347SOL    HW333708   5.441   6.051   0.678
 8347SOL    MW433709   5.501   6.099   0.639
 8348SOL     OW33710   3.924   5.825   0.659
 8348SOL    HW233711   3.915   5.765   0.585
 8348SOL    HW333712   3.857   5.796   0.722
 8348SOL    MW433713   3.914   5.812   0.657
 8349SOL     OW33714   4.867   6.918   0.220
 8349SOL    HW233715   4.817   6.920   0.302
 8349SOL    HW333716   4.801   6.936   0.152
 8349SOL    MW433717   4.853   6.920   0.222
 8350SOL     OW33718   3.871   5.998   1.022
 8350SOL    HW233719   3.843   6.089   1.031
 8350SOL    HW333720   3.808   5.959   0.961
 8350SOL    MW433721   3.858   6.004   1.016
 8351SOL     OW33722   4.330   7.336   0.328
 8351SOL    HW233723   4.251   7.294   0.361
 8351SOL    HW333724   4.396   7.319   0.395
 8351SOL    MW433725   4.329   7.328   0.341
 8352SOL     OW33726   5.458   6.856   1.725
 8352SOL    HW233727   5.508   6.782   1.757
 8352SOL    HW333728   5.404   6.883   1.800
 8352SOL    MW433729   5.458   6.850   1.738
 8353SOL     OW33730   4.466   6.751   0.035
 8353SOL    HW233731   4.388   6.697   0.022
 8353SOL    HW333732   4.437   6.824   0.088
 8353SOL    MW433733   4.452   6.753   0.040
 8354SOL     OW33734   5.592   6.491   1.227
 8354SOL    HW233735   5.608   6.529   1.140
 8354SOL    HW333736   5.626   6.557   1.288
 8354SOL    MW433737   5.599   6.504   1.223
 8355SOL     OW33738   5.384   7.200   0.896
 8355SOL    HW233739   5.413   7.267   0.957
 8355SOL    HW333740   5.365   7.124   0.951
 8355SOL    MW433741   5.386   7.200   0.911
 8356SOL     OW33742   5.047   7.267   0.103
 8356SOL    HW233743   4.973   7.230   0.153
 8356SOL    HW333744   5.055   7.357   0.136
 8356SOL    MW433745   5.038   7.274   0.115
 8357SOL     OW33746   3.855   6.273   1.192
 8357SOL    HW233747   3.917   6.303   1.258
 8357SOL    HW333748   3.789   6.342   1.186
 8357SOL    MW433749   3.854   6.286   1.199
 8358SOL     OW33750   5.271   6.941   0.045
 8358SOL    HW233751   5.218   6.990  -0.019
 8358SOL    HW333752   5.302   7.007   0.106
 8358SOL    MW433753   5.269   6.955   0.043
 8359SOL     OW33754   4.496   5.830   0.100
 8359SOL    HW233755   4.444   5.750   0.088
 8359SOL    HW333756   4.583   5.807   0.068
 8359SOL    MW433757   4.499   5.816   0.094
 8360SOL     OW33758   3.950   7.382   1.644
 8360SOL    HW233759   3.924   7.450   1.582
 8360SOL    HW333760   3.998   7.319   1.592
 8360SOL    MW433761   3.952   7.382   1.630
 8361SOL     OW33762   4.002   6.701   1.151
 8361SOL    HW233763   4.055   6.776   1.176
 8361SOL    HW333764   3.921   6.739   1.117
 8361SOL    MW433765   3.998   6.716   1.151
 8362SOL     OW33766   4.542   6.605   1.139
 8362SOL    HW233767   4.570   6.514   1.151
 8362SOL    HW333768   4.471   6.599   1.075
 8362SOL    MW433769   4.535   6.593   1.134
 8363SOL     OW33770   3.857   6.470   0.557
 8363SOL    HW233771   3.948   6.485   0.584
 8363SOL    HW333772   3.860   6.391   0.503
 8363SOL    MW433773   3.869   6.462   0.555
 8364SOL     OW33774   4.093   6.178   1.811
 8364SOL    HW233775   4.040   6.258   1.818
 8364SOL    HW333776   4.163   6.190   1.876
 8364SOL    MW433777   4.095   6.191   1.819
 8365SOL     OW33778   4.163   6.252   1.557
 8365SOL    HW233779   4.243   6.302   1.543
 8365SOL    HW333780   4.154   6.246   1.652
 8365SOL    MW433781   4.172   6.258   1.567
 8366SOL     OW33782   4.484   7.402   0.931
 8366SOL    HW233783   4.573   7.417   0.961
 8366SOL    HW333784   4.479   7.449   0.847
 8366SOL    MW433785   4.494   7.410   0.924
 8367SOL     OW33786   3.865   7.082   0.596
 8367SOL    HW233787   3.837   7.121   0.678
 8367SOL    HW333788   3.885   6.991   0.618
 8367SOL    MW433789   3.863   7.074   0.609
 8368SOL     OW33790   4.698   7.125   0.631
 8368SOL    HW233791   4.781   7.079   0.615
 8368SOL    HW333792   4.688   7.124   0.727
 8368SOL    MW433793   4.708   7.118   0.641
 8369SOL     OW33794   5.530   6.270   0.945
 8369SOL    HW233795   5.619   6.300   0.927
 8369SOL    HW333796   5.510   6.210   0.874
 8369SOL    MW433797   5.539   6.267   0.934
 8370SOL     OW33798   5.381   6.449   1.825
 8370SOL    HW233799   5.436   6.373   1.806
 8370SOL    HW333800   5.383   6.457   1.920
 8370SOL    MW433801   5.389   6.440   1.833
 8371SOL     OW33802   4.431   7.182   0.036
 8371SOL    HW233803   4.371   7.251   0.006
 8371SOL    HW333804   4.376   7.124   0.089
 8371SOL    MW433805   4.415   7.184   0.038
 8372SOL     OW33806   4.869   5.827   0.259
 8372SOL    HW233807   4.802   5.803   0.196
 8372SOL    HW333808   4.934   5.876   0.208
 8372SOL    MW433809   4.869   5.829   0.244
 8373SOL     OW33810   4.676   6.011   1.344
 8373SOL    HW233811   4.595   6.052   1.372
 8373SOL    HW333812   4.723   6.079   1.296
 8373SOL    MW433813   4.671   6.026   1.342
 8374SOL     OW33814   4.936   6.349   0.967
 8374SOL    HW233815   4.949   6.443   0.977
 8374SOL    HW333816   4.897   6.339   0.881
 8374SOL    MW433817   4.932   6.360   0.957
 8375SOL     OW33818   4.388   6.544   0.771
 8375SOL    HW233819   4.299   6.535   0.804
 8375SOL    HW333820   4.392   6.634   0.739
 8375SOL    MW433821   4.377   6.555   0.771
 8376SOL     OW33822   5.187   6.127   0.766
 8376SOL    HW233823   5.132   6.048   0.765
 8376SOL    HW333824   5.169   6.168   0.850
 8376SOL    MW433825   5.177   6.122   0.775
 8377SOL     OW33826   4.158   5.814   1.583
 8377SOL    HW233827   4.079   5.832   1.635
 8377SOL    HW333828   4.153   5.876   1.510
 8377SOL    MW433829   4.148   5.824   1.580
 8378SOL     OW33830   4.806   6.331   0.723
 8378SOL    HW233831   4.743   6.263   0.747
 8378SOL    HW333832   4.826   6.312   0.631
 8378SOL    MW433833   4.800   6.318   0.715
 8379SOL     OW33834   4.062   7.226   0.425
 8379SOL    HW233835   4.023   7.273   0.351
 8379SOL    HW333836   3.996   7.161   0.450
 8379SOL    MW433837   4.049   7.224   0.419
 8380SOL     OW33838   4.554   6.635   0.449
 8380SOL    HW233839   4.556   6.609   0.356
 8380SOL    HW333840   4.612   6.572   0.492
 8380SOL    MW433841   4.562   6.624   0.443
 8381SOL     OW33842   5.107   7.195   1.221
 8381SOL    HW233843   5.032   7.241   1.259
 8381SOL    HW333844   5.089   7.102   1.238
 8381SOL    MW433845   5.096   7.189   1.229
 8382SOL     OW33846   5.111   7.403   0.651
 8382SOL    HW233847   5.054   7.356   0.590
 8382SOL    HW333848   5.197   7.364   0.638
 8382SOL    MW433849   5.114   7.394   0.641
 8383SOL     OW33850   5.064   5.879   0.782
 8383SOL    HW233851   5.092   5.811   0.843
 8383SOL    HW333852   4.978   5.850   0.752
 8383SOL    MW433853   5.057   5.866   0.786
 8384SOL     OW33854   3.869   6.813   0.716
 8384SOL    HW233855   3.933   6.845   0.779
 8384SOL    HW333856   3.918   6.749   0.664
 8384SOL    MW433857   3.884   6.809   0.717
 8385SOL     OW33858   4.369   6.889   1.698
 8385SOL    HW233859   4.417   6.972   1.685
 8385SOL    HW333860   4.426   6.837   1.754
 8385SOL    MW433861   4.383   6.893   1.704
 8386SOL     OW33862   3.945   7.131   1.838
 8386SOL    HW233863   4.001   7.055   1.853
 8386SOL    HW333864   3.894   7.109   1.760
 8386SOL    MW433865   3.945   7.118   1.829
 8387SOL     OW33866   5.044   5.983   0.117
 8387SOL    HW233867   5.017   6.049   0.053
 8387SOL    HW333868   5.114   6.026   0.167
 8387SOL    MW433869   5.049   5.996   0.114
 8388SOL     OW33870   4.712   5.688   0.054
 8388SOL    HW233871   4.768   5.680  -0.024
 8388SOL    HW333872   4.689   5.598   0.076
 8388SOL    MW433873   4.717   5.675   0.047
 8389SOL     OW33874   5.217   6.539   0.259
 8389SOL    HW233875   5.184   6.628   0.249
 8389SOL    HW333876   5.182   6.510   0.344
 8389SOL    MW433877   5.207   6.548   0.270
 8390SOL     OW33878   4.830   6.968   1.447
 8390SOL    HW233879   4.741   6.974   1.415
 8390SOL    HW333880   4.874   7.047   1.415
 8390SOL    MW433881   4.825   6.978   1.439
 8391SOL     OW33882   4.123   5.636   1.789
 8391SOL    HW233883   4.051   5.601   1.737
 8391SOL    HW333884   4.181   5.677   1.724
 8391SOL    MW433885   4.121   5.637   1.774
 8392SOL     OW33886   4.147   7.126   1.088
 8392SOL    HW233887   4.192   7.188   1.145
 8392SOL    HW333888   4.054   7.145   1.101
 8392SOL    MW433889   4.140   7.136   1.095
 8393SOL     OW33890   5.587   6.655   1.442
 8393SOL    HW233891   5.502   6.668   1.401
 8393SOL    HW333892   5.567   6.619   1.529
 8393SOL    MW433893   5.574   6.651   1.447
 8394SOL     OW33894   4.569   7.194   1.196
 8394SOL    HW233895   4.593   7.183   1.105
 8394SOL    HW333896   4.492   7.251   1.194
 8394SOL    MW433897   4.561   7.199   1.185
 8395SOL     OW33898   4.211   6.577   0.051
 8395SOL    HW233899   4.134   6.590   0.107
 8395SOL    HW333900   4.175   6.541  -0.030
 8395SOL    MW433901   4.197   6.573   0.048
 8396SOL     OW33902   4.864   6.550   0.294
 8396SOL    HW233903   4.774   6.571   0.269
 8396SOL    HW333904   4.891   6.623   0.350
 8396SOL    MW433905   4.856   6.562   0.297
 8397SOL     OW33906   4.364   6.899   0.986
 8397SOL    HW233907   4.357   6.878   1.080
 8397SOL    HW333908   4.282   6.867   0.949
 8397SOL    MW433909   4.352   6.893   0.993
 8398SOL     OW33910   5.564   5.833   1.261
 8398SOL    HW233911   5.545   5.900   1.196
 8398SOL    HW333912   5.621   5.771   1.216
 8398SOL    MW433913   5.568   5.834   1.247
 8399SOL     OW33914   3.810   6.991   1.649
 8399SOL    HW233915   3.854   6.924   1.595
 8399SOL    HW333916   3.725   6.953   1.669
 8399SOL    MW433917   3.805   6.977   1.645
 8400SOL     OW33918   4.493   5.666   0.701
 8400SOL    HW233919   4.422   5.727   0.683
 8400SOL    HW333920   4.544   5.663   0.620
 8400SOL    MW433921   4.489   5.672   0.688
 8401SOL     OW33922   4.251   6.906   0.450
 8401SOL    HW233923   4.244   6.938   0.540
 8401SOL    HW333924   4.161   6.890   0.422
 8401SOL    MW433925   4.239   6.908   0.457
 8402SOL     OW33926   4.846   7.299   1.359
 8402SOL    HW233927   4.766   7.284   1.309
 8402SOL    HW333928   4.853   7.394   1.366
 8402SOL    MW433929   4.837   7.310   1.353
 8403SOL     OW33930   4.960   7.264   0.849
 8403SOL    HW233931   5.007   7.337   0.808
 8403SOL    HW333932   4.881   7.303   0.885
 8403SOL    MW433933   4.955   7.279   0.848
 8404SOL     OW33934   5.368   7.359   1.124
 8404SOL    HW233935   5.411   7.329   1.204
 8404SOL    HW333936   5.287   7.307   1.121
 8404SOL    MW433937   5.363   7.348   1.134
 8405SOL     OW33938   4.453   6.323   1.831
 8405SOL    HW233939   4.523   6.265   1.803
 8405SOL    HW333940   4.396   6.268   1.886
 8405SOL    MW433941   4.455   6.310   1.835
 8406SOL     OW33942   5.240   6.535   1.464
 8406SOL    HW233943   5.245   6.588   1.544
 8406SOL    HW333944   5.202   6.452   1.492
 8406SOL    MW433945   5.236   6.530   1.479
 8407SOL     OW33946   4.254   6.190   0.164
 8407SOL    HW233947   4.220   6.246   0.234
 8407SOL    HW333948   4.325   6.140   0.204
 8407SOL    MW433949   4.260   6.191   0.178
 8408SOL     OW33950   5.350   6.941   0.986
 8408SOL    HW233951   5.385   6.923   0.899
 8408SOL    HW333952   5.255   6.942   0.973
 8408SOL    MW433953   5.342   6.938   0.973
 8409SOL     OW33954   4.779   6.589   1.355
 8409SOL    HW233955   4.822   6.624   1.433
 8409SOL    HW333956   4.762   6.666   1.301
 8409SOL    MW433957   4.782   6.604   1.358
 8410SOL     OW33958   5.310   6.076   0.228
 8410SOL    HW233959   5.302   6.147   0.165
 8410SOL    HW333960   5.328   6.120   0.311
 8410SOL    MW433961   5.311   6.090   0.230
 8411SOL     OW33962   4.170   5.731   0.657
 8411SOL    HW233963   4.220   5.774   0.588
 8411SOL    HW333964   4.085   5.775   0.657
 8411SOL    MW433965   4.167   5.744   0.648
 8412SOL     OW33966   3.929   6.793   1.517
 8412SOL    HW233967   3.957   6.746   1.595
 8412SOL    HW333968   3.850   6.748   1.488
 8412SOL    MW433969   3.922   6.782   1.523
 8413SOL     OW33970   4.437   6.120   1.484
 8413SOL    HW233971   4.409   6.208   1.508
 8413SOL    HW333972   4.406   6.064   1.555
 8413SOL    MW433973   4.429   6.123   1.496
 8414SOL     OW33974   4.979   6.338   0.203
 8414SOL    HW233975   5.026   6.356   0.122
 8414SOL    HW333976   4.945   6.422   0.231
 8414SOL    MW433977   4.981   6.352   0.196
 8415SOL     OW33978   4.092   6.516   0.697
 8415SOL    HW233979   4.150   6.572   0.645
 8415SOL    HW333980   4.136   6.431   0.699
 8415SOL    MW433981   4.105   6.513   0.690
 8416SOL     OW33982   5.232   5.868   0.534
 8416SOL    HW233983   5.154   5.818   0.559
 8416SOL    HW333984   5.203   5.959   0.534
 8416SOL    MW433985   5.218   5.872   0.537
 8417SOL     OW33986   4.818   5.830   0.693
 8417SOL    HW233987   4.838   5.905   0.637
 8417SOL    HW333988   4.798   5.869   0.778
 8417SOL    MW433989   4.819   5.846   0.697
 8418SOL     OW33990   4.714   7.080   0.025
 8418SOL    HW233991   4.741   7.158  -0.023
 8418SOL    HW333992   4.621   7.095   0.044
 8418SOL    MW433993   4.705   7.093   0.021
 8419SOL     OW33994   5.578   6.603   1.712
 8419SOL    HW233995   5.491   6.583   1.748
 8419SOL    HW333996   5.632   6.529   1.737
 8419SOL    MW433997   5.573   6.592   1.720
 8420SOL     OW33998   3.799   7.116   0.869
 8420SOL    HW233999   3.831   7.120   0.960
 8420SOL    HW334000   3.704   7.124   0.877
 8420SOL    MW434001   3.791   7.119   0.882
 8421SOL     OW34002   3.754   6.242   0.416
 8421SOL    HW234003   3.694   6.214   0.486
 8421SOL    HW334004   3.828   6.182   0.422
 8421SOL    MW434005   3.756   6.231   0.425
 8422SOL     OW34006   4.922   6.973   0.576
 8422SOL    HW234007   4.945   6.924   0.654
 8422SOL    HW334008   5.003   7.015   0.548
 8422SOL    MW434009   4.935   6.973   0.583
 8423SOL     OW34010   4.180   5.981   1.305
 8423SOL    HW234011   4.213   6.062   1.345
 8423SOL    HW334012   4.153   6.007   1.217
 8423SOL    MW434013   4.179   5.995   1.299
 8424SOL     OW34014   4.134   5.948   1.041
 8424SOL    HW234015   4.164   5.862   1.012
 8424SOL    HW334016   4.039   5.941   1.044
 8424SOL    MW434017   4.126   5.937   1.039
 8425SOL     OW34018   4.963   6.157   1.732
 8425SOL    HW234019   5.015   6.092   1.685
 8425SOL    HW334020   4.921   6.208   1.662
 8425SOL    MW434021   4.964   6.154   1.715
 8426SOL     OW34022   5.062   5.952   1.593
 8426SOL    HW234023   4.969   5.936   1.580
 8426SOL    HW334024   5.088   5.890   1.661
 8426SOL    MW434025   5.052   5.942   1.600
 8427SOL     OW34026   4.277   5.726   0.932
 8427SOL    HW234027   4.287   5.635   0.958
 8427SOL    HW334028   4.233   5.722   0.847
 8427SOL    MW434029   4.273   5.714   0.924
 8428SOL     OW34030   4.371   7.341   1.478
 8428SOL    HW234031   4.288   7.326   1.523
 8428SOL    HW334032   4.430   7.274   1.513
 8428SOL    MW434033   4.369   7.331   1.488
 8429SOL     OW34034   5.428   6.048   1.103
 8429SOL    HW234035   5.361   6.081   1.163
 8429SOL    HW334036   5.471   6.126   1.069
 8429SOL    MW434037   5.426   6.063   1.107
 8430SOL     OW34038   5.606   6.768   1.073
 8430SOL    HW234039   5.599   6.708   0.998
 8430SOL    HW334040   5.532   6.828   1.062
 8430SOL    MW434041   5.596   6.768   1.062
 8431SOL     OW34042   4.988   6.630   0.991
 8431SOL    HW234043   5.002   6.602   1.082
 8431SOL    HW334044   5.074   6.661   0.963
 8431SOL    MW434045   5.001   6.631   1.000
 8432SOL     OW34046   5.564   6.256   1.812
 8432SOL    HW234047   5.601   6.201   1.881
 8432SOL    HW334048   5.589   6.213   1.730
 8432SOL    MW434049   5.571   6.244   1.811
 8433SOL     OW34050   5.111   6.554   1.863
 8433SOL    HW234051   5.177   6.502   1.817
 8433SOL    HW334052   5.131   6.541   1.956
 8433SOL    MW434053   5.122   6.545   1.870
 8434SOL     OW34054   5.062   5.640   0.212
 8434SOL    HW234055   5.136   5.684   0.255
 8434SOL    HW334056   4.986   5.694   0.234
 8434SOL    MW434057   5.062   5.652   0.220
 8435SOL     OW34058   5.122   6.415   0.490
 8435SOL    HW234059   5.037   6.385   0.460
 8435SOL    HW334060   5.114   6.422   0.585
 8435SOL    MW434061   5.110   6.413   0.499
 8436SOL     OW34062   4.198   6.878   1.221
 8436SOL    HW234063   4.210   6.905   1.312
 8436SOL    HW334064   4.179   6.959   1.174
 8436SOL    MW434065   4.197   6.893   1.226
 8437SOL     OW34066   4.482   5.858   1.044
 8437SOL    HW234067   4.455   5.860   1.135
 8437SOL    HW334068   4.412   5.810   0.999
 8437SOL    MW434069   4.470   5.854   1.051
 8438SOL     OW34070   4.336   7.350   1.206
 8438SOL    HW234071   4.388   7.427   1.183
 8438SOL    HW334072   4.345   7.342   1.301
 8438SOL    MW434073   4.345   7.357   1.217
 8439SOL     OW34074   5.238   6.935   1.438
 8439SOL    HW234075   5.223   6.864   1.501
 8439SOL    HW334076   5.284   6.893   1.366
 8439SOL    MW434077   5.244   6.919   1.438
 8440SOL     OW34078   4.312   6.666   1.555
 8440SOL    HW234079   4.349   6.671   1.467
 8440SOL    HW334080   4.351   6.739   1.602
 8440SOL    MW434081   4.322   6.676   1.550
 8441SOL     OW34082   4.492   6.709   1.367
 8441SOL    HW234083   4.551   6.655   1.420
 8441SOL    HW334084   4.507   6.681   1.277
 8441SOL    MW434085   4.502   6.698   1.363
 8442SOL     OW34086   4.495   6.081   0.216
 8442SOL    HW234087   4.568   6.130   0.179
 8442SOL    HW334088   4.511   5.990   0.190
 8442SOL    MW434089   4.507   6.076   0.209
 8443SOL     OW34090   5.303   7.198   1.539
 8443SOL    HW234091   5.345   7.183   1.624
 8443SOL    HW334092   5.294   7.111   1.501
 8443SOL    MW434093   5.307   7.186   1.546
 8444SOL     OW34094   3.970   6.590   0.314
 8444SOL    HW234095   3.907   6.606   0.243
 8444SOL    HW334096   3.917   6.553   0.385
 8444SOL    MW434097   3.955   6.587   0.314
 8445SOL     OW34098   4.326   6.944   0.173
 8445SOL    HW234099   4.341   6.920   0.265
 8445SOL    HW334100   4.234   6.922   0.157
 8445SOL    MW434101   4.316   6.937   0.183
 8446SOL     OW34102   4.865   7.175   0.325
 8446SOL    HW234103   4.873   7.093   0.276
 8446SOL    HW334104   4.784   7.214   0.292
 8446SOL    MW434105   4.855   7.170   0.315
 8447SOL     OW34106   4.124   7.333   0.894
 8447SOL    HW234107   4.128   7.244   0.929
 8447SOL    HW334108   4.150   7.324   0.803
 8447SOL    MW434109   4.127   7.321   0.886
 8448SOL     OW34110   4.741   6.811   1.137
 8448SOL    HW234111   4.673   6.745   1.153
 8448SOL    HW334112   4.759   6.805   1.044
 8448SOL    MW434113   4.734   6.802   1.128
 8449SOL     OW34114   3.830   7.086   1.388
 8449SOL    HW234115   3.820   7.044   1.474
 8449SOL    HW334116   3.751   7.139   1.378
 8449SOL    MW434117   3.819   7.087   1.399
 8450SOL     OW34118   4.734   5.950   0.958
 8450SOL    HW234119   4.664   5.902   1.003
 8450SOL    HW334120   4.766   6.013   1.022
 8450SOL    MW434121   4.729   5.952   0.972
 8451SOL     OW34122   4.385   6.386   1.578
 8451SOL    HW234123   4.378   6.481   1.566
 8451SOL    HW334124   4.394   6.375   1.673
 8451SOL    MW434125   4.386   6.398   1.588
 8452SOL     OW34126   4.106   6.901   1.836
 8452SOL    HW234127   4.178   6.903   1.773
 8452SOL    HW334128   4.076   6.810   1.835
 8452SOL    MW434129   4.111   6.890   1.828
 8453SOL     OW34130   5.390   7.194   1.787
 8453SOL    HW234131   5.363   7.191   1.878
 8453SOL    HW334132   5.486   7.198   1.790
 8453SOL    MW434133   5.400   7.194   1.799
 8454SOL     OW34134   4.201   6.056   0.771
 8454SOL    HW234135   4.272   6.004   0.734
 8454SOL    HW334136   4.187   6.021   0.858
 8454SOL    MW434137   4.209   6.045   0.778
 8455SOL     OW34138   4.517   7.149   0.847
 8455SOL    HW234139   4.445   7.086   0.860
 8455SOL    HW334140   4.478   7.234   0.865
 8455SOL    MW434141   4.501   7.152   0.850
 8456SOL     OW34142   4.837   5.997   0.495
 8456SOL    HW234143   4.859   5.934   0.427
 8456SOL    HW334144   4.742   5.989   0.506
 8456SOL    MW434145   4.827   5.988   0.487
 8457SOL     OW34146   3.922   5.687   0.427
 8457SOL    HW234147   3.993   5.708   0.366
 8457SOL    HW334148   3.876   5.615   0.385
 8457SOL    MW434149   3.926   5.681   0.413
 8458SOL     OW34150   3.753   6.154   1.570
 8458SOL    HW234151   3.817   6.220   1.545
 8458SOL    HW334152   3.672   6.181   1.527
 8458SOL    MW434153   3.751   6.166   1.562
 8459SOL     OW34154   5.491   7.061   0.527
 8459SOL    HW234155   5.461   6.994   0.588
 8459SOL    HW334156   5.585   7.067   0.541
 8459SOL    MW434157   5.499   7.053   0.537
 8460SOL     OW34158   5.047   6.738   0.457
 8460SOL    HW234159   5.019   6.824   0.490
 8460SOL    HW334160   5.075   6.754   0.367
 8460SOL    MW434161   5.047   6.752   0.449
 8461SOL     OW34162   4.709   5.658   0.510
 8461SOL    HW234163   4.746   5.717   0.575
 8461SOL    HW334164   4.686   5.714   0.436
 8461SOL    MW434165   4.710   5.673   0.509
 8462SOL     OW34166   5.562   6.540   0.932
 8462SOL    HW234167   5.553   6.572   0.843
 8462SOL    HW334168   5.515   6.456   0.932
 8462SOL    MW434169   5.555   6.533   0.922
 8463SOL     OW34170   3.938   6.380   1.511
 8463SOL    HW234171   3.959   6.449   1.449
 8463SOL    HW334172   4.018   6.327   1.516
 8463SOL    MW434173   3.951   6.381   1.505
 8464SOL     OW34174   5.474   6.471   0.633
 8464SOL    HW234175   5.568   6.460   0.621
 8464SOL    HW334176   5.450   6.543   0.574
 8464SOL    MW434177   5.484   6.479   0.624
 8465SOL     OW34178   3.923   6.395   1.778
 8465SOL    HW234179   3.849   6.339   1.804
 8465SOL    HW334180   3.918   6.398   1.683
 8465SOL    MW434181   3.912   6.388   1.768
 8466SOL     OW34182   4.089   5.682   1.228
 8466SOL    HW234183   4.132   5.766   1.248
 8466SOL    HW334184   4.162   5.620   1.221
 8466SOL    MW434185   4.104   5.685   1.229
 8467SOL     OW34186   4.130   6.349   0.406
 8467SOL    HW234187   4.130   6.444   0.391
 8467SOL    HW334188   4.207   6.333   0.460
 8467SOL    MW434189   4.140   6.360   0.411
 8468SOL     OW34190   4.906   6.208   1.470
 8468SOL    HW234191   4.942   6.181   1.386
 8468SOL    HW334192   4.819   6.242   1.449
 8468SOL    MW434193   4.900   6.209   1.457
 8469SOL     OW34194   3.889   6.080   0.695
 8469SOL    HW234195   3.951   6.087   0.768
 8469SOL    HW334196   3.889   5.987   0.672
 8469SOL    MW434197   3.897   6.069   0.702
 8470SOL     OW34198   4.571   6.341   1.179
 8470SOL    HW234199   4.529   6.259   1.155
 8470SOL    HW334200   4.572   6.340   1.275
 8470SOL    MW434201   4.564   6.330   1.188
 8471SOL     OW34202   3.758   6.652   0.153
 8471SOL    HW234203   3.727   6.717   0.216
 8471SOL    HW334204   3.707   6.574   0.172
 8471SOL    MW434205   3.748   6.649   0.163
 8472SOL     OW34206   5.170   5.664   0.901
 8472SOL    HW234207   5.258   5.673   0.938
 8472SOL    HW334208   5.180   5.605   0.827
 8472SOL    MW434209   5.184   5.658   0.895
 8473SOL     OW34210   5.202   6.403   0.745
 8473SOL    HW234211   5.282   6.418   0.694
 8473SOL    HW334212   5.195   6.308   0.751
 8473SOL    MW434213   5.211   6.392   0.740
 8474SOL     OW34214   4.342   7.452   0.095
 8474SOL    HW234215   4.247   7.452   0.087
 8474SOL    HW334216   4.358   7.398   0.173
 8474SOL    MW434217   4.332   7.446   0.104
 8475SOL     OW34218   4.652   6.329   1.442
 8475SOL    HW234219   4.721   6.396   1.439
 8475SOL    HW334220   4.585   6.367   1.498
 8475SOL    MW434221   4.653   6.342   1.449
 8476SOL     OW34222   4.070   6.629   1.690
 8476SOL    HW234223   4.024   6.545   1.692
 8476SOL    HW334224   4.127   6.623   1.614
 8476SOL    MW434225   4.072   6.617   1.682
 8477SOL     OW34226   5.187   6.272   0.011
 8477SOL    HW234227   5.115   6.248  -0.047
 8477SOL    HW334228   5.253   6.309  -0.047
 8477SOL    MW434229   5.186   6.274  -0.004
 8478SOL     OW34230   4.321   7.004   0.691
 8478SOL    HW234231   4.386   6.937   0.712
 8478SOL    HW334232   4.373   7.081   0.668
 8478SOL    MW434233   4.336   7.006   0.690
 8479SOL     OW34234   4.582   6.169   0.821
 8479SOL    HW234235   4.522   6.187   0.893
 8479SOL    HW334236   4.616   6.081   0.840
 8479SOL    MW434237   4.578   6.159   0.834
 8480SOL     OW34238   5.523   5.668   1.490
 8480SOL    HW234239   5.444   5.714   1.518
 8480SOL    HW334240   5.558   5.722   1.419
 8480SOL    MW434241   5.517   5.681   1.484
 8481SOL     OW34242   4.807   6.752   0.840
 8481SOL    HW234243   4.899   6.733   0.858
 8481SOL    HW334244   4.780   6.682   0.780
 8481SOL    MW434245   4.815   6.740   0.834
 8482SOL     OW34246   4.600   6.572   0.195
 8482SOL    HW234247   4.586   6.484   0.160
 8482SOL    HW334248   4.551   6.629   0.136
 8482SOL    MW434249   4.592   6.567   0.183
 8483SOL     OW34250   5.081   6.990   0.936
 8483SOL    HW234251   5.054   7.074   0.901
 8483SOL    HW334252   5.041   6.985   1.023
 8483SOL    MW434253   5.074   6.999   0.942
 8484SOL     OW34254   5.000   6.938   1.204
 8484SOL    HW234255   5.011   6.905   1.293
 8484SOL    HW334256   4.919   6.897   1.173
 8484SOL    MW434257   4.990   6.930   1.210
 8485SOL     OW34258   4.013   6.296   0.974
 8485SOL    HW234259   3.963   6.295   1.055
 8485SOL    HW334260   4.033   6.388   0.958
 8485SOL    MW434261   4.009   6.308   0.982
 8486SOL     OW34262   5.080   7.060   1.736
 8486SOL    HW234263   5.080   7.154   1.752
 8486SOL    HW334264   5.125   7.050   1.652
 8486SOL    MW434265   5.086   7.070   1.727
 8487SOL     OW34266   5.319   5.778   0.297
 8487SOL    HW234267   5.312   5.782   0.392
 8487SOL    HW334268   5.331   5.869   0.270
 8487SOL    MW434269   5.320   5.791   0.305
 8488SOL     OW34270   4.608   6.341   0.411
 8488SOL    HW234271   4.588   6.327   0.318
 8488SOL    HW334272   4.701   6.320   0.418
 8488SOL    MW434273   4.618   6.336   0.400
 8489SOL     OW34274   3.935   5.964   1.715
 8489SOL    HW234275   3.892   6.023   1.652
 8489SOL    HW334276   4.003   6.019   1.755
 8489SOL    MW434277   3.939   5.979   1.712
 8490SOL     OW34278   5.047   6.584   1.260
 8490SOL    HW234279   5.110   6.581   1.333
 8490SOL    HW334280   4.963   6.602   1.302
 8490SOL    MW434281   5.043   6.586   1.275
 8491SOL     OW34282   4.591   7.299   0.449
 8491SOL    HW234283   4.649   7.370   0.476
 8491SOL    HW334284   4.614   7.227   0.507
 8491SOL    MW434285   4.602   7.299   0.460
 8492SOL     OW34286   5.386   5.761   1.039
 8492SOL    HW234287   5.431   5.679   1.058
 8492SOL    HW334288   5.406   5.817   1.115
 8492SOL    MW434289   5.396   5.757   1.051
 8493SOL     OW34290   3.834   5.604   1.138
 8493SOL    HW234291   3.825   5.605   1.043
 8493SOL    HW334292   3.928   5.616   1.153
 8493SOL    MW434293   3.846   5.607   1.129
 8494SOL     OW34294   5.471   6.797   0.758
 8494SOL    HW234295   5.450   6.743   0.681
 8494SOL    HW334296   5.567   6.795   0.762
 8494SOL    MW434297   5.480   6.790   0.747
 8495SOL     OW34298   4.163   6.942   1.501
 8495SOL    HW234299   4.084   6.892   1.524
 8495SOL    HW334300   4.233   6.901   1.551
 8495SOL    MW434301   4.161   6.930   1.511
 8496SOL     OW34302   4.047   5.731   0.184
 8496SOL    HW234303   3.976   5.786   0.152
 8496SOL    HW334304   4.089   5.697   0.105
 8496SOL    MW434305   4.043   5.733   0.170
 8497SOL     OW34306   5.171   6.228   1.020
 8497SOL    HW234307   5.094   6.274   0.986
 8497SOL    HW334308   5.228   6.297   1.054
 8497SOL    MW434309   5.168   6.243   1.020
 8498SOL     OW34310   3.803   5.830   0.033
 8498SOL    HW234311   3.770   5.909   0.077
 8498SOL    HW334312   3.858   5.863  -0.038
 8498SOL    MW434313   3.806   5.844   0.030
 8499SOL     OW34314   3.837   7.087   0.222
 8499SOL    HW234315   3.854   7.171   0.264
 8499SOL    HW334316   3.872   7.096   0.134
 8499SOL    MW434317   3.842   7.100   0.216
 8500SOL     OW34318   5.109   7.176   0.439
 8500SOL    HW234319   5.172   7.166   0.368
 8500SOL    HW334320   5.026   7.196   0.394
 8500SOL    MW434321   5.106   7.177   0.424
 8501SOL     OW34322   5.472   6.444   2.125
 8501SOL    HW234323   5.513   6.386   2.190
 8501SOL    HW334324   5.379   6.436   2.142
 8501SOL    MW434325   5.466   6.436   2.135
 8502SOL     OW34326   5.338   6.376   3.120
 8502SOL    HW234327   5.293   6.443   3.171
 8502SOL    HW334328   5.426   6.412   3.106
 8502SOL    MW434329   5.344   6.389   3.124
 8503SOL     OW34330   4.266   6.627   2.354
 8503SOL    HW234331   4.356   6.602   2.338
 8503SOL    HW334332   4.262   6.720   2.331
 8503SOL    MW434333   4.278   6.636   2.349
 8504SOL     OW34334   5.382   7.330   2.496
 8504SOL    HW234335   5.394   7.276   2.574
 8504SOL    HW334336   5.419   7.278   2.425
 8504SOL    MW434337   5.388   7.315   2.497
 8505SOL     OW34338   4.761   7.215   3.497
 8505SOL    HW234339   4.802   7.251   3.418
 8505SOL    HW334340   4.796   7.126   3.504
 8505SOL    MW434341   4.772   7.208   3.488
 8506SOL     OW34342   5.318   6.770   3.101
 8506SOL    HW234343   5.239   6.735   3.059
 8506SOL    HW334344   5.345   6.842   3.045
 8506SOL    MW434345   5.311   6.775   3.088
 8507SOL     OW34346   3.992   6.111   2.295
 8507SOL    HW234347   4.024   6.199   2.277
 8507SOL    HW334348   3.980   6.109   2.390
 8507SOL    MW434349   3.995   6.123   2.307
 8508SOL     OW34350   4.070   6.524   3.196
 8508SOL    HW234351   4.133   6.471   3.147
 8508SOL    HW334352   4.051   6.598   3.139
 8508SOL    MW434353   4.076   6.526   3.183
 8509SOL     OW34354   4.478   6.793   2.557
 8509SOL    HW234355   4.558   6.796   2.609
 8509SOL    HW334356   4.506   6.760   2.471
 8509SOL    MW434357   4.492   6.789   2.552
 8510SOL     OW34358   4.503   7.134   3.460
 8510SOL    HW234359   4.587   7.160   3.499
 8510SOL    HW334360   4.527   7.078   3.386
 8510SOL    MW434361   4.517   7.130   3.455
 8511SOL     OW34362   4.592   6.983   3.233
 8511SOL    HW234363   4.556   7.049   3.173
 8511SOL    HW334364   4.520   6.921   3.246
 8511SOL    MW434365   4.578   6.983   3.227
 8512SOL     OW34366   4.143   6.537   2.829
 8512SOL    HW234367   4.098   6.544   2.745
 8512SOL    HW334368   4.123   6.620   2.873
 8512SOL    MW434369   4.135   6.549   2.823
 8513SOL     OW34370   3.840   7.383   2.704
 8513SOL    HW234371   3.929   7.375   2.739
 8513SOL    HW334372   3.804   7.295   2.709
 8513SOL    MW434373   3.847   7.370   2.709
 8514SOL     OW34374   5.105   6.775   2.073
 8514SOL    HW234375   5.023   6.811   2.039
 8514SOL    HW334376   5.173   6.818   2.022
 8514SOL    MW434377   5.103   6.785   2.061
 8515SOL     OW34378   4.104   6.910   2.739
 8515SOL    HW234379   4.080   6.963   2.815
 8515SOL    HW334380   4.160   6.968   2.687
 8515SOL    MW434381   4.108   6.925   2.742
 8516SOL     OW34382   4.666   6.554   2.549
 8516SOL    HW234383   4.580   6.541   2.589
 8516SOL    HW334384   4.719   6.481   2.581
 8516SOL    MW434385   4.662   6.543   2.558
 8517SOL     OW34386   4.074   7.206   3.334
 8517SOL    HW234387   3.982   7.182   3.319
 8517SOL    HW334388   4.118   7.123   3.351
 8517SOL    MW434389   4.068   7.191   3.333
 8518SOL     OW34390   4.657   6.916   2.266
 8518SOL    HW234391   4.634   6.978   2.334
 8518SOL    HW334392   4.614   6.834   2.292
 8518SOL    MW434393   4.649   6.912   2.277
 8519SOL     OW34394   5.530   5.917   2.722
 8519SOL    HW234395   5.467   5.897   2.791
 8519SOL    HW334396   5.520   5.846   2.659
 8519SOL    MW434397   5.520   5.904   2.723
 8520SOL     OW34398   4.154   5.889   2.234
 8520SOL    HW234399   4.128   5.851   2.150
 8520SOL    HW334400   4.091   5.959   2.250
 8520SOL    MW434401   4.143   5.892   2.225
 8521SOL     OW34402   3.989   6.850   2.271
 8521SOL    HW234403   3.937   6.918   2.227
 8521SOL    HW334404   3.986   6.776   2.211
 8521SOL    MW434405   3.981   6.849   2.258
 8522SOL     OW34406   4.651   7.313   2.049
 8522SOL    HW234407   4.606   7.329   2.132
 8522SOL    HW334408   4.582   7.278   1.991
 8522SOL    MW434409   4.637   7.310   2.051
 8523SOL     OW34410   5.586   6.086   2.024
 8523SOL    HW234411   5.495   6.088   2.052
 8523SOL    HW334412   5.631   6.148   2.082
 8523SOL    MW434413   5.579   6.094   2.034
 8524SOL     OW34414   5.331   6.689   2.374
 8524SOL    HW234415   5.241   6.689   2.409
 8524SOL    HW334416   5.324   6.735   2.291
 8524SOL    MW434417   5.318   6.695   2.368
 8525SOL     OW34418   5.131   6.324   3.446
 8525SOL    HW234419   5.200   6.262   3.423
 8525SOL    HW334420   5.056   6.298   3.393
 8525SOL    MW434421   5.131   6.311   3.437
 8526SOL     OW34422   3.872   7.204   2.998
 8526SOL    HW234423   3.855   7.150   3.075
 8526SOL    HW334424   3.860   7.294   3.028
 8526SOL    MW434425   3.869   7.208   3.012
 8527SOL     OW34426   4.867   6.711   3.438
 8527SOL    HW234427   4.852   6.804   3.423
 8527SOL    HW334428   4.962   6.701   3.438
 8527SOL    MW434429   4.876   6.721   3.435
 8528SOL     OW34430   4.663   6.135   3.639
 8528SOL    HW234431   4.753   6.136   3.606
 8528SOL    HW334432   4.622   6.060   3.597
 8528SOL    MW434433   4.669   6.125   3.630
 8529SOL     OW34434   5.238   6.667   2.766
 8529SOL    HW234435   5.241   6.601   2.697
 8529SOL    HW334436   5.323   6.710   2.762
 8529SOL    MW434437   5.250   6.663   2.757
 8530SOL     OW34438   4.858   6.270   2.335
 8530SOL    HW234439   4.884   6.294   2.246
 8530SOL    HW334440   4.840   6.177   2.331
 8530SOL    MW434441   4.860   6.262   2.322
 8531SOL     OW34442   5.523   6.890   2.186
 8531SOL    HW234443   5.479   6.931   2.261
 8531SOL    HW334444   5.580   6.958   2.151
 8531SOL    MW434445   5.525   6.904   2.191
 8532SOL     OW34446   4.443   5.939   3.589
 8532SOL    HW234447   4.453   5.865   3.529
 8532SOL    HW334448   4.479   5.908   3.672
 8532SOL    MW434449   4.449   5.925   3.591
 8533SOL     OW34450   4.179   7.306   2.504
 8533SOL    HW234451   4.211   7.394   2.482
 8533SOL    HW334452   4.132   7.278   2.426
 8533SOL    MW434453   4.178   7.314   2.491
 8534SOL     OW34454   5.299   7.174   2.052
 8534SOL    HW234455   5.347   7.243   2.098
 8534SOL    HW334456   5.220   7.218   2.021
 8534SOL    MW434457   5.294   7.188   2.055
 8535SOL     OW34458   4.697   6.299   1.996
 8535SOL    HW234459   4.699   6.246   1.917
 8535SOL    HW334460   4.785   6.336   2.002
 8535SOL    MW434461   4.709   6.298   1.985
 8536SOL     OW34462   5.311   6.225   2.332
 8536SOL    HW234463   5.350   6.225   2.419
 8536SOL    HW334464   5.252   6.301   2.332
 8536SOL    MW434465   5.308   6.236   2.343
 8537SOL     OW34466   4.628   6.592   3.461
 8537SOL    HW234467   4.605   6.572   3.551
 8537SOL    HW334468   4.713   6.636   3.466
 8537SOL    MW434469   4.635   6.595   3.473
 8538SOL     OW34470   5.347   6.186   3.332
 8538SOL    HW234471   5.328   6.095   3.311
 8538SOL    HW334472   5.325   6.235   3.253
 8538SOL    MW434473   5.342   6.179   3.319
 8539SOL     OW34474   5.489   7.280   3.236
 8539SOL    HW234475   5.417   7.242   3.287
 8539SOL    HW334476   5.506   7.365   3.277
 8539SOL    MW434477   5.483   7.285   3.248
 8540SOL     OW34478   4.794   5.924   3.438
 8540SOL    HW234479   4.760   5.963   3.357
 8540SOL    HW334480   4.772   5.832   3.431
 8540SOL    MW434481   4.787   5.917   3.428
 8541SOL     OW34482   5.203   6.738   3.514
 8541SOL    HW234483   5.285   6.779   3.544
 8541SOL    HW334484   5.166   6.700   3.594
 8541SOL    MW434485   5.209   6.739   3.529
 8542SOL     OW34486   5.498   6.111   2.498
 8542SOL    HW234487   5.587   6.080   2.515
 8542SOL    HW334488   5.441   6.051   2.546
 8542SOL    MW434489   5.501   6.099   2.507
 8543SOL     OW34490   4.867   6.918   2.088
 8543SOL    HW234491   4.817   6.920   2.170
 8543SOL    HW334492   4.801   6.936   2.020
 8543SOL    MW434493   4.853   6.920   2.090
 8544SOL     OW34494   4.330   7.336   2.196
 8544SOL    HW234495   4.251   7.294   2.229
 8544SOL    HW334496   4.396   7.319   2.263
 8544SOL    MW434497   4.329   7.328   2.209
 8545SOL     OW34498   5.458   6.856   3.593
 8545SOL    HW234499   5.508   6.782   3.625
 8545SOL    HW334500   5.404   6.883   3.668
 8545SOL    MW434501   5.458   6.850   3.606
 8546SOL     OW34502   4.466   6.751   1.903
 8546SOL    HW234503   4.388   6.697   1.890
 8546SOL    HW334504   4.437   6.824   1.956
 8546SOL    MW434505   4.452   6.753   1.908
 8547SOL     OW34506   5.592   6.491   3.095
 8547SOL    HW234507   5.608   6.529   3.008
 8547SOL    HW334508   5.626   6.557   3.156
 8547SOL    MW434509   5.599   6.504   3.091
 8548SOL     OW34510   5.384   7.200   2.764
 8548SOL    HW234511   5.413   7.267   2.825
 8548SOL    HW334512   5.365   7.124   2.819
 8548SOL    MW434513   5.386   7.200   2.779
 8549SOL     OW34514   5.047   7.267   1.971
 8549SOL    HW234515   4.973   7.230   2.021
 8549SOL    HW334516   5.055   7.357   2.004
 8549SOL    MW434517   5.038   7.274   1.983
 8550SOL     OW34518   3.855   6.273   3.060
 8550SOL    HW234519   3.917   6.303   3.126
 8550SOL    HW334520   3.789   6.342   3.054
 8550SOL    MW434521   3.854   6.286   3.067
 8551SOL     OW34522   5.271   6.941   1.913
 8551SOL    HW234523   5.218   6.990   1.849
 8551SOL    HW334524   5.302   7.007   1.974
 8551SOL    MW434525   5.269   6.955   1.911
 8552SOL     OW34526   3.950   7.382   3.512
 8552SOL    HW234527   3.924   7.450   3.450
 8552SOL    HW334528   3.998   7.319   3.460
 8552SOL    MW434529   3.952   7.382   3.498
 8553SOL     OW34530   4.002   6.701   3.019
 8553SOL    HW234531   4.055   6.776   3.044
 8553SOL    HW334532   3.921   6.739   2.985
 8553SOL    MW434533   3.998   6.716   3.019
 8554SOL     OW34534   4.542   6.605   3.007
 8554SOL    HW234535   4.570   6.514   3.019
 8554SOL    HW334536   4.471   6.599   2.943
 8554SOL    MW434537   4.535   6.593   3.002
 8555SOL     OW34538   3.857   6.470   2.425
 8555SOL    HW234539   3.948   6.485   2.452
 8555SOL    HW334540   3.860   6.391   2.371
 8555SOL    MW434541   3.869   6.462   2.423
 8556SOL     OW34542   4.479   5.728   3.386
 8556SOL    HW234543   4.456   5.636   3.388
 8556SOL    HW334544   4.565   5.730   3.343
 8556SOL    MW434545   4.486   5.718   3.382
 8557SOL     OW34546   4.484   7.402   2.799
 8557SOL    HW234547   4.573   7.417   2.829
 8557SOL    HW334548   4.479   7.449   2.715
 8557SOL    MW434549   4.494   7.410   2.792
 8558SOL     OW34550   5.140   5.777   3.696
 8558SOL    HW234551   5.196   5.704   3.722
 8558SOL    HW334552   5.110   5.815   3.778
 8558SOL    MW434553   5.144   5.772   3.709
 8559SOL     OW34554   3.865   7.082   2.464
 8559SOL    HW234555   3.837   7.121   2.546
 8559SOL    HW334556   3.885   6.991   2.486
 8559SOL    MW434557   3.863   7.074   2.477
 8560SOL     OW34558   4.698   7.125   2.499
 8560SOL    HW234559   4.781   7.079   2.483
 8560SOL    HW334560   4.688   7.124   2.595
 8560SOL    MW434561   4.708   7.118   2.509
 8561SOL     OW34562   5.530   6.270   2.813
 8561SOL    HW234563   5.619   6.300   2.795
 8561SOL    HW334564   5.510   6.210   2.742
 8561SOL    MW434565   5.539   6.267   2.802
 8562SOL     OW34566   5.381   6.449   3.693
 8562SOL    HW234567   5.436   6.373   3.674
 8562SOL    HW334568   5.383   6.457   3.788
 8562SOL    MW434569   5.389   6.440   3.701
 8563SOL     OW34570   4.431   7.182   1.904
 8563SOL    HW234571   4.371   7.251   1.874
 8563SOL    HW334572   4.376   7.124   1.957
 8563SOL    MW434573   4.415   7.184   1.906
 8564SOL     OW34574   4.936   6.349   2.835
 8564SOL    HW234575   4.949   6.443   2.845
 8564SOL    HW334576   4.897   6.339   2.749
 8564SOL    MW434577   4.932   6.360   2.825
 8565SOL     OW34578   4.388   6.544   2.639
 8565SOL    HW234579   4.299   6.535   2.672
 8565SOL    HW334580   4.392   6.634   2.607
 8565SOL    MW434581   4.377   6.555   2.639
 8566SOL     OW34582   5.187   6.127   2.634
 8566SOL    HW234583   5.132   6.048   2.633
 8566SOL    HW334584   5.169   6.168   2.718
 8566SOL    MW434585   5.177   6.122   2.643
 8567SOL     OW34586   4.806   6.331   2.591
 8567SOL    HW234587   4.743   6.263   2.615
 8567SOL    HW334588   4.826   6.312   2.499
 8567SOL    MW434589   4.800   6.318   2.583
 8568SOL     OW34590   4.062   7.226   2.293
 8568SOL    HW234591   4.023   7.273   2.219
 8568SOL    HW334592   3.996   7.161   2.318
 8568SOL    MW434593   4.049   7.224   2.287
 8569SOL     OW34594   4.554   6.635   2.317
 8569SOL    HW234595   4.556   6.609   2.224
 8569SOL    HW334596   4.612   6.572   2.360
 8569SOL    MW434597   4.562   6.624   2.311
 8570SOL     OW34598   5.107   7.195   3.089
 8570SOL    HW234599   5.032   7.241   3.127
 8570SOL    HW334600   5.089   7.102   3.106
 8570SOL    MW434601   5.096   7.189   3.097
 8571SOL     OW34602   5.111   7.403   2.519
 8571SOL    HW234603   5.054   7.356   2.458
 8571SOL    HW334604   5.197   7.364   2.506
 8571SOL    MW434605   5.114   7.394   2.509
 8572SOL     OW34606   3.869   6.813   2.584
 8572SOL    HW234607   3.933   6.845   2.647
 8572SOL    HW334608   3.918   6.749   2.532
 8572SOL    MW434609   3.884   6.809   2.585
 8573SOL     OW34610   4.369   6.889   3.566
 8573SOL    HW234611   4.417   6.972   3.553
 8573SOL    HW334612   4.426   6.837   3.622
 8573SOL    MW434613   4.383   6.893   3.572
 8574SOL     OW34614   3.945   7.131   3.706
 8574SOL    HW234615   4.001   7.055   3.721
 8574SOL    HW334616   3.894   7.109   3.628
 8574SOL    MW434617   3.945   7.118   3.697
 8575SOL     OW34618   5.217   6.539   2.127
 8575SOL    HW234619   5.184   6.628   2.117
 8575SOL    HW334620   5.182   6.510   2.212
 8575SOL    MW434621   5.207   6.548   2.138
 8576SOL     OW34622   4.830   6.968   3.315
 8576SOL    HW234623   4.741   6.974   3.283
 8576SOL    HW334624   4.874   7.047   3.283
 8576SOL    MW434625   4.825   6.978   3.307
 8577SOL     OW34626   4.147   7.126   2.956
 8577SOL    HW234627   4.192   7.188   3.013
 8577SOL    HW334628   4.054   7.145   2.969
 8577SOL    MW434629   4.140   7.136   2.963
 8578SOL     OW34630   5.587   6.655   3.310
 8578SOL    HW234631   5.502   6.668   3.269
 8578SOL    HW334632   5.567   6.619   3.397
 8578SOL    MW434633   5.574   6.651   3.315
 8579SOL     OW34634   4.569   7.194   3.064
 8579SOL    HW234635   4.593   7.183   2.973
 8579SOL    HW334636   4.492   7.251   3.062
 8579SOL    MW434637   4.561   7.199   3.053
 8580SOL     OW34638   4.211   6.577   1.919
 8580SOL    HW234639   4.134   6.590   1.975
 8580SOL    HW334640   4.175   6.541   1.838
 8580SOL    MW434641   4.197   6.573   1.916
 8581SOL     OW34642   4.864   6.550   2.162
 8581SOL    HW234643   4.774   6.571   2.137
 8581SOL    HW334644   4.891   6.623   2.218
 8581SOL    MW434645   4.856   6.562   2.165
 8582SOL     OW34646   4.364   6.899   2.854
 8582SOL    HW234647   4.357   6.878   2.948
 8582SOL    HW334648   4.282   6.867   2.817
 8582SOL    MW434649   4.352   6.893   2.861
 8583SOL     OW34650   5.228   5.909   3.256
 8583SOL    HW234651   5.175   5.911   3.336
 8583SOL    HW334652   5.213   5.822   3.219
 8583SOL    MW434653   5.220   5.899   3.261
 8584SOL     OW34654   5.564   5.833   3.129
 8584SOL    HW234655   5.545   5.900   3.064
 8584SOL    HW334656   5.621   5.771   3.084
 8584SOL    MW434657   5.568   5.834   3.115
 8585SOL     OW34658   3.810   6.991   3.517
 8585SOL    HW234659   3.854   6.924   3.463
 8585SOL    HW334660   3.725   6.953   3.537
 8585SOL    MW434661   3.805   6.977   3.513
 8586SOL     OW34662   4.251   6.906   2.318
 8586SOL    HW234663   4.244   6.938   2.408
 8586SOL    HW334664   4.161   6.890   2.290
 8586SOL    MW434665   4.239   6.908   2.325
 8587SOL     OW34666   4.846   7.299   3.227
 8587SOL    HW234667   4.766   7.284   3.177
 8587SOL    HW334668   4.853   7.394   3.234
 8587SOL    MW434669   4.837   7.310   3.221
 8588SOL     OW34670   4.960   7.264   2.717
 8588SOL    HW234671   5.007   7.337   2.676
 8588SOL    HW334672   4.881   7.303   2.753
 8588SOL    MW434673   4.955   7.279   2.716
 8589SOL     OW34674   5.368   7.359   2.992
 8589SOL    HW234675   5.411   7.329   3.072
 8589SOL    HW334676   5.287   7.307   2.989
 8589SOL    MW434677   5.363   7.348   3.002
 8590SOL     OW34678   4.453   6.323   3.699
 8590SOL    HW234679   4.523   6.265   3.671
 8590SOL    HW334680   4.396   6.268   3.754
 8590SOL    MW434681   4.455   6.310   3.703
 8591SOL     OW34682   5.240   6.535   3.332
 8591SOL    HW234683   5.245   6.588   3.412
 8591SOL    HW334684   5.202   6.452   3.360
 8591SOL    MW434685   5.236   6.530   3.347
 8592SOL     OW34686   4.880   5.670   3.578
 8592SOL    HW234687   4.875   5.577   3.559
 8592SOL    HW334688   4.963   5.681   3.624
 8592SOL    MW434689   4.888   5.659   3.582
 8593SOL     OW34690   4.254   6.190   2.032
 8593SOL    HW234691   4.220   6.246   2.102
 8593SOL    HW334692   4.325   6.140   2.072
 8593SOL    MW434693   4.260   6.191   2.046
 8594SOL     OW34694   5.350   6.941   2.854
 8594SOL    HW234695   5.385   6.923   2.767
 8594SOL    HW334696   5.255   6.942   2.841
 8594SOL    MW434697   5.342   6.938   2.841
 8595SOL     OW34698   4.779   6.589   3.223
 8595SOL    HW234699   4.822   6.624   3.301
 8595SOL    HW334700   4.762   6.666   3.169
 8595SOL    MW434701   4.782   6.604   3.226
 8596SOL     OW34702   5.310   6.076   2.096
 8596SOL    HW234703   5.302   6.147   2.033
 8596SOL    HW334704   5.328   6.120   2.179
 8596SOL    MW434705   5.311   6.090   2.098
 8597SOL     OW34706   3.929   6.793   3.385
 8597SOL    HW234707   3.957   6.746   3.463
 8597SOL    HW334708   3.850   6.748   3.356
 8597SOL    MW434709   3.922   6.782   3.391
 8598SOL     OW34710   4.437   6.120   3.352
 8598SOL    HW234711   4.409   6.208   3.376
 8598SOL    HW334712   4.406   6.064   3.423
 8598SOL    MW434713   4.429   6.123   3.364
 8599SOL     OW34714   4.979   6.338   2.071
 8599SOL    HW234715   5.026   6.356   1.990
 8599SOL    HW334716   4.945   6.422   2.099
 8599SOL    MW434717   4.981   6.352   2.064
 8600SOL     OW34718   4.092   6.516   2.565
 8600SOL    HW234719   4.150   6.572   2.513
 8600SOL    HW334720   4.136   6.431   2.567
 8600SOL    MW434721   4.105   6.513   2.558
 8601SOL     OW34722   5.232   5.868   2.402
 8601SOL    HW234723   5.154   5.818   2.427
 8601SOL    HW334724   5.203   5.959   2.402
 8601SOL    MW434725   5.218   5.872   2.405
 8602SOL     OW34726   4.714   7.080   1.893
 8602SOL    HW234727   4.741   7.158   1.845
 8602SOL    HW334728   4.621   7.095   1.912
 8602SOL    MW434729   4.705   7.093   1.889
 8603SOL     OW34730   5.578   6.603   3.580
 8603SOL    HW234731   5.491   6.583   3.616
 8603SOL    HW334732   5.632   6.529   3.605
 8603SOL    MW434733   5.573   6.592   3.588
 8604SOL     OW34734   3.799   7.116   2.737
 8604SOL    HW234735   3.831   7.120   2.828
 8604SOL    HW334736   3.704   7.124   2.745
 8604SOL    MW434737   3.791   7.119   2.750
 8605SOL     OW34738   3.754   6.242   2.284
 8605SOL    HW234739   3.694   6.214   2.354
 8605SOL    HW334740   3.828   6.182   2.290
 8605SOL    MW434741   3.756   6.231   2.293
 8606SOL     OW34742   4.922   6.973   2.444
 8606SOL    HW234743   4.945   6.924   2.522
 8606SOL    HW334744   5.003   7.015   2.416
 8606SOL    MW434745   4.935   6.973   2.451
 8607SOL     OW34746   4.134   5.948   2.909
 8607SOL    HW234747   4.164   5.862   2.880
 8607SOL    HW334748   4.039   5.941   2.912
 8607SOL    MW434749   4.126   5.937   2.907
 8608SOL     OW34750   4.963   6.157   3.600
 8608SOL    HW234751   5.015   6.092   3.553
 8608SOL    HW334752   4.921   6.208   3.530
 8608SOL    MW434753   4.964   6.154   3.583
 8609SOL     OW34754   5.062   5.952   3.461
 8609SOL    HW234755   4.969   5.936   3.448
 8609SOL    HW334756   5.088   5.890   3.529
 8609SOL    MW434757   5.052   5.942   3.468
 8610SOL     OW34758   4.371   7.341   3.346
 8610SOL    HW234759   4.288   7.326   3.391
 8610SOL    HW334760   4.430   7.274   3.381
 8610SOL    MW434761   4.369   7.331   3.356
 8611SOL     OW34762   5.428   6.048   2.971
 8611SOL    HW234763   5.361   6.081   3.031
 8611SOL    HW334764   5.471   6.126   2.937
 8611SOL    MW434765   5.426   6.063   2.975
 8612SOL     OW34766   5.606   6.768   2.941
 8612SOL    HW234767   5.599   6.708   2.866
 8612SOL    HW334768   5.532   6.828   2.930
 8612SOL    MW434769   5.596   6.768   2.930
 8613SOL     OW34770   4.988   6.630   2.859
 8613SOL    HW234771   5.002   6.602   2.950
 8613SOL    HW334772   5.074   6.661   2.831
 8613SOL    MW434773   5.001   6.631   2.868
 8614SOL     OW34774   5.071   6.125   3.138
 8614SOL    HW234775   5.092   6.126   3.045
 8614SOL    HW334776   5.116   6.047   3.171
 8614SOL    MW434777   5.078   6.115   3.130
 8615SOL     OW34778   5.564   6.256   3.680
 8615SOL    HW234779   5.601   6.201   3.749
 8615SOL    HW334780   5.589   6.213   3.598
 8615SOL    MW434781   5.571   6.244   3.679
 8616SOL     OW34782   5.111   6.554   3.731
 8616SOL    HW234783   5.177   6.502   3.685
 8616SOL    HW334784   5.131   6.541   3.824
 8616SOL    MW434785   5.122   6.545   3.738
 8617SOL     OW34786   5.122   6.415   2.358
 8617SOL    HW234787   5.037   6.385   2.328
 8617SOL    HW334788   5.114   6.422   2.453
 8617SOL    MW434789   5.110   6.413   2.367
 8618SOL     OW34790   4.198   6.878   3.089
 8618SOL    HW234791   4.210   6.905   3.180
 8618SOL    HW334792   4.179   6.959   3.042
 8618SOL    MW434793   4.197   6.893   3.094
 8619SOL     OW34794   4.336   7.350   3.074
 8619SOL    HW234795   4.388   7.427   3.051
 8619SOL    HW334796   4.345   7.342   3.169
 8619SOL    MW434797   4.345   7.357   3.085
 8620SOL     OW34798   5.238   6.935   3.306
 8620SOL    HW234799   5.223   6.864   3.369
 8620SOL    HW334800   5.284   6.893   3.234
 8620SOL    MW434801   5.244   6.919   3.306
 8621SOL     OW34802   4.312   6.666   3.423
 8621SOL    HW234803   4.349   6.671   3.335
 8621SOL    HW334804   4.351   6.739   3.470
 8621SOL    MW434805   4.322   6.676   3.418
 8622SOL     OW34806   4.492   6.709   3.235
 8622SOL    HW234807   4.551   6.655   3.288
 8622SOL    HW334808   4.507   6.681   3.145
 8622SOL    MW434809   4.502   6.698   3.231
 8623SOL     OW34810   4.495   6.081   2.084
 8623SOL    HW234811   4.568   6.130   2.047
 8623SOL    HW334812   4.511   5.990   2.058
 8623SOL    MW434813   4.507   6.076   2.077
 8624SOL     OW34814   5.303   7.198   3.407
 8624SOL    HW234815   5.345   7.183   3.492
 8624SOL    HW334816   5.294   7.111   3.369
 8624SOL    MW434817   5.307   7.186   3.414
 8625SOL     OW34818   3.970   6.590   2.182
 8625SOL    HW234819   3.907   6.606   2.111
 8625SOL    HW334820   3.917   6.553   2.253
 8625SOL    MW434821   3.955   6.587   2.182
 8626SOL     OW34822   4.326   6.944   2.041
 8626SOL    HW234823   4.341   6.920   2.133
 8626SOL    HW334824   4.234   6.922   2.025
 8626SOL    MW434825   4.316   6.937   2.051
 8627SOL     OW34826   4.865   7.175   2.193
 8627SOL    HW234827   4.873   7.093   2.144
 8627SOL    HW334828   4.784   7.214   2.160
 8627SOL    MW434829   4.855   7.170   2.183
 8628SOL     OW34830   4.124   7.333   2.762
 8628SOL    HW234831   4.128   7.244   2.797
 8628SOL    HW334832   4.150   7.324   2.671
 8628SOL    MW434833   4.127   7.321   2.754
 8629SOL     OW34834   4.741   6.811   3.005
 8629SOL    HW234835   4.673   6.745   3.021
 8629SOL    HW334836   4.759   6.805   2.912
 8629SOL    MW434837   4.734   6.802   2.996
 8630SOL     OW34838   3.830   7.086   3.256
 8630SOL    HW234839   3.820   7.044   3.342
 8630SOL    HW334840   3.751   7.139   3.246
 8630SOL    MW434841   3.819   7.087   3.267
 8631SOL     OW34842   4.734   5.950   2.826
 8631SOL    HW234843   4.664   5.902   2.871
 8631SOL    HW334844   4.766   6.013   2.890
 8631SOL    MW434845   4.729   5.952   2.840
 8632SOL     OW34846   4.385   6.386   3.446
 8632SOL    HW234847   4.378   6.481   3.434
 8632SOL    HW334848   4.394   6.375   3.541
 8632SOL    MW434849   4.386   6.398   3.456
 8633SOL     OW34850   4.106   6.901   3.704
 8633SOL    HW234851   4.178   6.903   3.641
 8633SOL    HW334852   4.076   6.810   3.703
 8633SOL    MW434853   4.111   6.890   3.696
 8634SOL     OW34854   5.190   5.664   3.171
 8634SOL    HW234855   5.261   5.610   3.135
 8634SOL    HW334856   5.189   5.643   3.264
 8634SOL    MW434857   5.199   5.655   3.179
 8635SOL     OW34858   5.390   7.194   3.655
 8635SOL    HW234859   5.363   7.191   3.746
 8635SOL    HW334860   5.486   7.198   3.658
 8635SOL    MW434861   5.400   7.194   3.667
 8636SOL     OW34862   4.201   6.056   2.639
 8636SOL    HW234863   4.272   6.004   2.602
 8636SOL    HW334864   4.187   6.021   2.726
 8636SOL    MW434865   4.209   6.045   2.646
 8637SOL     OW34866   4.517   7.149   2.715
 8637SOL    HW234867   4.445   7.086   2.728
 8637SOL    HW334868   4.478   7.234   2.733
 8637SOL    MW434869   4.501   7.152   2.718
 8638SOL     OW34870   4.837   5.997   2.363
 8638SOL    HW234871   4.859   5.934   2.295
 8638SOL    HW334872   4.742   5.989   2.374
 8638SOL    MW434873   4.827   5.988   2.355
 8639SOL     OW34874   3.922   5.687   2.295
 8639SOL    HW234875   3.993   5.708   2.234
 8639SOL    HW334876   3.876   5.615   2.253
 8639SOL    MW434877   3.926   5.681   2.281
 8640SOL     OW34878   3.753   6.154   3.438
 8640SOL    HW234879   3.817   6.220   3.413
 8640SOL    HW334880   3.672   6.181   3.395
 8640SOL    MW434881   3.751   6.166   3.430
 8641SOL     OW34882   5.491   7.061   2.395
 8641SOL    HW234883   5.461   6.994   2.456
 8641SOL    HW334884   5.585   7.067   2.409
 8641SOL    MW434885   5.499   7.053   2.405
 8642SOL     OW34886   5.047   6.738   2.325
 8642SOL    HW234887   5.019   6.824   2.358
 8642SOL    HW334888   5.075   6.754   2.235
 8642SOL    MW434889   5.047   6.752   2.317
 8643SOL     OW34890   5.562   6.540   2.800
 8643SOL    HW234891   5.553   6.572   2.711
 8643SOL    HW334892   5.515   6.456   2.800
 8643SOL    MW434893   5.555   6.533   2.790
 8644SOL     OW34894   3.938   6.380   3.379
 8644SOL    HW234895   3.959   6.449   3.317
 8644SOL    HW334896   4.018   6.327   3.384
 8644SOL    MW434897   3.951   6.381   3.373
 8645SOL     OW34898   5.474   6.471   2.501
 8645SOL    HW234899   5.568   6.460   2.489
 8645SOL    HW334900   5.450   6.543   2.442
 8645SOL    MW434901   5.484   6.479   2.492
 8646SOL     OW34902   3.923   6.395   3.646
 8646SOL    HW234903   3.849   6.339   3.672
 8646SOL    HW334904   3.918   6.398   3.551
 8646SOL    MW434905   3.912   6.388   3.636
 8647SOL     OW34906   4.130   6.349   2.274
 8647SOL    HW234907   4.130   6.444   2.259
 8647SOL    HW334908   4.207   6.333   2.328
 8647SOL    MW434909   4.140   6.360   2.279
 8648SOL     OW34910   4.906   6.208   3.338
 8648SOL    HW234911   4.942   6.181   3.254
 8648SOL    HW334912   4.819   6.242   3.317
 8648SOL    MW434913   4.900   6.209   3.325
 8649SOL     OW34914   3.889   6.080   2.563
 8649SOL    HW234915   3.951   6.087   2.636
 8649SOL    HW334916   3.889   5.987   2.540
 8649SOL    MW434917   3.897   6.069   2.570
 8650SOL     OW34918   4.571   6.341   3.047
 8650SOL    HW234919   4.529   6.259   3.023
 8650SOL    HW334920   4.572   6.340   3.143
 8650SOL    MW434921   4.564   6.330   3.056
 8651SOL     OW34922   3.758   6.652   2.021
 8651SOL    HW234923   3.727   6.717   2.084
 8651SOL    HW334924   3.707   6.574   2.040
 8651SOL    MW434925   3.748   6.649   2.031
 8652SOL     OW34926   5.202   6.403   2.613
 8652SOL    HW234927   5.282   6.418   2.562
 8652SOL    HW334928   5.195   6.308   2.619
 8652SOL    MW434929   5.211   6.392   2.608
 8653SOL     OW34930   4.342   7.452   1.963
 8653SOL    HW234931   4.247   7.452   1.955
 8653SOL    HW334932   4.358   7.398   2.041
 8653SOL    MW434933   4.332   7.446   1.972
 8654SOL     OW34934   4.652   6.329   3.310
 8654SOL    HW234935   4.721   6.396   3.307
 8654SOL    HW334936   4.585   6.367   3.366
 8654SOL    MW434937   4.653   6.342   3.317
 8655SOL     OW34938   4.070   6.629   3.558
 8655SOL    HW234939   4.024   6.545   3.560
 8655SOL    HW334940   4.127   6.623   3.482
 8655SOL    MW434941   4.072   6.617   3.550
 8656SOL     OW34942   5.187   6.272   1.879
 8656SOL    HW234943   5.115   6.248   1.821
 8656SOL    HW334944   5.253   6.309   1.821
 8656SOL    MW434945   5.186   6.274   1.864
 8657SOL     OW34946   4.321   7.004   2.559
 8657SOL    HW234947   4.386   6.937   2.580
 8657SOL    HW334948   4.373   7.081   2.536
 8657SOL    MW434949   4.336   7.006   2.558
 8658SOL     OW34950   4.582   6.169   2.689
 8658SOL    HW234951   4.522   6.187   2.761
 8658SOL    HW334952   4.616   6.081   2.708
 8658SOL    MW434953   4.578   6.159   2.702
 8659SOL     OW34954   5.523   5.668   3.358
 8659SOL    HW234955   5.444   5.714   3.386
 8659SOL    HW334956   5.558   5.722   3.287
 8659SOL    MW434957   5.517   5.681   3.352
 8660SOL     OW34958   4.807   6.752   2.708
 8660SOL    HW234959   4.899   6.733   2.726
 8660SOL    HW334960   4.780   6.682   2.648
 8660SOL    MW434961   4.815   6.740   2.702
 8661SOL     OW34962   4.600   6.572   2.063
 8661SOL    HW234963   4.586   6.484   2.028
 8661SOL    HW334964   4.551   6.629   2.004
 8661SOL    MW434965   4.592   6.567   2.051
 8662SOL     OW34966   5.081   6.990   2.804
 8662SOL    HW234967   5.054   7.074   2.769
 8662SOL    HW334968   5.041   6.985   2.891
 8662SOL    MW434969   5.074   6.999   2.810
 8663SOL     OW34970   5.000   6.938   3.072
 8663SOL    HW234971   5.011   6.905   3.161
 8663SOL    HW334972   4.919   6.897   3.041
 8663SOL    MW434973   4.990   6.930   3.078
 8664SOL     OW34974   4.013   6.296   2.842
 8664SOL    HW234975   3.963   6.295   2.923
 8664SOL    HW334976   4.033   6.388   2.826
 8664SOL    MW434977   4.009   6.308   2.850
 8665SOL     OW34978   5.080   7.060   3.604
 8665SOL    HW234979   5.080   7.154   3.620
 8665SOL    HW334980   5.125   7.050   3.520
 8665SOL    MW434981   5.086   7.070   3.595
 8666SOL     OW34982   5.047   6.584   3.128
 8666SOL    HW234983   5.110   6.581   3.201
 8666SOL    HW334984   4.963   6.602   3.170
 8666SOL    MW434985   5.043   6.586   3.143
 8667SOL     OW34986   4.591   7.299   2.317
 8667SOL    HW234987   4.649   7.370   2.344
 8667SOL    HW334988   4.614   7.227   2.375
 8667SOL    MW434989   4.602   7.299   2.328
 8668SOL     OW34990   5.386   5.761   2.907
 8668SOL    HW234991   5.431   5.679   2.926
 8668SOL    HW334992   5.406   5.817   2.983
 8668SOL    MW434993   5.396   5.757   2.919
 8669SOL     OW34994   5.471   6.797   2.626
 8669SOL    HW234995   5.450   6.743   2.549
 8669SOL    HW334996   5.567   6.795   2.630
 8669SOL    MW434997   5.480   6.790   2.615
 8670SOL     OW34998   4.163   6.942   3.369
 8670SOL    HW234999   4.084   6.892   3.392
 8670SOL    HW335000   4.233   6.901   3.419
 8670SOL    MW435001   4.161   6.930   3.379
 8671SOL     OW35002   4.047   5.731   2.052
 8671SOL    HW235003   3.976   5.786   2.020
 8671SOL    HW335004   4.089   5.697   1.973
 8671SOL    MW435005   4.043   5.733   2.038
 8672SOL     OW35006   5.171   6.228   2.888
 8672SOL    HW235007   5.094   6.274   2.854
 8672SOL    HW335008   5.228   6.297   2.922
 8672SOL    MW435009   5.168   6.243   2.888
 8673SOL     OW35010   3.803   5.830   1.901
 8673SOL    HW235011   3.770   5.909   1.945
 8673SOL    HW335012   3.858   5.863   1.830
 8673SOL    MW435013   3.806   5.844   1.898
 8674SOL     OW35014   3.837   7.087   2.090
 8674SOL    HW235015   3.854   7.171   2.132
 8674SOL    HW335016   3.872   7.096   2.002
 8674SOL    MW435017   3.842   7.100   2.084
 8675SOL     OW35018   5.109   7.176   2.307
 8675SOL    HW235019   5.172   7.166   2.236
 8675SOL    HW335020   5.026   7.196   2.262
 8675SOL    MW435021   5.106   7.177   2.292
 8676SOL     OW35022   5.472   6.444   3.993
 8676SOL    HW235023   5.513   6.386   4.058
 8676SOL    HW335024   5.379   6.436   4.010
 8676SOL    MW435025   5.466   6.436   4.003
 8677SOL     OW35026   5.338   6.376   4.988
 8677SOL    HW235027   5.293   6.443   5.039
 8677SOL    HW335028   5.426   6.412   4.974
 8677SOL    MW435029   5.344   6.389   4.992
 8678SOL     OW35030   4.266   6.627   4.222
 8678SOL    HW235031   4.356   6.602   4.206
 8678SOL    HW335032   4.262   6.720   4.199
 8678SOL    MW435033   4.278   6.636   4.217
 8679SOL     OW35034   5.382   7.330   4.364
 8679SOL    HW235035   5.394   7.276   4.442
 8679SOL    HW335036   5.419   7.278   4.293
 8679SOL    MW435037   5.388   7.315   4.365
 8680SOL     OW35038   4.761   7.215   5.365
 8680SOL    HW235039   4.802   7.251   5.286
 8680SOL    HW335040   4.796   7.126   5.372
 8680SOL    MW435041   4.772   7.208   5.356
 8681SOL     OW35042   5.318   6.770   4.969
 8681SOL    HW235043   5.239   6.735   4.927
 8681SOL    HW335044   5.345   6.842   4.913
 8681SOL    MW435045   5.311   6.775   4.956
 8682SOL     OW35046   4.550   6.083   4.235
 8682SOL    HW235047   4.525   6.171   4.263
 8682SOL    HW335048   4.547   6.086   4.139
 8682SOL    MW435049   4.546   6.095   4.227
 8683SOL     OW35050   3.992   6.111   4.163
 8683SOL    HW235051   4.024   6.199   4.145
 8683SOL    HW335052   3.980   6.109   4.258
 8683SOL    MW435053   3.995   6.123   4.175
 8684SOL     OW35054   4.070   6.524   5.064
 8684SOL    HW235055   4.133   6.471   5.015
 8684SOL    HW335056   4.051   6.598   5.007
 8684SOL    MW435057   4.076   6.526   5.051
 8685SOL     OW35058   4.391   5.866   4.250
 8685SOL    HW235059   4.449   5.942   4.252
 8685SOL    HW335060   4.326   5.887   4.183
 8685SOL    MW435061   4.390   5.878   4.241
 8686SOL     OW35062   4.478   6.793   4.425
 8686SOL    HW235063   4.558   6.796   4.477
 8686SOL    HW335064   4.506   6.760   4.339
 8686SOL    MW435065   4.492   6.789   4.420
 8687SOL     OW35066   4.503   7.134   5.328
 8687SOL    HW235067   4.587   7.160   5.367
 8687SOL    HW335068   4.527   7.078   5.254
 8687SOL    MW435069   4.517   7.130   5.323
 8688SOL     OW35070   4.255   6.297   4.416
 8688SOL    HW235071   4.240   6.217   4.467
 8688SOL    HW335072   4.337   6.332   4.450
 8688SOL    MW435073   4.263   6.289   4.428
 8689SOL     OW35074   4.592   6.983   5.101
 8689SOL    HW235075   4.556   7.049   5.041
 8689SOL    HW335076   4.520   6.921   5.114
 8689SOL    MW435077   4.578   6.983   5.095
 8690SOL     OW35078   4.397   6.123   4.793
 8690SOL    HW235079   4.303   6.119   4.811
 8690SOL    HW335080   4.427   6.032   4.802
 8690SOL    MW435081   4.388   6.111   4.796
 8691SOL     OW35082   4.143   6.537   4.697
 8691SOL    HW235083   4.098   6.544   4.613
 8691SOL    HW335084   4.123   6.620   4.741
 8691SOL    MW435085   4.135   6.549   4.691
 8692SOL     OW35086   3.840   7.383   4.572
 8692SOL    HW235087   3.929   7.375   4.607
 8692SOL    HW335088   3.804   7.295   4.577
 8692SOL    MW435089   3.847   7.370   4.577
 8693SOL     OW35090   5.105   6.775   3.941
 8693SOL    HW235091   5.023   6.811   3.907
 8693SOL    HW335092   5.173   6.818   3.890
 8693SOL    MW435093   5.103   6.785   3.929
 8694SOL     OW35094   4.104   6.910   4.607
 8694SOL    HW235095   4.080   6.963   4.683
 8694SOL    HW335096   4.160   6.968   4.555
 8694SOL    MW435097   4.108   6.925   4.610
 8695SOL     OW35098   4.666   6.554   4.417
 8695SOL    HW235099   4.580   6.541   4.457
 8695SOL    HW335100   4.719   6.481   4.449
 8695SOL    MW435101   4.662   6.543   4.426
 8696SOL     OW35102   4.074   7.206   5.202
 8696SOL    HW235103   3.982   7.182   5.187
 8696SOL    HW335104   4.118   7.123   5.219
 8696SOL    MW435105   4.068   7.191   5.201
 8697SOL     OW35106   4.657   6.916   4.134
 8697SOL    HW235107   4.634   6.978   4.202
 8697SOL    HW335108   4.614   6.834   4.160
 8697SOL    MW435109   4.649   6.912   4.145
 8698SOL     OW35110   5.530   5.917   4.590
 8698SOL    HW235111   5.467   5.897   4.659
 8698SOL    HW335112   5.520   5.846   4.527
 8698SOL    MW435113   5.520   5.904   4.591
 8699SOL     OW35114   4.154   5.889   4.102
 8699SOL    HW235115   4.128   5.851   4.018
 8699SOL    HW335116   4.091   5.959   4.118
 8699SOL    MW435117   4.143   5.892   4.093
 8700SOL     OW35118   3.989   6.850   4.139
 8700SOL    HW235119   3.937   6.918   4.095
 8700SOL    HW335120   3.986   6.776   4.079
 8700SOL    MW435121   3.981   6.849   4.126
 8701SOL     OW35122   4.651   7.313   3.917
 8701SOL    HW235123   4.606   7.329   4.000
 8701SOL    HW335124   4.582   7.278   3.859
 8701SOL    MW435125   4.637   7.310   3.919
 8702SOL     OW35126   5.586   6.086   3.892
 8702SOL    HW235127   5.495   6.088   3.920
 8702SOL    HW335128   5.631   6.148   3.950
 8702SOL    MW435129   5.579   6.094   3.902
 8703SOL     OW35130   5.331   6.689   4.242
 8703SOL    HW235131   5.241   6.689   4.277
 8703SOL    HW335132   5.324   6.735   4.159
 8703SOL    MW435133   5.318   6.695   4.236
 8704SOL     OW35134   5.131   6.324   5.314
 8704SOL    HW235135   5.200   6.262   5.291
 8704SOL    HW335136   5.056   6.298   5.261
 8704SOL    MW435137   5.131   6.311   5.305
 8705SOL     OW35138   3.872   7.204   4.866
 8705SOL    HW235139   3.855   7.150   4.943
 8705SOL    HW335140   3.860   7.294   4.896
 8705SOL    MW435141   3.869   7.208   4.880
 8706SOL     OW35142   4.867   6.711   5.306
 8706SOL    HW235143   4.852   6.804   5.291
 8706SOL    HW335144   4.962   6.701   5.306
 8706SOL    MW435145   4.876   6.721   5.303
 8707SOL     OW35146   4.663   6.135   5.507
 8707SOL    HW235147   4.753   6.136   5.474
 8707SOL    HW335148   4.622   6.060   5.465
 8707SOL    MW435149   4.669   6.125   5.498
 8708SOL     OW35150   5.238   6.667   4.634
 8708SOL    HW235151   5.241   6.601   4.565
 8708SOL    HW335152   5.323   6.710   4.630
 8708SOL    MW435153   5.250   6.663   4.625
 8709SOL     OW35154   4.858   6.270   4.203
 8709SOL    HW235155   4.884   6.294   4.114
 8709SOL    HW335156   4.840   6.177   4.199
 8709SOL    MW435157   4.860   6.262   4.190
 8710SOL     OW35158   5.523   6.890   4.054
 8710SOL    HW235159   5.479   6.931   4.129
 8710SOL    HW335160   5.580   6.958   4.019
 8710SOL    MW435161   5.525   6.904   4.059
 8711SOL     OW35162   4.443   5.939   5.457
 8711SOL    HW235163   4.453   5.865   5.397
 8711SOL    HW335164   4.479   5.908   5.540
 8711SOL    MW435165   4.449   5.925   5.459
 8712SOL     OW35166   4.179   7.306   4.372
 8712SOL    HW235167   4.211   7.394   4.350
 8712SOL    HW335168   4.132   7.278   4.294
 8712SOL    MW435169   4.178   7.314   4.359
 8713SOL     OW35170   5.563   5.668   4.421
 8713SOL    HW235171   5.617   5.619   4.483
 8713SOL    HW335172   5.506   5.602   4.382
 8713SOL    MW435173   5.563   5.652   4.423
 8714SOL     OW35174   4.682   5.621   4.834
 8714SOL    HW235175   4.641   5.699   4.796
 8714SOL    HW335176   4.776   5.639   4.829
 8714SOL    MW435177   4.688   5.633   4.829
 8715SOL     OW35178   5.299   7.174   3.920
 8715SOL    HW235179   5.347   7.243   3.966
 8715SOL    HW335180   5.220   7.218   3.889
 8715SOL    MW435181   5.294   7.188   3.923
 8716SOL     OW35182   4.697   6.299   3.864
 8716SOL    HW235183   4.699   6.246   3.785
 8716SOL    HW335184   4.785   6.336   3.870
 8716SOL    MW435185   4.709   6.298   3.853
 8717SOL     OW35186   5.311   6.225   4.200
 8717SOL    HW235187   5.350   6.225   4.287
 8717SOL    HW335188   5.252   6.301   4.200
 8717SOL    MW435189   5.308   6.236   4.211
 8718SOL     OW35190   4.628   6.592   5.329
 8718SOL    HW235191   4.605   6.572   5.419
 8718SOL    HW335192   4.713   6.636   5.334
 8718SOL    MW435193   4.635   6.595   5.341
 8719SOL     OW35194   4.708   5.729   5.089
 8719SOL    HW235195   4.714   5.691   5.002
 8719SOL    HW335196   4.697   5.823   5.074
 8719SOL    MW435197   4.709   5.737   5.077
 8720SOL     OW35198   4.797   6.218   4.923
 8720SOL    HW235199   4.872   6.247   4.870
 8720SOL    HW335200   4.729   6.283   4.907
 8720SOL    MW435201   4.798   6.230   4.913
 8721SOL     OW35202   5.347   6.186   5.200
 8721SOL    HW235203   5.328   6.095   5.179
 8721SOL    HW335204   5.325   6.235   5.121
 8721SOL    MW435205   5.342   6.179   5.187
 8722SOL     OW35206   5.489   7.280   5.104
 8722SOL    HW235207   5.417   7.242   5.155
 8722SOL    HW335208   5.506   7.365   5.145
 8722SOL    MW435209   5.483   7.285   5.116
 8723SOL     OW35210   4.794   5.924   5.306
 8723SOL    HW235211   4.760   5.963   5.225
 8723SOL    HW335212   4.772   5.832   5.299
 8723SOL    MW435213   4.787   5.917   5.296
 8724SOL     OW35214   5.203   6.738   5.382
 8724SOL    HW235215   5.285   6.779   5.412
 8724SOL    HW335216   5.166   6.700   5.462
 8724SOL    MW435217   5.209   6.739   5.397
 8725SOL     OW35218   5.498   6.111   4.366
 8725SOL    HW235219   5.587   6.080   4.383
 8725SOL    HW335220   5.441   6.051   4.414
 8725SOL    MW435221   5.501   6.099   4.375
 8726SOL     OW35222   4.867   6.918   3.956
 8726SOL    HW235223   4.817   6.920   4.038
 8726SOL    HW335224   4.801   6.936   3.888
 8726SOL    MW435225   4.853   6.920   3.958
 8727SOL     OW35226   3.871   5.998   4.758
 8727SOL    HW235227   3.843   6.089   4.767
 8727SOL    HW335228   3.808   5.959   4.697
 8727SOL    MW435229   3.858   6.004   4.752
 8728SOL     OW35230   4.330   7.336   4.064
 8728SOL    HW235231   4.251   7.294   4.097
 8728SOL    HW335232   4.396   7.319   4.131
 8728SOL    MW435233   4.329   7.328   4.077
 8729SOL     OW35234   5.458   6.856   5.461
 8729SOL    HW235235   5.508   6.782   5.493
 8729SOL    HW335236   5.404   6.883   5.536
 8729SOL    MW435237   5.458   6.850   5.474
 8730SOL     OW35238   4.466   6.751   3.771
 8730SOL    HW235239   4.388   6.697   3.758
 8730SOL    HW335240   4.437   6.824   3.824
 8730SOL    MW435241   4.452   6.753   3.776
 8731SOL     OW35242   5.592   6.491   4.963
 8731SOL    HW235243   5.608   6.529   4.876
 8731SOL    HW335244   5.626   6.557   5.024
 8731SOL    MW435245   5.599   6.504   4.959
 8732SOL     OW35246   5.384   7.200   4.632
 8732SOL    HW235247   5.413   7.267   4.693
 8732SOL    HW335248   5.365   7.124   4.687
 8732SOL    MW435249   5.386   7.200   4.647
 8733SOL     OW35250   5.047   7.267   3.839
 8733SOL    HW235251   4.973   7.230   3.889
 8733SOL    HW335252   5.055   7.357   3.872
 8733SOL    MW435253   5.038   7.274   3.851
 8734SOL     OW35254   3.855   6.273   4.928
 8734SOL    HW235255   3.917   6.303   4.994
 8734SOL    HW335256   3.789   6.342   4.922
 8734SOL    MW435257   3.854   6.286   4.935
 8735SOL     OW35258   5.271   6.941   3.781
 8735SOL    HW235259   5.218   6.990   3.717
 8735SOL    HW335260   5.302   7.007   3.842
 8735SOL    MW435261   5.269   6.955   3.779
 8736SOL     OW35262   3.950   7.382   5.380
 8736SOL    HW235263   3.924   7.450   5.318
 8736SOL    HW335264   3.998   7.319   5.328
 8736SOL    MW435265   3.952   7.382   5.366
 8737SOL     OW35266   4.002   6.701   4.887
 8737SOL    HW235267   4.055   6.776   4.912
 8737SOL    HW335268   3.921   6.739   4.853
 8737SOL    MW435269   3.998   6.716   4.887
 8738SOL     OW35270   4.542   6.605   4.875
 8738SOL    HW235271   4.570   6.514   4.887
 8738SOL    HW335272   4.471   6.599   4.811
 8738SOL    MW435273   4.535   6.593   4.870
 8739SOL     OW35274   3.857   6.470   4.293
 8739SOL    HW235275   3.948   6.485   4.320
 8739SOL    HW335276   3.860   6.391   4.239
 8739SOL    MW435277   3.869   6.462   4.291
 8740SOL     OW35278   4.093   6.178   5.547
 8740SOL    HW235279   4.040   6.258   5.554
 8740SOL    HW335280   4.163   6.190   5.612
 8740SOL    MW435281   4.095   6.191   5.555
 8741SOL     OW35282   4.479   5.728   5.254
 8741SOL    HW235283   4.456   5.636   5.256
 8741SOL    HW335284   4.565   5.730   5.211
 8741SOL    MW435285   4.486   5.718   5.250
 8742SOL     OW35286   4.163   6.252   5.293
 8742SOL    HW235287   4.243   6.302   5.279
 8742SOL    HW335288   4.154   6.246   5.388
 8742SOL    MW435289   4.172   6.258   5.303
 8743SOL     OW35290   4.484   7.402   4.667
 8743SOL    HW235291   4.573   7.417   4.697
 8743SOL    HW335292   4.479   7.449   4.583
 8743SOL    MW435293   4.494   7.410   4.660
 8744SOL     OW35294   5.140   5.777   5.564
 8744SOL    HW235295   5.196   5.704   5.590
 8744SOL    HW335296   5.110   5.815   5.646
 8744SOL    MW435297   5.144   5.772   5.577
 8745SOL     OW35298   3.865   7.082   4.332
 8745SOL    HW235299   3.837   7.121   4.414
 8745SOL    HW335300   3.885   6.991   4.354
 8745SOL    MW435301   3.863   7.074   4.345
 8746SOL     OW35302   4.698   7.125   4.367
 8746SOL    HW235303   4.781   7.079   4.351
 8746SOL    HW335304   4.688   7.124   4.463
 8746SOL    MW435305   4.708   7.118   4.377
 8747SOL     OW35306   5.530   6.270   4.681
 8747SOL    HW235307   5.619   6.300   4.663
 8747SOL    HW335308   5.510   6.210   4.610
 8747SOL    MW435309   5.539   6.267   4.670
 8748SOL     OW35310   5.381   6.449   5.561
 8748SOL    HW235311   5.436   6.373   5.542
 8748SOL    HW335312   5.383   6.457   5.656
 8748SOL    MW435313   5.389   6.440   5.569
 8749SOL     OW35314   4.431   7.182   3.772
 8749SOL    HW235315   4.371   7.251   3.742
 8749SOL    HW335316   4.376   7.124   3.825
 8749SOL    MW435317   4.415   7.184   3.774
 8750SOL     OW35318   4.869   5.827   3.995
 8750SOL    HW235319   4.802   5.803   3.932
 8750SOL    HW335320   4.934   5.876   3.944
 8750SOL    MW435321   4.869   5.829   3.980
 8751SOL     OW35322   4.676   6.011   5.080
 8751SOL    HW235323   4.595   6.052   5.108
 8751SOL    HW335324   4.723   6.079   5.032
 8751SOL    MW435325   4.671   6.026   5.078
 8752SOL     OW35326   4.936   6.349   4.703
 8752SOL    HW235327   4.949   6.443   4.713
 8752SOL    HW335328   4.897   6.339   4.617
 8752SOL    MW435329   4.932   6.360   4.693
 8753SOL     OW35330   4.388   6.544   4.507
 8753SOL    HW235331   4.299   6.535   4.540
 8753SOL    HW335332   4.392   6.634   4.475
 8753SOL    MW435333   4.377   6.555   4.507
 8754SOL     OW35334   5.187   6.127   4.502
 8754SOL    HW235335   5.132   6.048   4.501
 8754SOL    HW335336   5.169   6.168   4.586
 8754SOL    MW435337   5.177   6.122   4.511
 8755SOL     OW35338   4.158   5.814   5.319
 8755SOL    HW235339   4.079   5.832   5.371
 8755SOL    HW335340   4.153   5.876   5.246
 8755SOL    MW435341   4.148   5.824   5.316
 8756SOL     OW35342   4.806   6.331   4.459
 8756SOL    HW235343   4.743   6.263   4.483
 8756SOL    HW335344   4.826   6.312   4.367
 8756SOL    MW435345   4.800   6.318   4.451
 8757SOL     OW35346   4.062   7.226   4.161
 8757SOL    HW235347   4.023   7.273   4.087
 8757SOL    HW335348   3.996   7.161   4.186
 8757SOL    MW435349   4.049   7.224   4.155
 8758SOL     OW35350   4.554   6.635   4.185
 8758SOL    HW235351   4.556   6.609   4.092
 8758SOL    HW335352   4.612   6.572   4.228
 8758SOL    MW435353   4.562   6.624   4.179
 8759SOL     OW35354   5.107   7.195   4.957
 8759SOL    HW235355   5.032   7.241   4.995
 8759SOL    HW335356   5.089   7.102   4.974
 8759SOL    MW435357   5.096   7.189   4.965
 8760SOL     OW35358   5.111   7.403   4.387
 8760SOL    HW235359   5.054   7.356   4.326
 8760SOL    HW335360   5.197   7.364   4.374
 8760SOL    MW435361   5.114   7.394   4.377
 8761SOL     OW35362   5.064   5.879   4.518
 8761SOL    HW235363   5.092   5.811   4.579
 8761SOL    HW335364   4.978   5.850   4.488
 8761SOL    MW435365   5.057   5.866   4.522
 8762SOL     OW35366   3.869   6.813   4.452
 8762SOL    HW235367   3.933   6.845   4.515
 8762SOL    HW335368   3.918   6.749   4.400
 8762SOL    MW435369   3.884   6.809   4.453
 8763SOL     OW35370   4.369   6.889   5.434
 8763SOL    HW235371   4.417   6.972   5.421
 8763SOL    HW335372   4.426   6.837   5.490
 8763SOL    MW435373   4.383   6.893   5.440
 8764SOL     OW35374   3.945   7.131   5.574
 8764SOL    HW235375   4.001   7.055   5.589
 8764SOL    HW335376   3.894   7.109   5.496
 8764SOL    MW435377   3.945   7.118   5.565
 8765SOL     OW35378   5.044   5.983   3.853
 8765SOL    HW235379   5.017   6.049   3.789
 8765SOL    HW335380   5.114   6.026   3.903
 8765SOL    MW435381   5.049   5.996   3.850
 8766SOL     OW35382   4.712   5.688   3.790
 8766SOL    HW235383   4.768   5.680   3.712
 8766SOL    HW335384   4.689   5.598   3.812
 8766SOL    MW435385   4.717   5.675   3.783
 8767SOL     OW35386   5.217   6.539   3.995
 8767SOL    HW235387   5.184   6.628   3.985
 8767SOL    HW335388   5.182   6.510   4.080
 8767SOL    MW435389   5.207   6.548   4.006
 8768SOL     OW35390   4.830   6.968   5.183
 8768SOL    HW235391   4.741   6.974   5.151
 8768SOL    HW335392   4.874   7.047   5.151
 8768SOL    MW435393   4.825   6.978   5.175
 8769SOL     OW35394   4.123   5.636   5.525
 8769SOL    HW235395   4.051   5.601   5.473
 8769SOL    HW335396   4.181   5.677   5.460
 8769SOL    MW435397   4.121   5.637   5.510
 8770SOL     OW35398   4.147   7.126   4.824
 8770SOL    HW235399   4.192   7.188   4.881
 8770SOL    HW335400   4.054   7.145   4.837
 8770SOL    MW435401   4.140   7.136   4.831
 8771SOL     OW35402   5.587   6.655   5.178
 8771SOL    HW235403   5.502   6.668   5.137
 8771SOL    HW335404   5.567   6.619   5.265
 8771SOL    MW435405   5.574   6.651   5.183
 8772SOL     OW35406   4.569   7.194   4.932
 8772SOL    HW235407   4.593   7.183   4.841
 8772SOL    HW335408   4.492   7.251   4.930
 8772SOL    MW435409   4.561   7.199   4.921
 8773SOL     OW35410   4.211   6.577   3.787
 8773SOL    HW235411   4.134   6.590   3.843
 8773SOL    HW335412   4.175   6.541   3.706
 8773SOL    MW435413   4.197   6.573   3.784
 8774SOL     OW35414   4.864   6.550   4.030
 8774SOL    HW235415   4.774   6.571   4.005
 8774SOL    HW335416   4.891   6.623   4.086
 8774SOL    MW435417   4.856   6.562   4.033
 8775SOL     OW35418   4.364   6.899   4.722
 8775SOL    HW235419   4.357   6.878   4.816
 8775SOL    HW335420   4.282   6.867   4.685
 8775SOL    MW435421   4.352   6.893   4.729
 8776SOL     OW35422   5.228   5.909   5.124
 8776SOL    HW235423   5.175   5.911   5.204
 8776SOL    HW335424   5.213   5.822   5.087
 8776SOL    MW435425   5.220   5.899   5.129
 8777SOL     OW35426   5.564   5.833   4.997
 8777SOL    HW235427   5.545   5.900   4.932
 8777SOL    HW335428   5.621   5.771   4.952
 8777SOL    MW435429   5.568   5.834   4.983
 8778SOL     OW35430   3.810   6.991   5.385
 8778SOL    HW235431   3.854   6.924   5.331
 8778SOL    HW335432   3.725   6.953   5.405
 8778SOL    MW435433   3.805   6.977   5.381
 8779SOL     OW35434   4.493   5.666   4.437
 8779SOL    HW235435   4.422   5.727   4.419
 8779SOL    HW335436   4.544   5.663   4.356
 8779SOL    MW435437   4.489   5.672   4.424
 8780SOL     OW35438   4.251   6.906   4.186
 8780SOL    HW235439   4.244   6.938   4.276
 8780SOL    HW335440   4.161   6.890   4.158
 8780SOL    MW435441   4.239   6.908   4.193
 8781SOL     OW35442   4.846   7.299   5.095
 8781SOL    HW235443   4.766   7.284   5.045
 8781SOL    HW335444   4.853   7.394   5.102
 8781SOL    MW435445   4.837   7.310   5.089
 8782SOL     OW35446   4.960   7.264   4.585
 8782SOL    HW235447   5.007   7.337   4.544
 8782SOL    HW335448   4.881   7.303   4.621
 8782SOL    MW435449   4.955   7.279   4.584
 8783SOL     OW35450   5.368   7.359   4.860
 8783SOL    HW235451   5.411   7.329   4.940
 8783SOL    HW335452   5.287   7.307   4.857
 8783SOL    MW435453   5.363   7.348   4.870
 8784SOL     OW35454   4.453   6.323   5.567
 8784SOL    HW235455   4.523   6.265   5.539
 8784SOL    HW335456   4.396   6.268   5.622
 8784SOL    MW435457   4.455   6.310   5.571
 8785SOL     OW35458   5.240   6.535   5.200
 8785SOL    HW235459   5.245   6.588   5.280
 8785SOL    HW335460   5.202   6.452   5.228
 8785SOL    MW435461   5.236   6.530   5.215
 8786SOL     OW35462   4.880   5.670   5.446
 8786SOL    HW235463   4.875   5.577   5.427
 8786SOL    HW335464   4.963   5.681   5.492
 8786SOL    MW435465   4.888   5.659   5.450
 8787SOL     OW35466   4.254   6.190   3.900
 8787SOL    HW235467   4.220   6.246   3.970
 8787SOL    HW335468   4.325   6.140   3.940
 8787SOL    MW435469   4.260   6.191   3.914
 8788SOL     OW35470   5.350   6.941   4.722
 8788SOL    HW235471   5.385   6.923   4.635
 8788SOL    HW335472   5.255   6.942   4.709
 8788SOL    MW435473   5.342   6.938   4.709
 8789SOL     OW35474   4.779   6.589   5.091
 8789SOL    HW235475   4.822   6.624   5.169
 8789SOL    HW335476   4.762   6.666   5.037
 8789SOL    MW435477   4.782   6.604   5.094
 8790SOL     OW35478   5.310   6.076   3.964
 8790SOL    HW235479   5.302   6.147   3.901
 8790SOL    HW335480   5.328   6.120   4.047
 8790SOL    MW435481   5.311   6.090   3.966
 8791SOL     OW35482   4.170   5.731   4.393
 8791SOL    HW235483   4.220   5.774   4.324
 8791SOL    HW335484   4.085   5.775   4.393
 8791SOL    MW435485   4.167   5.744   4.384
 8792SOL     OW35486   3.929   6.793   5.253
 8792SOL    HW235487   3.957   6.746   5.331
 8792SOL    HW335488   3.850   6.748   5.224
 8792SOL    MW435489   3.922   6.782   5.259
 8793SOL     OW35490   4.437   6.120   5.220
 8793SOL    HW235491   4.409   6.208   5.244
 8793SOL    HW335492   4.406   6.064   5.291
 8793SOL    MW435493   4.429   6.123   5.232
 8794SOL     OW35494   4.979   6.338   3.939
 8794SOL    HW235495   5.026   6.356   3.858
 8794SOL    HW335496   4.945   6.422   3.967
 8794SOL    MW435497   4.981   6.352   3.932
 8795SOL     OW35498   4.092   6.516   4.433
 8795SOL    HW235499   4.150   6.572   4.381
 8795SOL    HW335500   4.136   6.431   4.435
 8795SOL    MW435501   4.105   6.513   4.426
 8796SOL     OW35502   5.232   5.868   4.270
 8796SOL    HW235503   5.154   5.818   4.295
 8796SOL    HW335504   5.203   5.959   4.270
 8796SOL    MW435505   5.218   5.872   4.273
 8797SOL     OW35506   4.818   5.830   4.429
 8797SOL    HW235507   4.838   5.905   4.373
 8797SOL    HW335508   4.798   5.869   4.514
 8797SOL    MW435509   4.819   5.846   4.433
 8798SOL     OW35510   4.714   7.080   3.761
 8798SOL    HW235511   4.741   7.158   3.713
 8798SOL    HW335512   4.621   7.095   3.780
 8798SOL    MW435513   4.705   7.093   3.757
 8799SOL     OW35514   5.578   6.603   5.448
 8799SOL    HW235515   5.491   6.583   5.484
 8799SOL    HW335516   5.632   6.529   5.473
 8799SOL    MW435517   5.573   6.592   5.456
 8800SOL     OW35518   3.799   7.116   4.605
 8800SOL    HW235519   3.831   7.120   4.696
 8800SOL    HW335520   3.704   7.124   4.613
 8800SOL    MW435521   3.791   7.119   4.618
 8801SOL     OW35522   3.754   6.242   4.152
 8801SOL    HW235523   3.694   6.214   4.222
 8801SOL    HW335524   3.828   6.182   4.158
 8801SOL    MW435525   3.756   6.231   4.161
 8802SOL     OW35526   4.922   6.973   4.312
 8802SOL    HW235527   4.945   6.924   4.390
 8802SOL    HW335528   5.003   7.015   4.284
 8802SOL    MW435529   4.935   6.973   4.319
 8803SOL     OW35530   4.180   5.981   5.041
 8803SOL    HW235531   4.213   6.062   5.081
 8803SOL    HW335532   4.153   6.007   4.953
 8803SOL    MW435533   4.179   5.995   5.035
 8804SOL     OW35534   4.134   5.948   4.777
 8804SOL    HW235535   4.164   5.862   4.748
 8804SOL    HW335536   4.039   5.941   4.780
 8804SOL    MW435537   4.126   5.937   4.775
 8805SOL     OW35538   4.963   6.157   5.468
 8805SOL    HW235539   5.015   6.092   5.421
 8805SOL    HW335540   4.921   6.208   5.398
 8805SOL    MW435541   4.964   6.154   5.451
 8806SOL     OW35542   5.062   5.952   5.329
 8806SOL    HW235543   4.969   5.936   5.316
 8806SOL    HW335544   5.088   5.890   5.397
 8806SOL    MW435545   5.052   5.942   5.336
 8807SOL     OW35546   4.277   5.726   4.668
 8807SOL    HW235547   4.287   5.635   4.694
 8807SOL    HW335548   4.233   5.722   4.583
 8807SOL    MW435549   4.273   5.714   4.660
 8808SOL     OW35550   4.371   7.341   5.214
 8808SOL    HW235551   4.288   7.326   5.259
 8808SOL    HW335552   4.430   7.274   5.249
 8808SOL    MW435553   4.369   7.331   5.224
 8809SOL     OW35554   5.428   6.048   4.839
 8809SOL    HW235555   5.361   6.081   4.899
 8809SOL    HW335556   5.471   6.126   4.805
 8809SOL    MW435557   5.426   6.063   4.843
 8810SOL     OW35558   5.606   6.768   4.809
 8810SOL    HW235559   5.599   6.708   4.734
 8810SOL    HW335560   5.532   6.828   4.798
 8810SOL    MW435561   5.596   6.768   4.798
 8811SOL     OW35562   4.988   6.630   4.727
 8811SOL    HW235563   5.002   6.602   4.818
 8811SOL    HW335564   5.074   6.661   4.699
 8811SOL    MW435565   5.001   6.631   4.736
 8812SOL     OW35566   5.071   6.125   5.006
 8812SOL    HW235567   5.092   6.126   4.913
 8812SOL    HW335568   5.116   6.047   5.039
 8812SOL    MW435569   5.078   6.115   4.998
 8813SOL     OW35570   5.564   6.256   5.548
 8813SOL    HW235571   5.601   6.201   5.617
 8813SOL    HW335572   5.589   6.213   5.466
 8813SOL    MW435573   5.571   6.244   5.547
 8814SOL     OW35574   5.111   6.554   5.600
 8814SOL    HW235575   5.177   6.502   5.554
 8814SOL    HW335576   5.131   6.541   5.693
 8814SOL    MW435577   5.122   6.545   5.607
 8815SOL     OW35578   5.062   5.640   3.948
 8815SOL    HW235579   5.136   5.684   3.991
 8815SOL    HW335580   4.986   5.694   3.970
 8815SOL    MW435581   5.062   5.652   3.956
 8816SOL     OW35582   5.122   6.415   4.226
 8816SOL    HW235583   5.037   6.385   4.196
 8816SOL    HW335584   5.114   6.422   4.321
 8816SOL    MW435585   5.110   6.413   4.235
 8817SOL     OW35586   4.198   6.878   4.957
 8817SOL    HW235587   4.210   6.905   5.048
 8817SOL    HW335588   4.179   6.959   4.910
 8817SOL    MW435589   4.197   6.893   4.962
 8818SOL     OW35590   4.482   5.858   4.780
 8818SOL    HW235591   4.455   5.860   4.871
 8818SOL    HW335592   4.412   5.810   4.735
 8818SOL    MW435593   4.470   5.854   4.787
 8819SOL     OW35594   4.336   7.350   4.942
 8819SOL    HW235595   4.388   7.427   4.919
 8819SOL    HW335596   4.345   7.342   5.037
 8819SOL    MW435597   4.345   7.357   4.953
 8820SOL     OW35598   5.238   6.935   5.174
 8820SOL    HW235599   5.223   6.864   5.237
 8820SOL    HW335600   5.284   6.893   5.102
 8820SOL    MW435601   5.244   6.919   5.174
 8821SOL     OW35602   4.312   6.666   5.291
 8821SOL    HW235603   4.349   6.671   5.203
 8821SOL    HW335604   4.351   6.739   5.338
 8821SOL    MW435605   4.322   6.676   5.286
 8822SOL     OW35606   4.492   6.709   5.103
 8822SOL    HW235607   4.551   6.655   5.156
 8822SOL    HW335608   4.507   6.681   5.013
 8822SOL    MW435609   4.502   6.698   5.099
 8823SOL     OW35610   4.495   6.081   3.952
 8823SOL    HW235611   4.568   6.130   3.915
 8823SOL    HW335612   4.511   5.990   3.926
 8823SOL    MW435613   4.507   6.076   3.945
 8824SOL     OW35614   5.303   7.198   5.275
 8824SOL    HW235615   5.345   7.183   5.360
 8824SOL    HW335616   5.294   7.111   5.237
 8824SOL    MW435617   5.307   7.186   5.282
 8825SOL     OW35618   4.963   5.677   4.866
 8825SOL    HW235619   5.018   5.686   4.788
 8825SOL    HW335620   5.018   5.711   4.937
 8825SOL    MW435621   4.977   5.682   4.865
 8826SOL     OW35622   3.970   6.590   4.050
 8826SOL    HW235623   3.907   6.606   3.979
 8826SOL    HW335624   3.917   6.553   4.121
 8826SOL    MW435625   3.955   6.587   4.050
 8827SOL     OW35626   4.326   6.944   3.909
 8827SOL    HW235627   4.341   6.920   4.001
 8827SOL    HW335628   4.234   6.922   3.893
 8827SOL    MW435629   4.316   6.937   3.919
 8828SOL     OW35630   4.865   7.175   4.061
 8828SOL    HW235631   4.873   7.093   4.012
 8828SOL    HW335632   4.784   7.214   4.028
 8828SOL    MW435633   4.855   7.170   4.051
 8829SOL     OW35634   4.124   7.333   4.630
 8829SOL    HW235635   4.128   7.244   4.665
 8829SOL    HW335636   4.150   7.324   4.539
 8829SOL    MW435637   4.127   7.321   4.622
 8830SOL     OW35638   4.741   6.811   4.873
 8830SOL    HW235639   4.673   6.745   4.889
 8830SOL    HW335640   4.759   6.805   4.780
 8830SOL    MW435641   4.734   6.802   4.864
 8831SOL     OW35642   3.830   7.086   5.124
 8831SOL    HW235643   3.820   7.044   5.210
 8831SOL    HW335644   3.751   7.139   5.114
 8831SOL    MW435645   3.819   7.087   5.135
 8832SOL     OW35646   4.734   5.950   4.694
 8832SOL    HW235647   4.664   5.902   4.739
 8832SOL    HW335648   4.766   6.013   4.758
 8832SOL    MW435649   4.729   5.952   4.708
 8833SOL     OW35650   4.385   6.386   5.314
 8833SOL    HW235651   4.378   6.481   5.302
 8833SOL    HW335652   4.394   6.375   5.409
 8833SOL    MW435653   4.386   6.398   5.324
 8834SOL     OW35654   4.106   6.901   5.572
 8834SOL    HW235655   4.178   6.903   5.509
 8834SOL    HW335656   4.076   6.810   5.571
 8834SOL    MW435657   4.111   6.890   5.564
 8835SOL     OW35658   5.190   5.664   5.039
 8835SOL    HW235659   5.261   5.610   5.003
 8835SOL    HW335660   5.189   5.643   5.132
 8835SOL    MW435661   5.199   5.655   5.047
 8836SOL     OW35662   5.390   7.194   5.523
 8836SOL    HW235663   5.363   7.191   5.614
 8836SOL    HW335664   5.486   7.198   5.526
 8836SOL    MW435665   5.400   7.194   5.535
 8837SOL     OW35666   4.201   6.056   4.507
 8837SOL    HW235667   4.272   6.004   4.470
 8837SOL    HW335668   4.187   6.021   4.594
 8837SOL    MW435669   4.209   6.045   4.514
 8838SOL     OW35670   4.517   7.149   4.583
 8838SOL    HW235671   4.445   7.086   4.596
 8838SOL    HW335672   4.478   7.234   4.601
 8838SOL    MW435673   4.501   7.152   4.586
 8839SOL     OW35674   4.837   5.997   4.231
 8839SOL    HW235675   4.859   5.934   4.163
 8839SOL    HW335676   4.742   5.989   4.242
 8839SOL    MW435677   4.827   5.988   4.223
 8840SOL     OW35678   3.753   6.154   5.306
 8840SOL    HW235679   3.817   6.220   5.281
 8840SOL    HW335680   3.672   6.181   5.263
 8840SOL    MW435681   3.751   6.166   5.298
 8841SOL     OW35682   5.491   7.061   4.263
 8841SOL    HW235683   5.461   6.994   4.324
 8841SOL    HW335684   5.585   7.067   4.277
 8841SOL    MW435685   5.499   7.053   4.273
 8842SOL     OW35686   5.047   6.738   4.193
 8842SOL    HW235687   5.019   6.824   4.226
 8842SOL    HW335688   5.075   6.754   4.103
 8842SOL    MW435689   5.047   6.752   4.185
 8843SOL     OW35690   4.709   5.658   4.246
 8843SOL    HW235691   4.746   5.717   4.311
 8843SOL    HW335692   4.686   5.714   4.172
 8843SOL    MW435693   4.710   5.673   4.245
 8844SOL     OW35694   5.562   6.540   4.668
 8844SOL    HW235695   5.553   6.572   4.579
 8844SOL    HW335696   5.515   6.456   4.668
 8844SOL    MW435697   5.555   6.533   4.658
 8845SOL     OW35698   3.938   6.380   5.247
 8845SOL    HW235699   3.959   6.449   5.185
 8845SOL    HW335700   4.018   6.327   5.252
 8845SOL    MW435701   3.951   6.381   5.241
 8846SOL     OW35702   5.474   6.471   4.369
 8846SOL    HW235703   5.568   6.460   4.357
 8846SOL    HW335704   5.450   6.543   4.310
 8846SOL    MW435705   5.484   6.479   4.360
 8847SOL     OW35706   3.923   6.395   5.514
 8847SOL    HW235707   3.849   6.339   5.540
 8847SOL    HW335708   3.918   6.398   5.419
 8847SOL    MW435709   3.912   6.388   5.504
 8848SOL     OW35710   4.089   5.682   4.964
 8848SOL    HW235711   4.132   5.766   4.984
 8848SOL    HW335712   4.162   5.620   4.957
 8848SOL    MW435713   4.104   5.685   4.965
 8849SOL     OW35714   4.130   6.349   4.142
 8849SOL    HW235715   4.130   6.444   4.127
 8849SOL    HW335716   4.207   6.333   4.196
 8849SOL    MW435717   4.140   6.360   4.147
 8850SOL     OW35718   4.906   6.208   5.206
 8850SOL    HW235719   4.942   6.181   5.122
 8850SOL    HW335720   4.819   6.242   5.185
 8850SOL    MW435721   4.900   6.209   5.193
 8851SOL     OW35722   3.889   6.080   4.431
 8851SOL    HW235723   3.951   6.087   4.504
 8851SOL    HW335724   3.889   5.987   4.408
 8851SOL    MW435725   3.897   6.069   4.438
 8852SOL     OW35726   4.571   6.341   4.915
 8852SOL    HW235727   4.529   6.259   4.891
 8852SOL    HW335728   4.572   6.340   5.011
 8852SOL    MW435729   4.564   6.330   4.924
 8853SOL     OW35730   4.375   5.811   5.020
 8853SOL    HW235731   4.306   5.874   5.041
 8853SOL    HW335732   4.402   5.775   5.105
 8853SOL    MW435733   4.369   5.814   5.033
 8854SOL     OW35734   3.758   6.652   3.889
 8854SOL    HW235735   3.727   6.717   3.952
 8854SOL    HW335736   3.707   6.574   3.908
 8854SOL    MW435737   3.748   6.649   3.899
 8855SOL     OW35738   5.170   5.664   4.637
 8855SOL    HW235739   5.258   5.673   4.674
 8855SOL    HW335740   5.180   5.605   4.563
 8855SOL    MW435741   5.184   5.658   4.631
 8856SOL     OW35742   5.202   6.403   4.481
 8856SOL    HW235743   5.282   6.418   4.430
 8856SOL    HW335744   5.195   6.308   4.487
 8856SOL    MW435745   5.211   6.392   4.476
 8857SOL     OW35746   4.342   7.452   3.831
 8857SOL    HW235747   4.247   7.452   3.823
 8857SOL    HW335748   4.358   7.398   3.909
 8857SOL    MW435749   4.332   7.446   3.840
 8858SOL     OW35750   4.652   6.329   5.178
 8858SOL    HW235751   4.721   6.396   5.175
 8858SOL    HW335752   4.585   6.367   5.234
 8858SOL    MW435753   4.653   6.342   5.185
 8859SOL     OW35754   4.070   6.629   5.426
 8859SOL    HW235755   4.024   6.545   5.428
 8859SOL    HW335756   4.127   6.623   5.350
 8859SOL    MW435757   4.072   6.617   5.418
 8860SOL     OW35758   5.187   6.272   3.747
 8860SOL    HW235759   5.115   6.248   3.689
 8860SOL    HW335760   5.253   6.309   3.689
 8860SOL    MW435761   5.186   6.274   3.732
 8861SOL     OW35762   4.321   7.004   4.427
 8861SOL    HW235763   4.386   6.937   4.448
 8861SOL    HW335764   4.373   7.081   4.404
 8861SOL    MW435765   4.336   7.006   4.426
 8862SOL     OW35766   4.582   6.169   4.557
 8862SOL    HW235767   4.522   6.187   4.629
 8862SOL    HW335768   4.616   6.081   4.576
 8862SOL    MW435769   4.578   6.159   4.570
 8863SOL     OW35770   5.523   5.668   5.226
 8863SOL    HW235771   5.444   5.714   5.254
 8863SOL    HW335772   5.558   5.722   5.155
 8863SOL    MW435773   5.517   5.681   5.220
 8864SOL     OW35774   4.807   6.752   4.576
 8864SOL    HW235775   4.899   6.733   4.594
 8864SOL    HW335776   4.780   6.682   4.516
 8864SOL    MW435777   4.815   6.740   4.570
 8865SOL     OW35778   4.600   6.572   3.931
 8865SOL    HW235779   4.586   6.484   3.896
 8865SOL    HW335780   4.551   6.629   3.872
 8865SOL    MW435781   4.592   6.567   3.919
 8866SOL     OW35782   5.081   6.990   4.672
 8866SOL    HW235783   5.054   7.074   4.637
 8866SOL    HW335784   5.041   6.985   4.759
 8866SOL    MW435785   5.074   6.999   4.678
 8867SOL     OW35786   5.000   6.938   4.940
 8867SOL    HW235787   5.011   6.905   5.029
 8867SOL    HW335788   4.919   6.897   4.909
 8867SOL    MW435789   4.990   6.930   4.946
 8868SOL     OW35790   4.013   6.296   4.710
 8868SOL    HW235791   3.963   6.295   4.791
 8868SOL    HW335792   4.033   6.388   4.694
 8868SOL    MW435793   4.009   6.308   4.718
 8869SOL     OW35794   5.080   7.060   5.472
 8869SOL    HW235795   5.080   7.154   5.488
 8869SOL    HW335796   5.125   7.050   5.388
 8869SOL    MW435797   5.086   7.070   5.463
 8870SOL     OW35798   5.319   5.778   4.033
 8870SOL    HW235799   5.312   5.782   4.128
 8870SOL    HW335800   5.331   5.869   4.006
 8870SOL    MW435801   5.320   5.791   4.041
 8871SOL     OW35802   4.608   6.341   4.147
 8871SOL    HW235803   4.588   6.327   4.054
 8871SOL    HW335804   4.701   6.320   4.154
 8871SOL    MW435805   4.618   6.336   4.136
 8872SOL     OW35806   3.935   5.964   5.451
 8872SOL    HW235807   3.892   6.023   5.388
 8872SOL    HW335808   4.003   6.019   5.491
 8872SOL    MW435809   3.939   5.979   5.448
 8873SOL     OW35810   5.047   6.584   4.996
 8873SOL    HW235811   5.110   6.581   5.069
 8873SOL    HW335812   4.963   6.602   5.038
 8873SOL    MW435813   5.043   6.586   5.011
 8874SOL     OW35814   4.591   7.299   4.185
 8874SOL    HW235815   4.649   7.370   4.212
 8874SOL    HW335816   4.614   7.227   4.243
 8874SOL    MW435817   4.602   7.299   4.196
 8875SOL     OW35818   5.386   5.761   4.775
 8875SOL    HW235819   5.431   5.679   4.794
 8875SOL    HW335820   5.406   5.817   4.851
 8875SOL    MW435821   5.396   5.757   4.787
 8876SOL     OW35822   3.834   5.604   4.874
 8876SOL    HW235823   3.825   5.605   4.779
 8876SOL    HW335824   3.928   5.616   4.889
 8876SOL    MW435825   3.846   5.607   4.865
 8877SOL     OW35826   5.471   6.797   4.494
 8877SOL    HW235827   5.450   6.743   4.417
 8877SOL    HW335828   5.567   6.795   4.498
 8877SOL    MW435829   5.480   6.790   4.483
 8878SOL     OW35830   4.163   6.942   5.237
 8878SOL    HW235831   4.084   6.892   5.260
 8878SOL    HW335832   4.233   6.901   5.287
 8878SOL    MW435833   4.161   6.930   5.247
 8879SOL     OW35834   4.047   5.731   3.920
 8879SOL    HW235835   3.976   5.786   3.888
 8879SOL    HW335836   4.089   5.697   3.841
 8879SOL    MW435837   4.043   5.733   3.906
 8880SOL     OW35838   5.171   6.228   4.756
 8880SOL    HW235839   5.094   6.274   4.722
 8880SOL    HW335840   5.228   6.297   4.790
 8880SOL    MW435841   5.168   6.243   4.756
 8881SOL     OW35842   3.837   7.087   3.958
 8881SOL    HW235843   3.854   7.171   4.000
 8881SOL    HW335844   3.872   7.096   3.870
 8881SOL    MW435845   3.842   7.100   3.952
 8882SOL     OW35846   5.109   7.176   4.175
 8882SOL    HW235847   5.172   7.166   4.104
 8882SOL    HW335848   5.026   7.196   4.130
 8882SOL    MW435849   5.106   7.177   4.160
 8883SOL     OW35850   5.472   6.444   5.862
 8883SOL    HW235851   5.513   6.386   5.927
 8883SOL    HW335852   5.379   6.436   5.879
 8883SOL    MW435853   5.466   6.436   5.872
 8884SOL     OW35854   4.266   6.627   6.091
 8884SOL    HW235855   4.356   6.602   6.075
 8884SOL    HW335856   4.262   6.720   6.068
 8884SOL    MW435857   4.278   6.636   6.086
 8885SOL     OW35858   5.382   7.330   6.233
 8885SOL    HW235859   5.394   7.276   6.311
 8885SOL    HW335860   5.419   7.278   6.162
 8885SOL    MW435861   5.388   7.315   6.234
 8886SOL     OW35862   4.550   6.083   6.104
 8886SOL    HW235863   4.525   6.171   6.132
 8886SOL    HW335864   4.547   6.086   6.008
 8886SOL    MW435865   4.546   6.095   6.096
 8887SOL     OW35866   3.992   6.111   6.032
 8887SOL    HW235867   4.024   6.199   6.014
 8887SOL    HW335868   3.980   6.109   6.127
 8887SOL    MW435869   3.995   6.123   6.044
 8888SOL     OW35870   4.391   5.866   6.119
 8888SOL    HW235871   4.449   5.942   6.121
 8888SOL    HW335872   4.326   5.887   6.052
 8888SOL    MW435873   4.390   5.878   6.110
 8889SOL     OW35874   4.478   6.793   6.294
 8889SOL    HW235875   4.558   6.796   6.346
 8889SOL    HW335876   4.506   6.760   6.208
 8889SOL    MW435877   4.492   6.789   6.289
 8890SOL     OW35878   4.255   6.297   6.285
 8890SOL    HW235879   4.240   6.217   6.336
 8890SOL    HW335880   4.337   6.332   6.319
 8890SOL    MW435881   4.263   6.289   6.297
 8891SOL     OW35882   4.397   6.123   6.662
 8891SOL    HW235883   4.303   6.119   6.680
 8891SOL    HW335884   4.427   6.032   6.671
 8891SOL    MW435885   4.388   6.111   6.665
 8892SOL     OW35886   4.143   6.537   6.566
 8892SOL    HW235887   4.098   6.544   6.482
 8892SOL    HW335888   4.123   6.620   6.610
 8892SOL    MW435889   4.135   6.549   6.560
 8893SOL     OW35890   3.840   7.383   6.441
 8893SOL    HW235891   3.929   7.375   6.476
 8893SOL    HW335892   3.804   7.295   6.446
 8893SOL    MW435893   3.847   7.370   6.446
 8894SOL     OW35894   5.105   6.775   5.810
 8894SOL    HW235895   5.023   6.811   5.776
 8894SOL    HW335896   5.173   6.818   5.759
 8894SOL    MW435897   5.103   6.785   5.798
 8895SOL     OW35898   4.104   6.910   6.476
 8895SOL    HW235899   4.080   6.963   6.552
 8895SOL    HW335900   4.160   6.968   6.424
 8895SOL    MW435901   4.108   6.925   6.479
 8896SOL     OW35902   4.666   6.554   6.286
 8896SOL    HW235903   4.580   6.541   6.326
 8896SOL    HW335904   4.719   6.481   6.318
 8896SOL    MW435905   4.662   6.543   6.295
 8897SOL     OW35906   4.657   6.916   6.003
 8897SOL    HW235907   4.634   6.978   6.071
 8897SOL    HW335908   4.614   6.834   6.029
 8897SOL    MW435909   4.649   6.912   6.014
 8898SOL     OW35910   4.154   5.889   5.971
 8898SOL    HW235911   4.128   5.851   5.887
 8898SOL    HW335912   4.091   5.959   5.987
 8898SOL    MW435913   4.143   5.892   5.962
 8899SOL     OW35914   3.989   6.850   6.008
 8899SOL    HW235915   3.937   6.918   5.964
 8899SOL    HW335916   3.986   6.776   5.948
 8899SOL    MW435917   3.981   6.849   5.995
 8900SOL     OW35918   4.651   7.313   5.786
 8900SOL    HW235919   4.606   7.329   5.869
 8900SOL    HW335920   4.582   7.278   5.728
 8900SOL    MW435921   4.637   7.310   5.788
 8901SOL     OW35922   5.586   6.086   5.761
 8901SOL    HW235923   5.495   6.088   5.789
 8901SOL    HW335924   5.631   6.148   5.819
 8901SOL    MW435925   5.579   6.094   5.771
 8902SOL     OW35926   5.331   6.689   6.111
 8902SOL    HW235927   5.241   6.689   6.146
 8902SOL    HW335928   5.324   6.735   6.028
 8902SOL    MW435929   5.318   6.695   6.105
 8903SOL     OW35930   3.872   7.204   6.735
 8903SOL    HW235931   3.855   7.150   6.812
 8903SOL    HW335932   3.860   7.294   6.765
 8903SOL    MW435933   3.869   7.208   6.749
 8904SOL     OW35934   5.238   6.667   6.503
 8904SOL    HW235935   5.241   6.601   6.434
 8904SOL    HW335936   5.323   6.710   6.499
 8904SOL    MW435937   5.250   6.663   6.494
 8905SOL     OW35938   4.858   6.270   6.072
 8905SOL    HW235939   4.884   6.294   5.983
 8905SOL    HW335940   4.840   6.177   6.068
 8905SOL    MW435941   4.860   6.262   6.059
 8906SOL     OW35942   5.523   6.890   5.923
 8906SOL    HW235943   5.479   6.931   5.998
 8906SOL    HW335944   5.580   6.958   5.888
 8906SOL    MW435945   5.525   6.904   5.928
 8907SOL     OW35946   4.179   7.306   6.241
 8907SOL    HW235947   4.211   7.394   6.219
 8907SOL    HW335948   4.132   7.278   6.163
 8907SOL    MW435949   4.178   7.314   6.228
 8908SOL     OW35950   5.563   5.668   6.290
 8908SOL    HW235951   5.617   5.619   6.352
 8908SOL    HW335952   5.506   5.602   6.251
 8908SOL    MW435953   5.563   5.652   6.292
 8909SOL     OW35954   4.682   5.621   6.703
 8909SOL    HW235955   4.641   5.699   6.665
 8909SOL    HW335956   4.776   5.639   6.698
 8909SOL    MW435957   4.688   5.633   6.698
 8910SOL     OW35958   5.299   7.174   5.789
 8910SOL    HW235959   5.347   7.243   5.835
 8910SOL    HW335960   5.220   7.218   5.758
 8910SOL    MW435961   5.294   7.188   5.792
 8911SOL     OW35962   4.697   6.299   5.733
 8911SOL    HW235963   4.699   6.246   5.654
 8911SOL    HW335964   4.785   6.336   5.739
 8911SOL    MW435965   4.709   6.298   5.722
 8912SOL     OW35966   5.311   6.225   6.069
 8912SOL    HW235967   5.350   6.225   6.156
 8912SOL    HW335968   5.252   6.301   6.069
 8912SOL    MW435969   5.308   6.236   6.080
 8913SOL     OW35970   4.797   6.218   6.792
 8913SOL    HW235971   4.872   6.247   6.739
 8913SOL    HW335972   4.729   6.283   6.776
 8913SOL    MW435973   4.798   6.230   6.782
 8914SOL     OW35974   5.498   6.111   6.235
 8914SOL    HW235975   5.587   6.080   6.252
 8914SOL    HW335976   5.441   6.051   6.283
 8914SOL    MW435977   5.501   6.099   6.244
 8915SOL     OW35978   3.924   5.825   6.264
 8915SOL    HW235979   3.915   5.765   6.190
 8915SOL    HW335980   3.857   5.796   6.327
 8915SOL    MW435981   3.914   5.812   6.262
 8916SOL     OW35982   4.867   6.918   5.825
 8916SOL    HW235983   4.817   6.920   5.907
 8916SOL    HW335984   4.801   6.936   5.757
 8916SOL    MW435985   4.853   6.920   5.827
 8917SOL     OW35986   3.871   5.998   6.627
 8917SOL    HW235987   3.843   6.089   6.636
 8917SOL    HW335988   3.808   5.959   6.566
 8917SOL    MW435989   3.858   6.004   6.621
 8918SOL     OW35990   4.330   7.336   5.933
 8918SOL    HW235991   4.251   7.294   5.966
 8918SOL    HW335992   4.396   7.319   6.000
 8918SOL    MW435993   4.329   7.328   5.946
 8919SOL     OW35994   4.466   6.751   5.640
 8919SOL    HW235995   4.388   6.697   5.627
 8919SOL    HW335996   4.437   6.824   5.693
 8919SOL    MW435997   4.452   6.753   5.645
 8920SOL     OW35998   5.047   7.267   5.708
 8920SOL    HW235999   4.973   7.230   5.758
 8920SOL    HW336000   5.055   7.357   5.741
 8920SOL    MW436001   5.038   7.274   5.720
 8921SOL     OW36002   5.271   6.941   5.650
 8921SOL    HW236003   5.218   6.990   5.586
 8921SOL    HW336004   5.302   7.007   5.711
 8921SOL    MW436005   5.269   6.955   5.648
 8922SOL     OW36006   4.496   5.830   5.705
 8922SOL    HW236007   4.444   5.750   5.693
 8922SOL    HW336008   4.583   5.807   5.673
 8922SOL    MW436009   4.499   5.816   5.699
 8923SOL     OW36010   4.002   6.701   6.756
 8923SOL    HW236011   4.055   6.776   6.781
 8923SOL    HW336012   3.921   6.739   6.722
 8923SOL    MW436013   3.998   6.716   6.756
 8924SOL     OW36014   4.542   6.605   6.744
 8924SOL    HW236015   4.570   6.514   6.756
 8924SOL    HW336016   4.471   6.599   6.680
 8924SOL    MW436017   4.535   6.593   6.739
 8925SOL     OW36018   3.857   6.470   6.162
 8925SOL    HW236019   3.948   6.485   6.189
 8925SOL    HW336020   3.860   6.391   6.108
 8925SOL    MW436021   3.869   6.462   6.160
 8926SOL     OW36022   4.484   7.402   6.536
 8926SOL    HW236023   4.573   7.417   6.566
 8926SOL    HW336024   4.479   7.449   6.452
 8926SOL    MW436025   4.494   7.410   6.529
 8927SOL     OW36026   3.865   7.082   6.201
 8927SOL    HW236027   3.837   7.121   6.283
 8927SOL    HW336028   3.885   6.991   6.223
 8927SOL    MW436029   3.863   7.074   6.214
 8928SOL     OW36030   4.698   7.125   6.236
 8928SOL    HW236031   4.781   7.079   6.220
 8928SOL    HW336032   4.688   7.124   6.332
 8928SOL    MW436033   4.708   7.118   6.246
 8929SOL     OW36034   5.530   6.270   6.550
 8929SOL    HW236035   5.619   6.300   6.532
 8929SOL    HW336036   5.510   6.210   6.479
 8929SOL    MW436037   5.539   6.267   6.539
 8930SOL     OW36038   4.431   7.182   5.641
 8930SOL    HW236039   4.371   7.251   5.611
 8930SOL    HW336040   4.376   7.124   5.694
 8930SOL    MW436041   4.415   7.184   5.643
 8931SOL     OW36042   4.869   5.827   5.864
 8931SOL    HW236043   4.802   5.803   5.801
 8931SOL    HW336044   4.934   5.876   5.813
 8931SOL    MW436045   4.869   5.829   5.849
 8932SOL     OW36046   4.936   6.349   6.572
 8932SOL    HW236047   4.949   6.443   6.582
 8932SOL    HW336048   4.897   6.339   6.486
 8932SOL    MW436049   4.932   6.360   6.562
 8933SOL     OW36050   4.388   6.544   6.376
 8933SOL    HW236051   4.299   6.535   6.409
 8933SOL    HW336052   4.392   6.634   6.344
 8933SOL    MW436053   4.377   6.555   6.376
 8934SOL     OW36054   5.187   6.127   6.371
 8934SOL    HW236055   5.132   6.048   6.370
 8934SOL    HW336056   5.169   6.168   6.455
 8934SOL    MW436057   5.177   6.122   6.380
 8935SOL     OW36058   4.806   6.331   6.328
 8935SOL    HW236059   4.743   6.263   6.352
 8935SOL    HW336060   4.826   6.312   6.236
 8935SOL    MW436061   4.800   6.318   6.320
 8936SOL     OW36062   4.062   7.226   6.030
 8936SOL    HW236063   4.023   7.273   5.956
 8936SOL    HW336064   3.996   7.161   6.055
 8936SOL    MW436065   4.049   7.224   6.024
 8937SOL     OW36066   4.554   6.635   6.054
 8937SOL    HW236067   4.556   6.609   5.961
 8937SOL    HW336068   4.612   6.572   6.097
 8937SOL    MW436069   4.562   6.624   6.048
 8938SOL     OW36070   5.111   7.403   6.256
 8938SOL    HW236071   5.054   7.356   6.195
 8938SOL    HW336072   5.197   7.364   6.243
 8938SOL    MW436073   5.114   7.394   6.246
 8939SOL     OW36074   5.064   5.879   6.387
 8939SOL    HW236075   5.092   5.811   6.448
 8939SOL    HW336076   4.978   5.850   6.357
 8939SOL    MW436077   5.057   5.866   6.391
 8940SOL     OW36078   3.869   6.813   6.321
 8940SOL    HW236079   3.933   6.845   6.384
 8940SOL    HW336080   3.918   6.749   6.269
 8940SOL    MW436081   3.884   6.809   6.322
 8941SOL     OW36082   5.044   5.983   5.722
 8941SOL    HW236083   5.017   6.049   5.658
 8941SOL    HW336084   5.114   6.026   5.772
 8941SOL    MW436085   5.049   5.996   5.719
 8942SOL     OW36086   4.712   5.688   5.659
 8942SOL    HW236087   4.768   5.680   5.581
 8942SOL    HW336088   4.689   5.598   5.681
 8942SOL    MW436089   4.717   5.675   5.652
 8943SOL     OW36090   5.217   6.539   5.864
 8943SOL    HW236091   5.184   6.628   5.854
 8943SOL    HW336092   5.182   6.510   5.949
 8943SOL    MW436093   5.207   6.548   5.875
 8944SOL     OW36094   4.147   7.126   6.693
 8944SOL    HW236095   4.192   7.188   6.750
 8944SOL    HW336096   4.054   7.145   6.706
 8944SOL    MW436097   4.140   7.136   6.700
 8945SOL     OW36098   4.569   7.194   6.801
 8945SOL    HW236099   4.593   7.183   6.710
 8945SOL    HW336100   4.492   7.251   6.799
 8945SOL    MW436101   4.561   7.199   6.790
 8946SOL     OW36102   4.211   6.577   5.656
 8946SOL    HW236103   4.134   6.590   5.712
 8946SOL    HW336104   4.175   6.541   5.575
 8946SOL    MW436105   4.197   6.573   5.653
 8947SOL     OW36106   4.864   6.550   5.899
 8947SOL    HW236107   4.774   6.571   5.874
 8947SOL    HW336108   4.891   6.623   5.955
 8947SOL    MW436109   4.856   6.562   5.902
 8948SOL     OW36110   4.364   6.899   6.591
 8948SOL    HW236111   4.357   6.878   6.685
 8948SOL    HW336112   4.282   6.867   6.554
 8948SOL    MW436113   4.352   6.893   6.598
 8949SOL     OW36114   4.493   5.666   6.306
 8949SOL    HW236115   4.422   5.727   6.288
 8949SOL    HW336116   4.544   5.663   6.225
 8949SOL    MW436117   4.489   5.672   6.293
 8950SOL     OW36118   4.251   6.906   6.055
 8950SOL    HW236119   4.244   6.938   6.145
 8950SOL    HW336120   4.161   6.890   6.027
 8950SOL    MW436121   4.239   6.908   6.062
 8951SOL     OW36122   4.960   7.264   6.454
 8951SOL    HW236123   5.007   7.337   6.413
 8951SOL    HW336124   4.881   7.303   6.490
 8951SOL    MW436125   4.955   7.279   6.453
 8952SOL     OW36126   4.254   6.190   5.769
 8952SOL    HW236127   4.220   6.246   5.839
 8952SOL    HW336128   4.325   6.140   5.809
 8952SOL    MW436129   4.260   6.191   5.783
 8953SOL     OW36130   5.350   6.941   6.591
 8953SOL    HW236131   5.385   6.923   6.504
 8953SOL    HW336132   5.255   6.942   6.578
 8953SOL    MW436133   5.342   6.938   6.578
 8954SOL     OW36134   5.310   6.076   5.833
 8954SOL    HW236135   5.302   6.147   5.770
 8954SOL    HW336136   5.328   6.120   5.916
 8954SOL    MW436137   5.311   6.090   5.835
 8955SOL     OW36138   4.170   5.731   6.262
 8955SOL    HW236139   4.220   5.774   6.193
 8955SOL    HW336140   4.085   5.775   6.262
 8955SOL    MW436141   4.167   5.744   6.253
 8956SOL     OW36142   4.979   6.338   5.808
 8956SOL    HW236143   5.026   6.356   5.727
 8956SOL    HW336144   4.945   6.422   5.836
 8956SOL    MW436145   4.981   6.352   5.801
 8957SOL     OW36146   4.092   6.516   6.302
 8957SOL    HW236147   4.150   6.572   6.250
 8957SOL    HW336148   4.136   6.431   6.304
 8957SOL    MW436149   4.105   6.513   6.295
 8958SOL     OW36150   5.232   5.868   6.139
 8958SOL    HW236151   5.154   5.818   6.164
 8958SOL    HW336152   5.203   5.959   6.139
 8958SOL    MW436153   5.218   5.872   6.142
 8959SOL     OW36154   4.818   5.830   6.298
 8959SOL    HW236155   4.838   5.905   6.242
 8959SOL    HW336156   4.798   5.869   6.383
 8959SOL    MW436157   4.819   5.846   6.302
 8960SOL     OW36158   4.714   7.080   5.630
 8960SOL    HW236159   4.741   7.158   5.582
 8960SOL    HW336160   4.621   7.095   5.649
 8960SOL    MW436161   4.705   7.093   5.626
 8961SOL     OW36162   3.799   7.116   6.474
 8961SOL    HW236163   3.831   7.120   6.565
 8961SOL    HW336164   3.704   7.124   6.482
 8961SOL    MW436165   3.791   7.119   6.487
 8962SOL     OW36166   3.754   6.242   6.021
 8962SOL    HW236167   3.694   6.214   6.091
 8962SOL    HW336168   3.828   6.182   6.027
 8962SOL    MW436169   3.756   6.231   6.030
 8963SOL     OW36170   4.922   6.973   6.181
 8963SOL    HW236171   4.945   6.924   6.259
 8963SOL    HW336172   5.003   7.015   6.153
 8963SOL    MW436173   4.935   6.973   6.188
 8964SOL     OW36174   4.134   5.948   6.646
 8964SOL    HW236175   4.164   5.862   6.617
 8964SOL    HW336176   4.039   5.941   6.649
 8964SOL    MW436177   4.126   5.937   6.644
 8965SOL     OW36178   4.277   5.726   6.537
 8965SOL    HW236179   4.287   5.635   6.563
 8965SOL    HW336180   4.233   5.722   6.452
 8965SOL    MW436181   4.273   5.714   6.529
 8966SOL     OW36182   5.428   6.048   6.708
 8966SOL    HW236183   5.361   6.081   6.768
 8966SOL    HW336184   5.471   6.126   6.674
 8966SOL    MW436185   5.426   6.063   6.712
 8967SOL     OW36186   5.606   6.768   6.678
 8967SOL    HW236187   5.599   6.708   6.603
 8967SOL    HW336188   5.532   6.828   6.667
 8967SOL    MW436189   5.596   6.768   6.667
 8968SOL     OW36190   4.988   6.630   6.596
 8968SOL    HW236191   5.002   6.602   6.687
 8968SOL    HW336192   5.074   6.661   6.568
 8968SOL    MW436193   5.001   6.631   6.605
 8969SOL     OW36194   5.062   5.640   5.817
 8969SOL    HW236195   5.136   5.684   5.860
 8969SOL    HW336196   4.986   5.694   5.839
 8969SOL    MW436197   5.062   5.652   5.825
 8970SOL     OW36198   5.122   6.415   6.095
 8970SOL    HW236199   5.037   6.385   6.065
 8970SOL    HW336200   5.114   6.422   6.190
 8970SOL    MW436201   5.110   6.413   6.104
 8971SOL     OW36202   4.482   5.858   6.649
 8971SOL    HW236203   4.455   5.860   6.740
 8971SOL    HW336204   4.412   5.810   6.604
 8971SOL    MW436205   4.470   5.854   6.656
 8972SOL     OW36206   4.495   6.081   5.821
 8972SOL    HW236207   4.568   6.130   5.784
 8972SOL    HW336208   4.511   5.990   5.795
 8972SOL    MW436209   4.507   6.076   5.814
 8973SOL     OW36210   4.963   5.677   6.735
 8973SOL    HW236211   5.018   5.686   6.657
 8973SOL    HW336212   5.018   5.711   6.806
 8973SOL    MW436213   4.977   5.682   6.734
 8974SOL     OW36214   3.970   6.590   5.919
 8974SOL    HW236215   3.907   6.606   5.848
 8974SOL    HW336216   3.917   6.553   5.990
 8974SOL    MW436217   3.955   6.587   5.919
 8975SOL     OW36218   4.326   6.944   5.778
 8975SOL    HW236219   4.341   6.920   5.870
 8975SOL    HW336220   4.234   6.922   5.762
 8975SOL    MW436221   4.316   6.937   5.788
 8976SOL     OW36222   4.865   7.175   5.930
 8976SOL    HW236223   4.873   7.093   5.881
 8976SOL    HW336224   4.784   7.214   5.897
 8976SOL    MW436225   4.855   7.170   5.920
 8977SOL     OW36226   4.124   7.333   6.499
 8977SOL    HW236227   4.128   7.244   6.534
 8977SOL    HW336228   4.150   7.324   6.408
 8977SOL    MW436229   4.127   7.321   6.491
 8978SOL     OW36230   4.741   6.811   6.742
 8978SOL    HW236231   4.673   6.745   6.758
 8978SOL    HW336232   4.759   6.805   6.649
 8978SOL    MW436233   4.734   6.802   6.733
 8979SOL     OW36234   4.734   5.950   6.563
 8979SOL    HW236235   4.664   5.902   6.608
 8979SOL    HW336236   4.766   6.013   6.627
 8979SOL    MW436237   4.729   5.952   6.577
 8980SOL     OW36238   4.201   6.056   6.376
 8980SOL    HW236239   4.272   6.004   6.339
 8980SOL    HW336240   4.187   6.021   6.463
 8980SOL    MW436241   4.209   6.045   6.383
 8981SOL     OW36242   4.517   7.149   6.452
 8981SOL    HW236243   4.445   7.086   6.465
 8981SOL    HW336244   4.478   7.234   6.470
 8981SOL    MW436245   4.501   7.152   6.455
 8982SOL     OW36246   4.837   5.997   6.100
 8982SOL    HW236247   4.859   5.934   6.032
 8982SOL    HW336248   4.742   5.989   6.111
 8982SOL    MW436249   4.827   5.988   6.092
 8983SOL     OW36250   3.922   5.687   6.032
 8983SOL    HW236251   3.993   5.708   5.971
 8983SOL    HW336252   3.876   5.615   5.990
 8983SOL    MW436253   3.926   5.681   6.018
 8984SOL     OW36254   5.491   7.061   6.132
 8984SOL    HW236255   5.461   6.994   6.193
 8984SOL    HW336256   5.585   7.067   6.146
 8984SOL    MW436257   5.499   7.053   6.142
 8985SOL     OW36258   5.047   6.738   6.062
 8985SOL    HW236259   5.019   6.824   6.095
 8985SOL    HW336260   5.075   6.754   5.972
 8985SOL    MW436261   5.047   6.752   6.054
 8986SOL     OW36262   4.709   5.658   6.115
 8986SOL    HW236263   4.746   5.717   6.180
 8986SOL    HW336264   4.686   5.714   6.041
 8986SOL    MW436265   4.710   5.673   6.114
 8987SOL     OW36266   5.562   6.540   6.537
 8987SOL    HW236267   5.553   6.572   6.448
 8987SOL    HW336268   5.515   6.456   6.537
 8987SOL    MW436269   5.555   6.533   6.527
 8988SOL     OW36270   5.474   6.471   6.238
 8988SOL    HW236271   5.568   6.460   6.226
 8988SOL    HW336272   5.450   6.543   6.179
 8988SOL    MW436273   5.484   6.479   6.229
 8989SOL     OW36274   4.130   6.349   6.011
 8989SOL    HW236275   4.130   6.444   5.996
 8989SOL    HW336276   4.207   6.333   6.065
 8989SOL    MW436277   4.140   6.360   6.016
 8990SOL     OW36278   3.889   6.080   6.300
 8990SOL    HW236279   3.951   6.087   6.373
 8990SOL    HW336280   3.889   5.987   6.277
 8990SOL    MW436281   3.897   6.069   6.307
 8991SOL     OW36282   4.571   6.341   6.784
 8991SOL    HW236283   4.529   6.259   6.760
 8991SOL    HW336284   4.572   6.340   6.880
 8991SOL    MW436285   4.564   6.330   6.793
 8992SOL     OW36286   3.758   6.652   5.758
 8992SOL    HW236287   3.727   6.717   5.821
 8992SOL    HW336288   3.707   6.574   5.777
 8992SOL    MW436289   3.748   6.649   5.768
 8993SOL     OW36290   5.170   5.664   6.506
 8993SOL    HW236291   5.258   5.673   6.543
 8993SOL    HW336292   5.180   5.605   6.432
 8993SOL    MW436293   5.184   5.658   6.500
 8994SOL     OW36294   5.202   6.403   6.350
 8994SOL    HW236295   5.282   6.418   6.299
 8994SOL    HW336296   5.195   6.308   6.356
 8994SOL    MW436297   5.211   6.392   6.345
 8995SOL     OW36298   4.342   7.452   5.700
 8995SOL    HW236299   4.247   7.452   5.692
 8995SOL    HW336300   4.358   7.398   5.778
 8995SOL    MW436301   4.332   7.446   5.709
 8996SOL     OW36302   5.187   6.272   5.615
 8996SOL    HW236303   5.115   6.248   5.557
 8996SOL    HW336304   5.253   6.309   5.557
 8996SOL    MW436305   5.186   6.274   5.600
 8997SOL     OW36306   4.321   7.004   6.296
 8997SOL    HW236307   4.386   6.937   6.317
 8997SOL    HW336308   4.373   7.081   6.273
 8997SOL    MW436309   4.336   7.006   6.295
 8998SOL     OW36310   4.582   6.169   6.426
 8998SOL    HW236311   4.522   6.187   6.498
 8998SOL    HW336312   4.616   6.081   6.445
 8998SOL    MW436313   4.578   6.159   6.439
 8999SOL     OW36314   4.807   6.752   6.445
 8999SOL    HW236315   4.899   6.733   6.463
 8999SOL    HW336316   4.780   6.682   6.385
 8999SOL    MW436317   4.815   6.740   6.439
 9000SOL     OW36318   4.600   6.572   5.800
 9000SOL    HW236319   4.586   6.484   5.765
 9000SOL    HW336320   4.551   6.629   5.741
 9000SOL    MW436321   4.592   6.567   5.788
 9001SOL     OW36322   5.081   6.990   6.541
 9001SOL    HW236323   5.054   7.074   6.506
 9001SOL    HW336324   5.041   6.985   6.628
 9001SOL    MW436325   5.074   6.999   6.547
 9002SOL     OW36326   4.013   6.296   6.579
 9002SOL    HW236327   3.963   6.295   6.660
 9002SOL    HW336328   4.033   6.388   6.563
 9002SOL    MW436329   4.009   6.308   6.587
 9003SOL     OW36330   5.319   5.778   5.902
 9003SOL    HW236331   5.312   5.782   5.997
 9003SOL    HW336332   5.331   5.869   5.875
 9003SOL    MW436333   5.320   5.791   5.910
 9004SOL     OW36334   4.608   6.341   6.016
 9004SOL    HW236335   4.588   6.327   5.923
 9004SOL    HW336336   4.701   6.320   6.023
 9004SOL    MW436337   4.618   6.336   6.005
 9005SOL     OW36338   4.591   7.299   6.054
 9005SOL    HW236339   4.649   7.370   6.081
 9005SOL    HW336340   4.614   7.227   6.112
 9005SOL    MW436341   4.602   7.299   6.065
 9006SOL     OW36342   3.834   5.604   6.743
 9006SOL    HW236343   3.825   5.605   6.648
 9006SOL    HW336344   3.928   5.616   6.758
 9006SOL    MW436345   3.846   5.607   6.734
 9007SOL     OW36346   5.471   6.797   6.363
 9007SOL    HW236347   5.450   6.743   6.286
 9007SOL    HW336348   5.567   6.795   6.367
 9007SOL    MW436349   5.480   6.790   6.352
 9008SOL     OW36350   4.047   5.731   5.789
 9008SOL    HW236351   3.976   5.786   5.757
 9008SOL    HW336352   4.089   5.697   5.710
 9008SOL    MW436353   4.043   5.733   5.775
 9009SOL     OW36354   5.171   6.228   6.625
 9009SOL    HW236355   5.094   6.274   6.591
 9009SOL    HW336356   5.228   6.297   6.659
 9009SOL    MW436357   5.168   6.243   6.625
 9010SOL     OW36358   3.803   5.830   5.638
 9010SOL    HW236359   3.770   5.909   5.682
 9010SOL    HW336360   3.858   5.863   5.567
 9010SOL    MW436361   3.806   5.844   5.635
 9011SOL     OW36362   3.837   7.087   5.827
 9011SOL    HW236363   3.854   7.171   5.869
 9011SOL    HW336364   3.872   7.096   5.739
 9011SOL    MW436365   3.842   7.100   5.821
 9012SOL     OW36366   5.109   7.176   6.044
 9012SOL    HW236367   5.172   7.166   5.973
 9012SOL    HW336368   5.026   7.196   5.999
 9012SOL    MW436369   5.106   7.177   6.029
 9013SOL     OW36370   7.207   0.771   1.252
 9013SOL    HW236371   7.162   0.838   1.303
 9013SOL    HW336372   7.295   0.807   1.238
 9013SOL    MW436373   7.213   0.784   1.256
 9014SOL     OW36374   6.135   1.022   0.486
 9014SOL    HW236375   6.225   0.997   0.470
 9014SOL    HW336376   6.131   1.115   0.463
 9014SOL    MW436377   6.147   1.031   0.481
 9015SOL     OW36378   7.251   1.725   0.628
 9015SOL    HW236379   7.263   1.671   0.706
 9015SOL    HW336380   7.288   1.673   0.557
 9015SOL    MW436381   7.257   1.710   0.629
 9016SOL     OW36382   6.630   1.610   1.629
 9016SOL    HW236383   6.671   1.646   1.550
 9016SOL    HW336384   6.665   1.521   1.636
 9016SOL    MW436385   6.641   1.603   1.620
 9017SOL     OW36386   7.187   1.165   1.233
 9017SOL    HW236387   7.108   1.130   1.191
 9017SOL    HW336388   7.214   1.237   1.177
 9017SOL    MW436389   7.180   1.170   1.220
 9018SOL     OW36390   6.419   0.478   0.499
 9018SOL    HW236391   6.394   0.566   0.527
 9018SOL    HW336392   6.416   0.481   0.403
 9018SOL    MW436393   6.415   0.490   0.491
 9019SOL     OW36394   5.861   0.506   0.427
 9019SOL    HW236395   5.893   0.594   0.409
 9019SOL    HW336396   5.849   0.504   0.522
 9019SOL    MW436397   5.864   0.518   0.439
 9020SOL     OW36398   5.939   0.919   1.328
 9020SOL    HW236399   6.002   0.866   1.279
 9020SOL    HW336400   5.920   0.993   1.271
 9020SOL    MW436401   5.945   0.921   1.315
 9021SOL     OW36402   6.260   0.261   0.514
 9021SOL    HW236403   6.318   0.337   0.516
 9021SOL    HW336404   6.195   0.282   0.447
 9021SOL    MW436405   6.259   0.273   0.505
 9022SOL     OW36406   6.347   1.188   0.689
 9022SOL    HW236407   6.427   1.191   0.741
 9022SOL    HW336408   6.375   1.155   0.603
 9022SOL    MW436409   6.361   1.184   0.684
 9023SOL     OW36410   6.372   1.529   1.592
 9023SOL    HW236411   6.456   1.555   1.631
 9023SOL    HW336412   6.396   1.473   1.518
 9023SOL    MW436413   6.386   1.525   1.587
 9024SOL     OW36414   6.124   0.692   0.680
 9024SOL    HW236415   6.109   0.612   0.731
 9024SOL    HW336416   6.206   0.727   0.714
 9024SOL    MW436417   6.132   0.684   0.692
 9025SOL     OW36418   6.461   1.378   1.365
 9025SOL    HW236419   6.425   1.444   1.305
 9025SOL    HW336420   6.389   1.316   1.378
 9025SOL    MW436421   6.447   1.378   1.359
 9026SOL     OW36422   6.266   0.518   1.057
 9026SOL    HW236423   6.172   0.514   1.075
 9026SOL    HW336424   6.296   0.427   1.066
 9026SOL    MW436425   6.257   0.506   1.060
 9027SOL     OW36426   6.012   0.932   0.961
 9027SOL    HW236427   5.967   0.939   0.877
 9027SOL    HW336428   5.992   1.015   1.005
 9027SOL    MW436429   6.004   0.944   0.955
 9028SOL     OW36430   5.709   1.778   0.836
 9028SOL    HW236431   5.798   1.770   0.871
 9028SOL    HW336432   5.673   1.690   0.841
 9028SOL    MW436433   5.716   1.765   0.841
 9029SOL     OW36434   5.973   1.305   0.871
 9029SOL    HW236435   5.949   1.358   0.947
 9029SOL    HW336436   6.029   1.363   0.819
 9029SOL    MW436437   5.977   1.320   0.874
 9030SOL     OW36438   6.535   0.949   0.681
 9030SOL    HW236439   6.449   0.936   0.721
 9030SOL    HW336440   6.588   0.876   0.713
 9030SOL    MW436441   6.531   0.938   0.690
 9031SOL     OW36442   5.943   1.601   1.466
 9031SOL    HW236443   5.851   1.577   1.451
 9031SOL    HW336444   5.987   1.518   1.483
 9031SOL    MW436445   5.937   1.586   1.465
 9032SOL     OW36446   6.526   1.311   0.398
 9032SOL    HW236447   6.503   1.373   0.466
 9032SOL    HW336448   6.483   1.229   0.424
 9032SOL    MW436449   6.518   1.307   0.409
 9033SOL     OW36450   7.399   0.312   0.854
 9033SOL    HW236451   7.336   0.292   0.923
 9033SOL    HW336452   7.389   0.241   0.791
 9033SOL    MW436453   7.389   0.299   0.855
 9034SOL     OW36454   6.023   0.284   0.366
 9034SOL    HW236455   5.997   0.246   0.282
 9034SOL    HW336456   5.960   0.354   0.382
 9034SOL    MW436457   6.012   0.287   0.357
 9035SOL     OW36458   5.858   1.245   0.403
 9035SOL    HW236459   5.806   1.313   0.359
 9035SOL    HW336460   5.855   1.171   0.343
 9035SOL    MW436461   5.850   1.244   0.390
 9036SOL     OW36462   7.200   1.084   0.506
 9036SOL    HW236463   7.110   1.084   0.541
 9036SOL    HW336464   7.193   1.130   0.423
 9036SOL    MW436465   7.187   1.090   0.500
 9037SOL     OW36466   7.000   0.719   1.578
 9037SOL    HW236467   7.069   0.657   1.555
 9037SOL    HW336468   6.925   0.693   1.525
 9037SOL    MW436469   7.000   0.706   1.569
 9038SOL     OW36470   5.741   1.599   1.130
 9038SOL    HW236471   5.724   1.545   1.207
 9038SOL    HW336472   5.729   1.689   1.160
 9038SOL    MW436473   5.738   1.603   1.144
 9039SOL     OW36474   6.736   1.106   1.570
 9039SOL    HW236475   6.721   1.199   1.555
 9039SOL    HW336476   6.831   1.096   1.570
 9039SOL    MW436477   6.745   1.116   1.567
 9040SOL     OW36478   6.532   0.530   1.771
 9040SOL    HW236479   6.622   0.531   1.738
 9040SOL    HW336480   6.491   0.455   1.729
 9040SOL    MW436481   6.538   0.520   1.762
 9041SOL     OW36482   7.107   1.062   0.898
 9041SOL    HW236483   7.110   0.996   0.829
 9041SOL    HW336484   7.192   1.105   0.894
 9041SOL    MW436485   7.119   1.058   0.889
 9042SOL     OW36486   6.727   0.665   0.467
 9042SOL    HW236487   6.753   0.689   0.378
 9042SOL    HW336488   6.709   0.572   0.463
 9042SOL    MW436489   6.729   0.657   0.454
 9043SOL     OW36490   6.312   0.334   1.721
 9043SOL    HW236491   6.322   0.260   1.661
 9043SOL    HW336492   6.348   0.303   1.804
 9043SOL    MW436493   6.318   0.320   1.723
 9044SOL     OW36494   6.048   1.701   0.636
 9044SOL    HW236495   6.080   1.789   0.614
 9044SOL    HW336496   6.001   1.673   0.558
 9044SOL    MW436497   6.047   1.709   0.623
 9045SOL     OW36498   7.432   0.063   0.685
 9045SOL    HW236499   7.486   0.014   0.747
 9045SOL    HW336500   7.375  -0.003   0.646
 9045SOL    MW436501   7.432   0.047   0.687
 9046SOL     OW36502   6.551   0.016   1.098
 9046SOL    HW236503   6.510   0.094   1.060
 9046SOL    HW336504   6.645   0.034   1.093
 9046SOL    MW436505   6.557   0.028   1.093
 9047SOL     OW36506   6.497   0.987   1.593
 9047SOL    HW236507   6.474   0.967   1.683
 9047SOL    HW336508   6.582   1.031   1.598
 9047SOL    MW436509   6.504   0.990   1.605
 9048SOL     OW36510   6.577   0.124   1.353
 9048SOL    HW236511   6.583   0.086   1.266
 9048SOL    HW336512   6.566   0.218   1.338
 9048SOL    MW436513   6.578   0.132   1.341
 9049SOL     OW36514   6.666   0.613   1.187
 9049SOL    HW236515   6.741   0.642   1.134
 9049SOL    HW336516   6.598   0.678   1.171
 9049SOL    MW436517   6.667   0.625   1.177
 9050SOL     OW36518   7.216   0.581   1.464
 9050SOL    HW236519   7.197   0.490   1.443
 9050SOL    HW336520   7.194   0.630   1.385
 9050SOL    MW436521   7.211   0.574   1.451
 9051SOL     OW36522   7.358   1.675   1.368
 9051SOL    HW236523   7.286   1.637   1.419
 9051SOL    HW336524   7.375   1.760   1.409
 9051SOL    MW436525   7.352   1.680   1.380
 9052SOL     OW36526   6.663   0.319   1.570
 9052SOL    HW236527   6.629   0.358   1.489
 9052SOL    HW336528   6.641   0.227   1.563
 9052SOL    MW436529   6.656   0.312   1.560
 9053SOL     OW36530   7.072   1.133   1.646
 9053SOL    HW236531   7.154   1.174   1.676
 9053SOL    HW336532   7.035   1.095   1.726
 9053SOL    MW436533   7.078   1.134   1.661
 9054SOL     OW36534   7.367   0.506   0.630
 9054SOL    HW236535   7.456   0.475   0.647
 9054SOL    HW336536   7.310   0.446   0.678
 9054SOL    MW436537   7.370   0.494   0.639
 9055SOL     OW36538   5.793   0.220   0.659
 9055SOL    HW236539   5.784   0.160   0.585
 9055SOL    HW336540   5.726   0.191   0.722
 9055SOL    MW436541   5.783   0.207   0.657
 9056SOL     OW36542   6.736   1.313   0.220
 9056SOL    HW236543   6.686   1.315   0.302
 9056SOL    HW336544   6.670   1.331   0.152
 9056SOL    MW436545   6.722   1.315   0.222
 9057SOL     OW36546   5.740   0.393   1.022
 9057SOL    HW236547   5.712   0.484   1.031
 9057SOL    HW336548   5.677   0.354   0.961
 9057SOL    MW436549   5.727   0.399   1.016
 9058SOL     OW36550   7.327   1.251   1.725
 9058SOL    HW236551   7.377   1.177   1.757
 9058SOL    HW336552   7.273   1.278   1.800
 9058SOL    MW436553   7.327   1.245   1.738
 9059SOL     OW36554   7.461   0.886   1.227
 9059SOL    HW236555   7.477   0.924   1.140
 9059SOL    HW336556   7.495   0.952   1.288
 9059SOL    MW436557   7.468   0.899   1.223
 9060SOL     OW36558   7.253   1.595   0.896
 9060SOL    HW236559   7.282   1.662   0.957
 9060SOL    HW336560   7.234   1.519   0.951
 9060SOL    MW436561   7.255   1.595   0.911
 9061SOL     OW36562   5.724   0.668   1.192
 9061SOL    HW236563   5.786   0.698   1.258
 9061SOL    HW336564   5.658   0.737   1.186
 9061SOL    MW436565   5.723   0.681   1.199
 9062SOL     OW36566   5.819   1.777   1.644
 9062SOL    HW236567   5.793   1.845   1.582
 9062SOL    HW336568   5.867   1.714   1.592
 9062SOL    MW436569   5.821   1.777   1.630
 9063SOL     OW36570   5.871   1.096   1.151
 9063SOL    HW236571   5.924   1.171   1.176
 9063SOL    HW336572   5.790   1.134   1.117
 9063SOL    MW436573   5.867   1.111   1.151
 9064SOL     OW36574   6.411   1.000   1.139
 9064SOL    HW236575   6.439   0.909   1.151
 9064SOL    HW336576   6.340   0.994   1.075
 9064SOL    MW436577   6.404   0.988   1.134
 9065SOL     OW36578   5.726   0.865   0.557
 9065SOL    HW236579   5.817   0.880   0.584
 9065SOL    HW336580   5.729   0.786   0.503
 9065SOL    MW436581   5.738   0.857   0.555
 9066SOL     OW36582   5.962   0.573   1.811
 9066SOL    HW236583   5.909   0.653   1.818
 9066SOL    HW336584   6.032   0.585   1.876
 9066SOL    MW436585   5.964   0.586   1.819
 9067SOL     OW36586   6.348   0.123   1.518
 9067SOL    HW236587   6.325   0.031   1.520
 9067SOL    HW336588   6.434   0.125   1.475
 9067SOL    MW436589   6.355   0.113   1.514
 9068SOL     OW36590   6.032   0.647   1.557
 9068SOL    HW236591   6.112   0.697   1.543
 9068SOL    HW336592   6.023   0.641   1.652
 9068SOL    MW436593   6.041   0.653   1.567
 9069SOL     OW36594   6.353   1.797   0.931
 9069SOL    HW236595   6.442   1.812   0.961
 9069SOL    HW336596   6.348   1.844   0.847
 9069SOL    MW436597   6.363   1.805   0.924
 9070SOL     OW36598   7.009   0.172   1.828
 9070SOL    HW236599   7.065   0.099   1.854
 9070SOL    HW336600   6.979   0.210   1.910
 9070SOL    MW436601   7.013   0.167   1.841
 9071SOL     OW36602   5.734   1.477   0.596
 9071SOL    HW236603   5.706   1.516   0.678
 9071SOL    HW336604   5.754   1.386   0.618
 9071SOL    MW436605   5.732   1.469   0.609
 9072SOL     OW36606   6.567   1.520   0.631
 9072SOL    HW236607   6.650   1.474   0.615
 9072SOL    HW336608   6.557   1.519   0.727
 9072SOL    MW436609   6.577   1.513   0.641
 9073SOL     OW36610   7.399   0.665   0.945
 9073SOL    HW236611   7.488   0.695   0.927
 9073SOL    HW336612   7.379   0.605   0.874
 9073SOL    MW436613   7.408   0.662   0.934
 9074SOL     OW36614   7.250   0.844   1.825
 9074SOL    HW236615   7.305   0.768   1.806
 9074SOL    HW336616   7.252   0.852   1.920
 9074SOL    MW436617   7.258   0.835   1.833
 9075SOL     OW36618   6.545   0.406   1.344
 9075SOL    HW236619   6.464   0.447   1.372
 9075SOL    HW336620   6.592   0.474   1.296
 9075SOL    MW436621   6.540   0.421   1.342
 9076SOL     OW36622   6.805   0.744   0.967
 9076SOL    HW236623   6.818   0.838   0.977
 9076SOL    HW336624   6.766   0.734   0.881
 9076SOL    MW436625   6.801   0.755   0.957
 9077SOL     OW36626   6.257   0.939   0.771
 9077SOL    HW236627   6.168   0.930   0.804
 9077SOL    HW336628   6.261   1.029   0.739
 9077SOL    MW436629   6.246   0.950   0.771
 9078SOL     OW36630   7.056   0.522   0.766
 9078SOL    HW236631   7.001   0.443   0.765
 9078SOL    HW336632   7.038   0.563   0.850
 9078SOL    MW436633   7.046   0.517   0.775
 9079SOL     OW36634   6.027   0.209   1.583
 9079SOL    HW236635   5.948   0.227   1.635
 9079SOL    HW336636   6.022   0.271   1.510
 9079SOL    MW436637   6.017   0.219   1.580
 9080SOL     OW36638   6.675   0.726   0.723
 9080SOL    HW236639   6.612   0.658   0.747
 9080SOL    HW336640   6.695   0.707   0.631
 9080SOL    MW436641   6.669   0.713   0.715
 9081SOL     OW36642   5.931   1.621   0.425
 9081SOL    HW236643   5.892   1.668   0.351
 9081SOL    HW336644   5.865   1.556   0.450
 9081SOL    MW436645   5.918   1.619   0.419
 9082SOL     OW36646   6.976   1.590   1.221
 9082SOL    HW236647   6.901   1.636   1.259
 9082SOL    HW336648   6.958   1.497   1.238
 9082SOL    MW436649   6.965   1.584   1.229
 9083SOL     OW36650   6.980   1.798   0.651
 9083SOL    HW236651   6.923   1.751   0.590
 9083SOL    HW336652   7.066   1.759   0.638
 9083SOL    MW436653   6.983   1.789   0.641
 9084SOL     OW36654   6.933   0.274   0.782
 9084SOL    HW236655   6.961   0.206   0.843
 9084SOL    HW336656   6.847   0.245   0.752
 9084SOL    MW436657   6.926   0.261   0.786
 9085SOL     OW36658   5.738   1.208   0.716
 9085SOL    HW236659   5.802   1.240   0.779
 9085SOL    HW336660   5.787   1.144   0.664
 9085SOL    MW436661   5.753   1.204   0.717
 9086SOL     OW36662   6.238   1.284   1.698
 9086SOL    HW236663   6.286   1.367   1.685
 9086SOL    HW336664   6.295   1.232   1.754
 9086SOL    MW436665   6.252   1.288   1.704
 9087SOL     OW36666   5.814   1.526   1.838
 9087SOL    HW236667   5.870   1.450   1.853
 9087SOL    HW336668   5.763   1.504   1.760
 9087SOL    MW436669   5.814   1.513   1.829
 9088SOL     OW36670   6.699   1.363   1.447
 9088SOL    HW236671   6.610   1.369   1.415
 9088SOL    HW336672   6.743   1.442   1.415
 9088SOL    MW436673   6.694   1.373   1.439
 9089SOL     OW36674   5.992   0.031   1.789
 9089SOL    HW236675   5.920  -0.004   1.737
 9089SOL    HW336676   6.050   0.072   1.724
 9089SOL    MW436677   5.990   0.032   1.774
 9090SOL     OW36678   6.016   1.521   1.088
 9090SOL    HW236679   6.061   1.583   1.145
 9090SOL    HW336680   5.923   1.540   1.101
 9090SOL    MW436681   6.009   1.531   1.095
 9091SOL     OW36682   7.456   1.050   1.442
 9091SOL    HW236683   7.371   1.063   1.401
 9091SOL    HW336684   7.436   1.014   1.529
 9091SOL    MW436685   7.443   1.046   1.447
 9092SOL     OW36686   6.438   1.589   1.196
 9092SOL    HW236687   6.462   1.578   1.105
 9092SOL    HW336688   6.361   1.646   1.194
 9092SOL    MW436689   6.430   1.594   1.185
 9093SOL     OW36690   6.233   1.294   0.986
 9093SOL    HW236691   6.226   1.273   1.080
 9093SOL    HW336692   6.151   1.262   0.949
 9093SOL    MW436693   6.221   1.288   0.993
 9094SOL     OW36694   7.097   0.304   1.388
 9094SOL    HW236695   7.044   0.306   1.468
 9094SOL    HW336696   7.082   0.217   1.351
 9094SOL    MW436697   7.089   0.294   1.393
 9095SOL     OW36698   7.433   0.228   1.261
 9095SOL    HW236699   7.414   0.295   1.196
 9095SOL    HW336700   7.490   0.166   1.216
 9095SOL    MW436701   7.437   0.229   1.247
 9096SOL     OW36702   5.679   1.386   1.649
 9096SOL    HW236703   5.723   1.319   1.595
 9096SOL    HW336704   5.594   1.348   1.669
 9096SOL    MW436705   5.674   1.372   1.645
 9097SOL     OW36706   6.362   0.061   0.701
 9097SOL    HW236707   6.291   0.122   0.683
 9097SOL    HW336708   6.413   0.058   0.620
 9097SOL    MW436709   6.358   0.067   0.688
 9098SOL     OW36710   6.120   1.301   0.450
 9098SOL    HW236711   6.113   1.333   0.540
 9098SOL    HW336712   6.030   1.285   0.422
 9098SOL    MW436713   6.108   1.303   0.457
 9099SOL     OW36714   6.715   1.694   1.359
 9099SOL    HW236715   6.635   1.679   1.309
 9099SOL    HW336716   6.722   1.789   1.366
 9099SOL    MW436717   6.706   1.705   1.353
 9100SOL     OW36718   6.829   1.659   0.849
 9100SOL    HW236719   6.876   1.732   0.808
 9100SOL    HW336720   6.750   1.698   0.885
 9100SOL    MW436721   6.824   1.674   0.848
 9101SOL     OW36722   7.237   1.754   1.124
 9101SOL    HW236723   7.280   1.724   1.204
 9101SOL    HW336724   7.156   1.702   1.121
 9101SOL    MW436725   7.232   1.743   1.134
 9102SOL     OW36726   6.322   0.718   1.831
 9102SOL    HW236727   6.392   0.660   1.803
 9102SOL    HW336728   6.265   0.663   1.886
 9102SOL    MW436729   6.324   0.705   1.835
 9103SOL     OW36730   7.109   0.930   1.464
 9103SOL    HW236731   7.114   0.983   1.544
 9103SOL    HW336732   7.071   0.847   1.492
 9103SOL    MW436733   7.105   0.925   1.479
 9104SOL     OW36734   7.219   1.336   0.986
 9104SOL    HW236735   7.254   1.318   0.899
 9104SOL    HW336736   7.124   1.337   0.973
 9104SOL    MW436737   7.211   1.333   0.973
 9105SOL     OW36738   6.648   0.984   1.355
 9105SOL    HW236739   6.691   1.019   1.433
 9105SOL    HW336740   6.631   1.061   1.301
 9105SOL    MW436741   6.651   0.999   1.358
 9106SOL     OW36742   6.039   0.126   0.657
 9106SOL    HW236743   6.089   0.169   0.588
 9106SOL    HW336744   5.954   0.170   0.657
 9106SOL    MW436745   6.036   0.139   0.648
 9107SOL     OW36746   5.798   1.188   1.517
 9107SOL    HW236747   5.826   1.141   1.595
 9107SOL    HW336748   5.719   1.143   1.488
 9107SOL    MW436749   5.791   1.177   1.523
 9108SOL     OW36750   6.306   0.515   1.484
 9108SOL    HW236751   6.278   0.603   1.508
 9108SOL    HW336752   6.275   0.459   1.555
 9108SOL    MW436753   6.298   0.518   1.496
 9109SOL     OW36754   6.848   0.733   0.203
 9109SOL    HW236755   6.895   0.751   0.122
 9109SOL    HW336756   6.814   0.817   0.231
 9109SOL    MW436757   6.850   0.747   0.196
 9110SOL     OW36758   5.961   0.911   0.697
 9110SOL    HW236759   6.019   0.967   0.645
 9110SOL    HW336760   6.005   0.826   0.699
 9110SOL    MW436761   5.974   0.908   0.690
 9111SOL     OW36762   7.101   0.263   0.534
 9111SOL    HW236763   7.023   0.213   0.559
 9111SOL    HW336764   7.072   0.354   0.534
 9111SOL    MW436765   7.087   0.267   0.537
 9112SOL     OW36766   6.687   0.225   0.693
 9112SOL    HW236767   6.707   0.300   0.637
 9112SOL    HW336768   6.667   0.264   0.778
 9112SOL    MW436769   6.688   0.241   0.697
 9113SOL     OW36770   7.447   0.998   1.712
 9113SOL    HW236771   7.360   0.978   1.748
 9113SOL    HW336772   7.501   0.924   1.737
 9113SOL    MW436773   7.442   0.987   1.720
 9114SOL     OW36774   5.668   1.511   0.869
 9114SOL    HW236775   5.700   1.515   0.960
 9114SOL    HW336776   5.573   1.519   0.877
 9114SOL    MW436777   5.660   1.514   0.882
 9115SOL     OW36778   7.191   1.849   1.850
 9115SOL    HW236779   7.236   1.773   1.815
 9115SOL    HW336780   7.229   1.862   1.937
 9115SOL    MW436781   7.201   1.842   1.856
 9116SOL     OW36782   6.791   1.368   0.576
 9116SOL    HW236783   6.814   1.319   0.654
 9116SOL    HW336784   6.872   1.410   0.548
 9116SOL    MW436785   6.804   1.368   0.583
 9117SOL     OW36786   6.049   0.376   1.305
 9117SOL    HW236787   6.082   0.457   1.345
 9117SOL    HW336788   6.022   0.402   1.217
 9117SOL    MW436789   6.048   0.390   1.299
 9118SOL     OW36790   6.003   0.343   1.041
 9118SOL    HW236791   6.033   0.257   1.012
 9118SOL    HW336792   5.908   0.336   1.044
 9118SOL    MW436793   5.995   0.332   1.039
 9119SOL     OW36794   6.832   0.552   1.732
 9119SOL    HW236795   6.884   0.487   1.685
 9119SOL    HW336796   6.790   0.603   1.662
 9119SOL    MW436797   6.833   0.549   1.715
 9120SOL     OW36798   6.931   0.347   1.593
 9120SOL    HW236799   6.838   0.331   1.580
 9120SOL    HW336800   6.957   0.285   1.661
 9120SOL    MW436801   6.921   0.337   1.600
 9121SOL     OW36802   6.146   0.121   0.932
 9121SOL    HW236803   6.156   0.030   0.958
 9121SOL    HW336804   6.102   0.117   0.847
 9121SOL    MW436805   6.142   0.109   0.924
 9122SOL     OW36806   6.240   1.736   1.478
 9122SOL    HW236807   6.157   1.721   1.523
 9122SOL    HW336808   6.299   1.669   1.513
 9122SOL    MW436809   6.238   1.726   1.488
 9123SOL     OW36810   7.297   0.443   1.103
 9123SOL    HW236811   7.230   0.476   1.163
 9123SOL    HW336812   7.340   0.521   1.069
 9123SOL    MW436813   7.295   0.458   1.107
 9124SOL     OW36814   7.475   1.163   1.073
 9124SOL    HW236815   7.468   1.103   0.998
 9124SOL    HW336816   7.401   1.223   1.062
 9124SOL    MW436817   7.465   1.163   1.062
 9125SOL     OW36818   6.857   1.025   0.991
 9125SOL    HW236819   6.871   0.997   1.082
 9125SOL    HW336820   6.943   1.056   0.963
 9125SOL    MW436821   6.870   1.026   1.000
 9126SOL     OW36822   6.940   0.520   1.270
 9126SOL    HW236823   6.961   0.521   1.177
 9126SOL    HW336824   6.985   0.442   1.303
 9126SOL    MW436825   6.947   0.510   1.262
 9127SOL     OW36826   7.433   0.651   1.812
 9127SOL    HW236827   7.470   0.596   1.881
 9127SOL    HW336828   7.458   0.608   1.730
 9127SOL    MW436829   7.440   0.639   1.811
 9128SOL     OW36830   6.980   0.949   1.863
 9128SOL    HW236831   7.046   0.897   1.817
 9128SOL    HW336832   7.000   0.936   1.956
 9128SOL    MW436833   6.991   0.940   1.870
 9129SOL     OW36834   6.991   0.810   0.490
 9129SOL    HW236835   6.906   0.780   0.460
 9129SOL    HW336836   6.983   0.817   0.585
 9129SOL    MW436837   6.979   0.808   0.499
 9130SOL     OW36838   6.067   1.273   1.221
 9130SOL    HW236839   6.079   1.300   1.312
 9130SOL    HW336840   6.048   1.354   1.174
 9130SOL    MW436841   6.066   1.288   1.226
 9131SOL     OW36842   6.351   0.253   1.044
 9131SOL    HW236843   6.324   0.255   1.135
 9131SOL    HW336844   6.281   0.205   0.999
 9131SOL    MW436845   6.339   0.249   1.051
 9132SOL     OW36846   6.205   1.745   1.206
 9132SOL    HW236847   6.257   1.822   1.183
 9132SOL    HW336848   6.214   1.737   1.301
 9132SOL    MW436849   6.214   1.752   1.217
 9133SOL     OW36850   7.107   1.330   1.438
 9133SOL    HW236851   7.092   1.259   1.501
 9133SOL    HW336852   7.153   1.288   1.366
 9133SOL    MW436853   7.113   1.314   1.438
 9134SOL     OW36854   6.181   1.061   1.555
 9134SOL    HW236855   6.218   1.066   1.467
 9134SOL    HW336856   6.220   1.134   1.602
 9134SOL    MW436857   6.191   1.071   1.550
 9135SOL     OW36858   6.361   1.104   1.367
 9135SOL    HW236859   6.420   1.050   1.420
 9135SOL    HW336860   6.376   1.076   1.277
 9135SOL    MW436861   6.371   1.093   1.363
 9136SOL     OW36862   7.172   1.593   1.539
 9136SOL    HW236863   7.214   1.578   1.624
 9136SOL    HW336864   7.163   1.506   1.501
 9136SOL    MW436865   7.176   1.581   1.546
 9137SOL     OW36866   6.832   0.072   1.130
 9137SOL    HW236867   6.887   0.081   1.052
 9137SOL    HW336868   6.887   0.106   1.201
 9137SOL    MW436869   6.846   0.077   1.129
 9138SOL     OW36870   5.993   1.728   0.894
 9138SOL    HW236871   5.997   1.639   0.929
 9138SOL    HW336872   6.019   1.719   0.803
 9138SOL    MW436873   5.996   1.716   0.886
 9139SOL     OW36874   6.610   1.206   1.137
 9139SOL    HW236875   6.542   1.140   1.153
 9139SOL    HW336876   6.628   1.200   1.044
 9139SOL    MW436877   6.603   1.197   1.128
 9140SOL     OW36878   5.699   1.481   1.388
 9140SOL    HW236879   5.689   1.439   1.474
 9140SOL    HW336880   5.620   1.534   1.378
 9140SOL    MW436881   5.688   1.482   1.399
 9141SOL     OW36882   6.603   0.345   0.958
 9141SOL    HW236883   6.533   0.297   1.003
 9141SOL    HW336884   6.635   0.408   1.022
 9141SOL    MW436885   6.598   0.347   0.972
 9142SOL     OW36886   6.254   0.781   1.578
 9142SOL    HW236887   6.247   0.876   1.566
 9142SOL    HW336888   6.263   0.770   1.673
 9142SOL    MW436889   6.255   0.793   1.588
 9143SOL     OW36890   5.975   1.296   1.836
 9143SOL    HW236891   6.047   1.298   1.773
 9143SOL    HW336892   5.945   1.205   1.835
 9143SOL    MW436893   5.980   1.285   1.828
 9144SOL     OW36894   7.059   0.059   1.303
 9144SOL    HW236895   7.130   0.005   1.267
 9144SOL    HW336896   7.058   0.038   1.396
 9144SOL    MW436897   7.068   0.050   1.311
 9145SOL     OW36898   7.259   1.589   1.787
 9145SOL    HW236899   7.232   1.586   1.878
 9145SOL    HW336900   7.355   1.593   1.790
 9145SOL    MW436901   7.269   1.589   1.799
 9146SOL     OW36902   6.070   0.451   0.771
 9146SOL    HW236903   6.141   0.399   0.734
 9146SOL    HW336904   6.056   0.416   0.858
 9146SOL    MW436905   6.078   0.440   0.778
 9147SOL     OW36906   5.625   1.786   1.843
 9147SOL    HW236907   5.675   1.764   1.765
 9147SOL    HW336908   5.633   1.881   1.851
 9147SOL    MW436909   5.633   1.795   1.834
 9148SOL     OW36910   6.386   1.544   0.847
 9148SOL    HW236911   6.314   1.481   0.860
 9148SOL    HW336912   6.347   1.629   0.865
 9148SOL    MW436913   6.370   1.547   0.850
 9149SOL     OW36914   6.706   0.392   0.495
 9149SOL    HW236915   6.728   0.329   0.427
 9149SOL    HW336916   6.611   0.384   0.506
 9149SOL    MW436917   6.696   0.383   0.487
 9150SOL     OW36918   5.622   0.549   1.570
 9150SOL    HW236919   5.686   0.615   1.545
 9150SOL    HW336920   5.541   0.576   1.527
 9150SOL    MW436921   5.620   0.561   1.562
 9151SOL     OW36922   7.360   1.456   0.527
 9151SOL    HW236923   7.330   1.389   0.588
 9151SOL    HW336924   7.454   1.462   0.541
 9151SOL    MW436925   7.368   1.448   0.537
 9152SOL     OW36926   6.916   1.133   0.457
 9152SOL    HW236927   6.888   1.219   0.490
 9152SOL    HW336928   6.944   1.149   0.367
 9152SOL    MW436929   6.916   1.147   0.449
 9153SOL     OW36930   6.578   0.053   0.510
 9153SOL    HW236931   6.615   0.112   0.575
 9153SOL    HW336932   6.555   0.109   0.436
 9153SOL    MW436933   6.579   0.068   0.509
 9154SOL     OW36934   7.431   0.935   0.932
 9154SOL    HW236935   7.422   0.967   0.843
 9154SOL    HW336936   7.384   0.851   0.932
 9154SOL    MW436937   7.424   0.928   0.922
 9155SOL     OW36938   5.807   0.775   1.511
 9155SOL    HW236939   5.828   0.844   1.449
 9155SOL    HW336940   5.887   0.722   1.516
 9155SOL    MW436941   5.820   0.776   1.505
 9156SOL     OW36942   7.343   0.866   0.633
 9156SOL    HW236943   7.437   0.855   0.621
 9156SOL    HW336944   7.319   0.938   0.574
 9156SOL    MW436945   7.353   0.874   0.624
 9157SOL     OW36946   5.792   0.790   1.778
 9157SOL    HW236947   5.718   0.734   1.804
 9157SOL    HW336948   5.787   0.793   1.683
 9157SOL    MW436949   5.781   0.783   1.768
 9158SOL     OW36950   5.999   0.744   0.406
 9158SOL    HW236951   5.999   0.839   0.391
 9158SOL    HW336952   6.076   0.728   0.460
 9158SOL    MW436953   6.009   0.755   0.411
 9159SOL     OW36954   6.775   0.603   1.470
 9159SOL    HW236955   6.811   0.576   1.386
 9159SOL    HW336956   6.688   0.637   1.449
 9159SOL    MW436957   6.769   0.604   1.457
 9160SOL     OW36958   5.758   0.475   0.695
 9160SOL    HW236959   5.820   0.482   0.768
 9160SOL    HW336960   5.758   0.382   0.672
 9160SOL    MW436961   5.766   0.464   0.702
 9161SOL     OW36962   6.440   0.736   1.179
 9161SOL    HW236963   6.398   0.654   1.155
 9161SOL    HW336964   6.441   0.735   1.275
 9161SOL    MW436965   6.433   0.725   1.188
 9162SOL     OW36966   7.111   1.869   1.578
 9162SOL    HW236967   7.114   1.775   1.561
 9162SOL    HW336968   7.134   1.877   1.670
 9162SOL    MW436969   7.114   1.857   1.588
 9163SOL     OW36970   6.244   0.206   1.284
 9163SOL    HW236971   6.175   0.269   1.305
 9163SOL    HW336972   6.271   0.170   1.369
 9163SOL    MW436973   6.238   0.209   1.297
 9164SOL     OW36974   7.039   0.059   0.901
 9164SOL    HW236975   7.127   0.068   0.938
 9164SOL    HW336976   7.049   0.000   0.827
 9164SOL    MW436977   7.053   0.053   0.895
 9165SOL     OW36978   7.071   0.798   0.745
 9165SOL    HW236979   7.151   0.813   0.694
 9165SOL    HW336980   7.064   0.703   0.751
 9165SOL    MW436981   7.080   0.787   0.740
 9166SOL     OW36982   6.521   0.724   1.442
 9166SOL    HW236983   6.590   0.791   1.439
 9166SOL    HW336984   6.454   0.762   1.498
 9166SOL    MW436985   6.522   0.737   1.449
 9167SOL     OW36986   5.939   1.024   1.690
 9167SOL    HW236987   5.893   0.940   1.692
 9167SOL    HW336988   5.996   1.018   1.614
 9167SOL    MW436989   5.941   1.012   1.682
 9168SOL     OW36990   7.056   0.667   0.011
 9168SOL    HW236991   6.984   0.643  -0.047
 9168SOL    HW336992   7.122   0.704  -0.047
 9168SOL    MW436993   7.055   0.669  -0.004
 9169SOL     OW36994   6.190   1.399   0.691
 9169SOL    HW236995   6.255   1.332   0.712
 9169SOL    HW336996   6.242   1.476   0.668
 9169SOL    MW436997   6.205   1.401   0.690
 9170SOL     OW36998   6.451   0.564   0.821
 9170SOL    HW236999   6.391   0.582   0.893
 9170SOL    HW337000   6.485   0.476   0.840
 9170SOL    MW437001   6.447   0.554   0.834
 9171SOL     OW37002   7.392   0.063   1.490
 9171SOL    HW237003   7.313   0.109   1.518
 9171SOL    HW337004   7.427   0.117   1.419
 9171SOL    MW437005   7.386   0.076   1.484
 9172SOL     OW37006   6.676   1.147   0.840
 9172SOL    HW237007   6.768   1.128   0.858
 9172SOL    HW337008   6.649   1.077   0.780
 9172SOL    MW437009   6.684   1.135   0.834
 9173SOL     OW37010   6.950   1.385   0.936
 9173SOL    HW237011   6.923   1.469   0.901
 9173SOL    HW337012   6.910   1.380   1.023
 9173SOL    MW437013   6.943   1.394   0.942
 9174SOL     OW37014   6.869   1.333   1.204
 9174SOL    HW237015   6.880   1.300   1.293
 9174SOL    HW337016   6.788   1.292   1.173
 9174SOL    MW437017   6.859   1.325   1.210
 9175SOL     OW37018   5.882   0.691   0.974
 9175SOL    HW237019   5.832   0.690   1.055
 9175SOL    HW337020   5.902   0.783   0.958
 9175SOL    MW437021   5.878   0.703   0.982
 9176SOL     OW37022   6.949   1.455   1.736
 9176SOL    HW237023   6.949   1.549   1.752
 9176SOL    HW337024   6.994   1.445   1.652
 9176SOL    MW437025   6.955   1.465   1.727
 9177SOL     OW37026   5.804   0.359   1.715
 9177SOL    HW237027   5.761   0.418   1.652
 9177SOL    HW337028   5.872   0.414   1.755
 9177SOL    MW437029   5.808   0.374   1.712
 9178SOL     OW37030   6.916   0.979   1.260
 9178SOL    HW237031   6.979   0.976   1.333
 9178SOL    HW337032   6.832   0.997   1.302
 9178SOL    MW437033   6.912   0.981   1.275
 9179SOL     OW37034   6.460   1.694   0.449
 9179SOL    HW237035   6.518   1.765   0.476
 9179SOL    HW337036   6.483   1.622   0.507
 9179SOL    MW437037   6.471   1.694   0.460
 9180SOL     OW37038   7.255   0.156   1.039
 9180SOL    HW237039   7.300   0.074   1.058
 9180SOL    HW337040   7.275   0.212   1.115
 9180SOL    MW437041   7.265   0.152   1.051
 9181SOL     OW37042   5.703  -0.001   1.138
 9181SOL    HW237043   5.694   0.000   1.043
 9181SOL    HW337044   5.797   0.011   1.153
 9181SOL    MW437045   5.715   0.002   1.129
 9182SOL     OW37046   7.340   1.192   0.758
 9182SOL    HW237047   7.319   1.138   0.681
 9182SOL    HW337048   7.436   1.190   0.762
 9182SOL    MW437049   7.349   1.185   0.747
 9183SOL     OW37050   6.032   1.337   1.501
 9183SOL    HW237051   5.953   1.287   1.524
 9183SOL    HW337052   6.102   1.296   1.551
 9183SOL    MW437053   6.030   1.325   1.511
 9184SOL     OW37054   7.040   0.623   1.020
 9184SOL    HW237055   6.963   0.669   0.986
 9184SOL    HW337056   7.097   0.692   1.054
 9184SOL    MW437057   7.037   0.638   1.020
 9185SOL     OW37058   5.706   1.482   0.222
 9185SOL    HW237059   5.723   1.566   0.264
 9185SOL    HW337060   5.741   1.491   0.134
 9185SOL    MW437061   5.711   1.495   0.216
 9186SOL     OW37062   6.978   1.571   0.439
 9186SOL    HW237063   7.041   1.561   0.368
 9186SOL    HW337064   6.895   1.591   0.394
 9186SOL    MW437065   6.975   1.572   0.424
 9187SOL     OW37066   7.341   0.839   2.125
 9187SOL    HW237067   7.382   0.781   2.190
 9187SOL    HW337068   7.248   0.831   2.142
 9187SOL    MW437069   7.335   0.831   2.135
 9188SOL     OW37070   7.207   0.771   3.120
 9188SOL    HW237071   7.162   0.838   3.171
 9188SOL    HW337072   7.295   0.807   3.106
 9188SOL    MW437073   7.213   0.784   3.124
 9189SOL     OW37074   6.135   1.022   2.354
 9189SOL    HW237075   6.225   0.997   2.338
 9189SOL    HW337076   6.131   1.115   2.331
 9189SOL    MW437077   6.147   1.031   2.349
 9190SOL     OW37078   7.251   1.725   2.496
 9190SOL    HW237079   7.263   1.671   2.574
 9190SOL    HW337080   7.288   1.673   2.425
 9190SOL    MW437081   7.257   1.710   2.497
 9191SOL     OW37082   6.630   1.610   3.497
 9191SOL    HW237083   6.671   1.646   3.418
 9191SOL    HW337084   6.665   1.521   3.504
 9191SOL    MW437085   6.641   1.603   3.488
 9192SOL     OW37086   7.187   1.165   3.101
 9192SOL    HW237087   7.108   1.130   3.059
 9192SOL    HW337088   7.214   1.237   3.045
 9192SOL    MW437089   7.180   1.170   3.088
 9193SOL     OW37090   6.419   0.478   2.367
 9193SOL    HW237091   6.394   0.566   2.395
 9193SOL    HW337092   6.416   0.481   2.271
 9193SOL    MW437093   6.415   0.490   2.359
 9194SOL     OW37094   5.861   0.506   2.295
 9194SOL    HW237095   5.893   0.594   2.277
 9194SOL    HW337096   5.849   0.504   2.390
 9194SOL    MW437097   5.864   0.518   2.307
 9195SOL     OW37098   5.939   0.919   3.196
 9195SOL    HW237099   6.002   0.866   3.147
 9195SOL    HW337100   5.920   0.993   3.139
 9195SOL    MW437101   5.945   0.921   3.183
 9196SOL     OW37102   6.260   0.261   2.382
 9196SOL    HW237103   6.318   0.337   2.384
 9196SOL    HW337104   6.195   0.282   2.315
 9196SOL    MW437105   6.259   0.273   2.373
 9197SOL     OW37106   6.347   1.188   2.557
 9197SOL    HW237107   6.427   1.191   2.609
 9197SOL    HW337108   6.375   1.155   2.471
 9197SOL    MW437109   6.361   1.184   2.552
 9198SOL     OW37110   6.372   1.529   3.460
 9198SOL    HW237111   6.456   1.555   3.499
 9198SOL    HW337112   6.396   1.473   3.386
 9198SOL    MW437113   6.386   1.525   3.455
 9199SOL     OW37114   6.124   0.692   2.548
 9199SOL    HW237115   6.109   0.612   2.599
 9199SOL    HW337116   6.206   0.727   2.582
 9199SOL    MW437117   6.132   0.684   2.560
 9200SOL     OW37118   6.461   1.378   3.233
 9200SOL    HW237119   6.425   1.444   3.173
 9200SOL    HW337120   6.389   1.316   3.246
 9200SOL    MW437121   6.447   1.378   3.227
 9201SOL     OW37122   6.266   0.518   2.925
 9201SOL    HW237123   6.172   0.514   2.943
 9201SOL    HW337124   6.296   0.427   2.934
 9201SOL    MW437125   6.257   0.506   2.928
 9202SOL     OW37126   6.012   0.932   2.829
 9202SOL    HW237127   5.967   0.939   2.745
 9202SOL    HW337128   5.992   1.015   2.873
 9202SOL    MW437129   6.004   0.944   2.823
 9203SOL     OW37130   5.709   1.778   2.704
 9203SOL    HW237131   5.798   1.770   2.739
 9203SOL    HW337132   5.673   1.690   2.709
 9203SOL    MW437133   5.716   1.765   2.709
 9204SOL     OW37134   6.974   1.170   2.073
 9204SOL    HW237135   6.892   1.206   2.039
 9204SOL    HW337136   7.042   1.213   2.022
 9204SOL    MW437137   6.972   1.180   2.061
 9205SOL     OW37138   5.973   1.305   2.739
 9205SOL    HW237139   5.949   1.358   2.815
 9205SOL    HW337140   6.029   1.363   2.687
 9205SOL    MW437141   5.977   1.320   2.742
 9206SOL     OW37142   6.535   0.949   2.549
 9206SOL    HW237143   6.449   0.936   2.589
 9206SOL    HW337144   6.588   0.876   2.581
 9206SOL    MW437145   6.531   0.938   2.558
 9207SOL     OW37146   5.943   1.601   3.334
 9207SOL    HW237147   5.851   1.577   3.319
 9207SOL    HW337148   5.987   1.518   3.351
 9207SOL    MW437149   5.937   1.586   3.333
 9208SOL     OW37150   6.526   1.311   2.266
 9208SOL    HW237151   6.503   1.373   2.334
 9208SOL    HW337152   6.483   1.229   2.292
 9208SOL    MW437153   6.518   1.307   2.277
 9209SOL     OW37154   7.399   0.312   2.722
 9209SOL    HW237155   7.336   0.292   2.791
 9209SOL    HW337156   7.389   0.241   2.659
 9209SOL    MW437157   7.389   0.299   2.723
 9210SOL     OW37158   6.023   0.284   2.234
 9210SOL    HW237159   5.997   0.246   2.150
 9210SOL    HW337160   5.960   0.354   2.250
 9210SOL    MW437161   6.012   0.287   2.225
 9211SOL     OW37162   5.858   1.245   2.271
 9211SOL    HW237163   5.806   1.313   2.227
 9211SOL    HW337164   5.855   1.171   2.211
 9211SOL    MW437165   5.850   1.244   2.258
 9212SOL     OW37166   6.520   1.708   2.049
 9212SOL    HW237167   6.475   1.724   2.132
 9212SOL    HW337168   6.451   1.673   1.991
 9212SOL    MW437169   6.506   1.705   2.051
 9213SOL     OW37170   7.455   0.481   2.024
 9213SOL    HW237171   7.364   0.483   2.052
 9213SOL    HW337172   7.500   0.543   2.082
 9213SOL    MW437173   7.448   0.489   2.034
 9214SOL     OW37174   7.200   1.084   2.374
 9214SOL    HW237175   7.110   1.084   2.409
 9214SOL    HW337176   7.193   1.130   2.291
 9214SOL    MW437177   7.187   1.090   2.368
 9215SOL     OW37178   7.000   0.719   3.446
 9215SOL    HW237179   7.069   0.657   3.423
 9215SOL    HW337180   6.925   0.693   3.393
 9215SOL    MW437181   7.000   0.706   3.437
 9216SOL     OW37182   5.741   1.599   2.998
 9216SOL    HW237183   5.724   1.545   3.075
 9216SOL    HW337184   5.729   1.689   3.028
 9216SOL    MW437185   5.738   1.603   3.012
 9217SOL     OW37186   6.736   1.106   3.438
 9217SOL    HW237187   6.721   1.199   3.423
 9217SOL    HW337188   6.831   1.096   3.438
 9217SOL    MW437189   6.745   1.116   3.435
 9218SOL     OW37190   6.532   0.530   3.639
 9218SOL    HW237191   6.622   0.531   3.606
 9218SOL    HW337192   6.491   0.455   3.597
 9218SOL    MW437193   6.538   0.520   3.630
 9219SOL     OW37194   7.107   1.062   2.766
 9219SOL    HW237195   7.110   0.996   2.697
 9219SOL    HW337196   7.192   1.105   2.762
 9219SOL    MW437197   7.119   1.058   2.757
 9220SOL     OW37198   6.727   0.665   2.335
 9220SOL    HW237199   6.753   0.689   2.246
 9220SOL    HW337200   6.709   0.572   2.331
 9220SOL    MW437201   6.729   0.657   2.322
 9221SOL     OW37202   7.392   1.285   2.186
 9221SOL    HW237203   7.348   1.326   2.261
 9221SOL    HW337204   7.449   1.353   2.151
 9221SOL    MW437205   7.394   1.299   2.191
 9222SOL     OW37206   6.312   0.334   3.589
 9222SOL    HW237207   6.322   0.260   3.529
 9222SOL    HW337208   6.348   0.303   3.672
 9222SOL    MW437209   6.318   0.320   3.591
 9223SOL     OW37210   6.048   1.701   2.504
 9223SOL    HW237211   6.080   1.789   2.482
 9223SOL    HW337212   6.001   1.673   2.426
 9223SOL    MW437213   6.047   1.709   2.491
 9224SOL     OW37214   7.432   0.063   2.553
 9224SOL    HW237215   7.486   0.014   2.615
 9224SOL    HW337216   7.375  -0.003   2.514
 9224SOL    MW437217   7.432   0.047   2.555
 9225SOL     OW37218   5.764   1.761   2.081
 9225SOL    HW237219   5.793   1.851   2.073
 9225SOL    HW337220   5.714   1.744   2.002
 9225SOL    MW437221   5.762   1.769   2.070
 9226SOL     OW37222   6.551   0.016   2.966
 9226SOL    HW237223   6.510   0.094   2.928
 9226SOL    HW337224   6.645   0.034   2.961
 9226SOL    MW437225   6.557   0.028   2.961
 9227SOL     OW37226   7.168   1.569   2.052
 9227SOL    HW237227   7.216   1.638   2.098
 9227SOL    HW337228   7.089   1.613   2.021
 9227SOL    MW437229   7.163   1.583   2.055
 9228SOL     OW37230   6.566   0.694   1.996
 9228SOL    HW237231   6.568   0.641   1.917
 9228SOL    HW337232   6.654   0.731   2.002
 9228SOL    MW437233   6.578   0.693   1.985
 9229SOL     OW37234   7.180   0.620   2.332
 9229SOL    HW237235   7.219   0.620   2.419
 9229SOL    HW337236   7.121   0.696   2.332
 9229SOL    MW437237   7.177   0.631   2.343
 9230SOL     OW37238   6.497   0.987   3.461
 9230SOL    HW237239   6.474   0.967   3.551
 9230SOL    HW337240   6.582   1.031   3.466
 9230SOL    MW437241   6.504   0.990   3.473
 9231SOL     OW37242   6.577   0.124   3.221
 9231SOL    HW237243   6.583   0.086   3.134
 9231SOL    HW337244   6.566   0.218   3.206
 9231SOL    MW437245   6.578   0.132   3.209
 9232SOL     OW37246   6.666   0.613   3.055
 9232SOL    HW237247   6.741   0.642   3.002
 9232SOL    HW337248   6.598   0.678   3.039
 9232SOL    MW437249   6.667   0.625   3.045
 9233SOL     OW37250   7.216   0.581   3.332
 9233SOL    HW237251   7.197   0.490   3.311
 9233SOL    HW337252   7.194   0.630   3.253
 9233SOL    MW437253   7.211   0.574   3.319
 9234SOL     OW37254   7.358   1.675   3.236
 9234SOL    HW237255   7.286   1.637   3.287
 9234SOL    HW337256   7.375   1.760   3.277
 9234SOL    MW437257   7.352   1.680   3.248
 9235SOL     OW37258   6.663   0.319   3.438
 9235SOL    HW237259   6.629   0.358   3.357
 9235SOL    HW337260   6.641   0.227   3.431
 9235SOL    MW437261   6.656   0.312   3.428
 9236SOL     OW37262   7.072   1.133   3.514
 9236SOL    HW237263   7.154   1.174   3.544
 9236SOL    HW337264   7.035   1.095   3.594
 9236SOL    MW437265   7.078   1.134   3.529
 9237SOL     OW37266   7.367   0.506   2.498
 9237SOL    HW237267   7.456   0.475   2.515
 9237SOL    HW337268   7.310   0.446   2.546
 9237SOL    MW437269   7.370   0.494   2.507
 9238SOL     OW37270   5.793   0.220   2.527
 9238SOL    HW237271   5.784   0.160   2.453
 9238SOL    HW337272   5.726   0.191   2.590
 9238SOL    MW437273   5.783   0.207   2.525
 9239SOL     OW37274   6.736   1.313   2.088
 9239SOL    HW237275   6.686   1.315   2.170
 9239SOL    HW337276   6.670   1.331   2.020
 9239SOL    MW437277   6.722   1.315   2.090
 9240SOL     OW37278   5.740   0.393   2.890
 9240SOL    HW237279   5.712   0.484   2.899
 9240SOL    HW337280   5.677   0.354   2.829
 9240SOL    MW437281   5.727   0.399   2.884
 9241SOL     OW37282   6.199   1.731   2.196
 9241SOL    HW237283   6.120   1.689   2.229
 9241SOL    HW337284   6.265   1.714   2.263
 9241SOL    MW437285   6.198   1.723   2.209
 9242SOL     OW37286   7.327   1.251   3.593
 9242SOL    HW237287   7.377   1.177   3.625
 9242SOL    HW337288   7.273   1.278   3.668
 9242SOL    MW437289   7.327   1.245   3.606
 9243SOL     OW37290   6.335   1.146   1.903
 9243SOL    HW237291   6.257   1.092   1.890
 9243SOL    HW337292   6.306   1.219   1.956
 9243SOL    MW437293   6.321   1.148   1.908
 9244SOL     OW37294   7.461   0.886   3.095
 9244SOL    HW237295   7.477   0.924   3.008
 9244SOL    HW337296   7.495   0.952   3.156
 9244SOL    MW437297   7.468   0.899   3.091
 9245SOL     OW37298   7.253   1.595   2.764
 9245SOL    HW237299   7.282   1.662   2.825
 9245SOL    HW337300   7.234   1.519   2.819
 9245SOL    MW437301   7.255   1.595   2.779
 9246SOL     OW37302   6.916   1.662   1.971
 9246SOL    HW237303   6.842   1.625   2.021
 9246SOL    HW337304   6.924   1.752   2.004
 9246SOL    MW437305   6.907   1.669   1.983
 9247SOL     OW37306   5.724   0.668   3.060
 9247SOL    HW237307   5.786   0.698   3.126
 9247SOL    HW337308   5.658   0.737   3.054
 9247SOL    MW437309   5.723   0.681   3.067
 9248SOL     OW37310   7.140   1.336   1.913
 9248SOL    HW237311   7.087   1.385   1.849
 9248SOL    HW337312   7.171   1.402   1.974
 9248SOL    MW437313   7.138   1.350   1.911
 9249SOL     OW37314   6.365   0.225   1.968
 9249SOL    HW237315   6.313   0.145   1.956
 9249SOL    HW337316   6.452   0.202   1.936
 9249SOL    MW437317   6.368   0.211   1.962
 9250SOL     OW37318   5.819   1.777   3.512
 9250SOL    HW237319   5.793   1.845   3.450
 9250SOL    HW337320   5.867   1.714   3.460
 9250SOL    MW437321   5.821   1.777   3.498
 9251SOL     OW37322   5.871   1.096   3.019
 9251SOL    HW237323   5.924   1.171   3.044
 9251SOL    HW337324   5.790   1.134   2.985
 9251SOL    MW437325   5.867   1.111   3.019
 9252SOL     OW37326   6.411   1.000   3.007
 9252SOL    HW237327   6.439   0.909   3.019
 9252SOL    HW337328   6.340   0.994   2.943
 9252SOL    MW437329   6.404   0.988   3.002
 9253SOL     OW37330   5.726   0.865   2.425
 9253SOL    HW237331   5.817   0.880   2.452
 9253SOL    HW337332   5.729   0.786   2.371
 9253SOL    MW437333   5.738   0.857   2.423
 9254SOL     OW37334   5.962   0.573   3.679
 9254SOL    HW237335   5.909   0.653   3.686
 9254SOL    HW337336   6.032   0.585   3.744
 9254SOL    MW437337   5.964   0.586   3.687
 9255SOL     OW37338   6.348   0.123   3.386
 9255SOL    HW237339   6.325   0.031   3.388
 9255SOL    HW337340   6.434   0.125   3.343
 9255SOL    MW437341   6.355   0.113   3.382
 9256SOL     OW37342   6.032   0.647   3.425
 9256SOL    HW237343   6.112   0.697   3.411
 9256SOL    HW337344   6.023   0.641   3.520
 9256SOL    MW437345   6.041   0.653   3.435
 9257SOL     OW37346   6.353   1.797   2.799
 9257SOL    HW237347   6.442   1.812   2.829
 9257SOL    HW337348   6.348   1.844   2.715
 9257SOL    MW437349   6.363   1.805   2.792
 9258SOL     OW37350   7.009   0.172   3.696
 9258SOL    HW237351   7.065   0.099   3.722
 9258SOL    HW337352   6.979   0.210   3.778
 9258SOL    MW437353   7.013   0.167   3.709
 9259SOL     OW37354   5.734   1.477   2.464
 9259SOL    HW237355   5.706   1.516   2.546
 9259SOL    HW337356   5.754   1.386   2.486
 9259SOL    MW437357   5.732   1.469   2.477
 9260SOL     OW37358   6.567   1.520   2.499
 9260SOL    HW237359   6.650   1.474   2.483
 9260SOL    HW337360   6.557   1.519   2.595
 9260SOL    MW437361   6.577   1.513   2.509
 9261SOL     OW37362   7.399   0.665   2.813
 9261SOL    HW237363   7.488   0.695   2.795
 9261SOL    HW337364   7.379   0.605   2.742
 9261SOL    MW437365   7.408   0.662   2.802
 9262SOL     OW37366   7.250   0.844   3.693
 9262SOL    HW237367   7.305   0.768   3.674
 9262SOL    HW337368   7.252   0.852   3.788
 9262SOL    MW437369   7.258   0.835   3.701
 9263SOL     OW37370   6.300   1.577   1.904
 9263SOL    HW237371   6.240   1.646   1.874
 9263SOL    HW337372   6.245   1.519   1.957
 9263SOL    MW437373   6.284   1.579   1.906
 9264SOL     OW37374   6.738   0.222   2.127
 9264SOL    HW237375   6.671   0.198   2.064
 9264SOL    HW337376   6.803   0.271   2.076
 9264SOL    MW437377   6.738   0.224   2.112
 9265SOL     OW37378   6.545   0.406   3.212
 9265SOL    HW237379   6.464   0.447   3.240
 9265SOL    HW337380   6.592   0.474   3.164
 9265SOL    MW437381   6.540   0.421   3.210
 9266SOL     OW37382   6.805   0.744   2.835
 9266SOL    HW237383   6.818   0.838   2.845
 9266SOL    HW337384   6.766   0.734   2.749
 9266SOL    MW437385   6.801   0.755   2.825
 9267SOL     OW37386   6.257   0.939   2.639
 9267SOL    HW237387   6.168   0.930   2.672
 9267SOL    HW337388   6.261   1.029   2.607
 9267SOL    MW437389   6.246   0.950   2.639
 9268SOL     OW37390   7.056   0.522   2.634
 9268SOL    HW237391   7.001   0.443   2.633
 9268SOL    HW337392   7.038   0.563   2.718
 9268SOL    MW437393   7.046   0.517   2.643
 9269SOL     OW37394   6.027   0.209   3.451
 9269SOL    HW237395   5.948   0.227   3.503
 9269SOL    HW337396   6.022   0.271   3.378
 9269SOL    MW437397   6.017   0.219   3.448
 9270SOL     OW37398   6.675   0.726   2.591
 9270SOL    HW237399   6.612   0.658   2.615
 9270SOL    HW337400   6.695   0.707   2.499
 9270SOL    MW437401   6.669   0.713   2.583
 9271SOL     OW37402   5.931   1.621   2.293
 9271SOL    HW237403   5.892   1.668   2.219
 9271SOL    HW337404   5.865   1.556   2.318
 9271SOL    MW437405   5.918   1.619   2.287
 9272SOL     OW37406   6.423   1.030   2.317
 9272SOL    HW237407   6.425   1.004   2.224
 9272SOL    HW337408   6.481   0.967   2.360
 9272SOL    MW437409   6.431   1.019   2.311
 9273SOL     OW37410   6.976   1.590   3.089
 9273SOL    HW237411   6.901   1.636   3.127
 9273SOL    HW337412   6.958   1.497   3.106
 9273SOL    MW437413   6.965   1.584   3.097
 9274SOL     OW37414   6.980   1.798   2.519
 9274SOL    HW237415   6.923   1.751   2.458
 9274SOL    HW337416   7.066   1.759   2.506
 9274SOL    MW437417   6.983   1.789   2.509
 9275SOL     OW37418   6.933   0.274   2.650
 9275SOL    HW237419   6.961   0.206   2.711
 9275SOL    HW337420   6.847   0.245   2.620
 9275SOL    MW437421   6.926   0.261   2.654
 9276SOL     OW37422   5.738   1.208   2.584
 9276SOL    HW237423   5.802   1.240   2.647
 9276SOL    HW337424   5.787   1.144   2.532
 9276SOL    MW437425   5.753   1.204   2.585
 9277SOL     OW37426   6.238   1.284   3.566
 9277SOL    HW237427   6.286   1.367   3.553
 9277SOL    HW337428   6.295   1.232   3.622
 9277SOL    MW437429   6.252   1.288   3.572
 9278SOL     OW37430   5.814   1.526   3.706
 9278SOL    HW237431   5.870   1.450   3.721
 9278SOL    HW337432   5.763   1.504   3.628
 9278SOL    MW437433   5.814   1.513   3.697
 9279SOL     OW37434   6.913   0.378   1.985
 9279SOL    HW237435   6.886   0.444   1.921
 9279SOL    HW337436   6.983   0.421   2.035
 9279SOL    MW437437   6.918   0.391   1.982
 9280SOL     OW37438   6.581   0.083   1.922
 9280SOL    HW237439   6.637   0.075   1.844
 9280SOL    HW337440   6.558  -0.007   1.944
 9280SOL    MW437441   6.586   0.070   1.915
 9281SOL     OW37442   7.086   0.934   2.127
 9281SOL    HW237443   7.053   1.023   2.117
 9281SOL    HW337444   7.051   0.905   2.212
 9281SOL    MW437445   7.076   0.943   2.138
 9282SOL     OW37446   6.699   1.363   3.315
 9282SOL    HW237447   6.610   1.369   3.283
 9282SOL    HW337448   6.743   1.442   3.283
 9282SOL    MW437449   6.694   1.373   3.307
 9283SOL     OW37450   5.992   0.031   3.657
 9283SOL    HW237451   5.920  -0.004   3.605
 9283SOL    HW337452   6.050   0.072   3.592
 9283SOL    MW437453   5.990   0.032   3.642
 9284SOL     OW37454   6.016   1.521   2.956
 9284SOL    HW237455   6.061   1.583   3.013
 9284SOL    HW337456   5.923   1.540   2.969
 9284SOL    MW437457   6.009   1.531   2.963
 9285SOL     OW37458   7.456   1.050   3.310
 9285SOL    HW237459   7.371   1.063   3.269
 9285SOL    HW337460   7.436   1.014   3.397
 9285SOL    MW437461   7.443   1.046   3.315
 9286SOL     OW37462   6.438   1.589   3.064
 9286SOL    HW237463   6.462   1.578   2.973
 9286SOL    HW337464   6.361   1.646   3.062
 9286SOL    MW437465   6.430   1.594   3.053
 9287SOL     OW37466   6.080   0.972   1.919
 9287SOL    HW237467   6.003   0.985   1.975
 9287SOL    HW337468   6.044   0.936   1.838
 9287SOL    MW437469   6.066   0.968   1.916
 9288SOL     OW37470   6.733   0.945   2.162
 9288SOL    HW237471   6.643   0.966   2.137
 9288SOL    HW337472   6.760   1.018   2.218
 9288SOL    MW437473   6.725   0.957   2.165
 9289SOL     OW37474   6.233   1.294   2.854
 9289SOL    HW237475   6.226   1.273   2.948
 9289SOL    HW337476   6.151   1.262   2.817
 9289SOL    MW437477   6.221   1.288   2.861
 9290SOL     OW37478   7.097   0.304   3.256
 9290SOL    HW237479   7.044   0.306   3.336
 9290SOL    HW337480   7.082   0.217   3.219
 9290SOL    MW437481   7.089   0.294   3.261
 9291SOL     OW37482   7.433   0.228   3.129
 9291SOL    HW237483   7.414   0.295   3.064
 9291SOL    HW337484   7.490   0.166   3.084
 9291SOL    MW437485   7.437   0.229   3.115
 9292SOL     OW37486   5.679   1.386   3.517
 9292SOL    HW237487   5.723   1.319   3.463
 9292SOL    HW337488   5.594   1.348   3.537
 9292SOL    MW437489   5.674   1.372   3.513
 9293SOL     OW37490   6.362   0.061   2.569
 9293SOL    HW237491   6.291   0.122   2.551
 9293SOL    HW337492   6.413   0.058   2.488
 9293SOL    MW437493   6.358   0.067   2.556
 9294SOL     OW37494   6.120   1.301   2.318
 9294SOL    HW237495   6.113   1.333   2.408
 9294SOL    HW337496   6.030   1.285   2.290
 9294SOL    MW437497   6.108   1.303   2.325
 9295SOL     OW37498   6.715   1.694   3.227
 9295SOL    HW237499   6.635   1.679   3.177
 9295SOL    HW337500   6.722   1.789   3.234
 9295SOL    MW437501   6.706   1.705   3.221
 9296SOL     OW37502   6.829   1.659   2.717
 9296SOL    HW237503   6.876   1.732   2.676
 9296SOL    HW337504   6.750   1.698   2.753
 9296SOL    MW437505   6.824   1.674   2.716
 9297SOL     OW37506   7.237   1.754   2.992
 9297SOL    HW237507   7.280   1.724   3.072
 9297SOL    HW337508   7.156   1.702   2.989
 9297SOL    MW437509   7.232   1.743   3.002
 9298SOL     OW37510   6.322   0.718   3.699
 9298SOL    HW237511   6.392   0.660   3.671
 9298SOL    HW337512   6.265   0.663   3.754
 9298SOL    MW437513   6.324   0.705   3.703
 9299SOL     OW37514   7.109   0.930   3.332
 9299SOL    HW237515   7.114   0.983   3.412
 9299SOL    HW337516   7.071   0.847   3.360
 9299SOL    MW437517   7.105   0.925   3.347
 9300SOL     OW37518   6.123   0.585   2.032
 9300SOL    HW237519   6.089   0.641   2.102
 9300SOL    HW337520   6.194   0.535   2.072
 9300SOL    MW437521   6.129   0.586   2.046
 9301SOL     OW37522   7.219   1.336   2.854
 9301SOL    HW237523   7.254   1.318   2.767
 9301SOL    HW337524   7.124   1.337   2.841
 9301SOL    MW437525   7.211   1.333   2.841
 9302SOL     OW37526   6.648   0.984   3.223
 9302SOL    HW237527   6.691   1.019   3.301
 9302SOL    HW337528   6.631   1.061   3.169
 9302SOL    MW437529   6.651   0.999   3.226
 9303SOL     OW37530   7.179   0.471   2.096
 9303SOL    HW237531   7.171   0.542   2.033
 9303SOL    HW337532   7.197   0.515   2.179
 9303SOL    MW437533   7.180   0.485   2.098
 9304SOL     OW37534   6.039   0.126   2.525
 9304SOL    HW237535   6.089   0.169   2.456
 9304SOL    HW337536   5.954   0.170   2.525
 9304SOL    MW437537   6.036   0.139   2.516
 9305SOL     OW37538   5.798   1.188   3.385
 9305SOL    HW237539   5.826   1.141   3.463
 9305SOL    HW337540   5.719   1.143   3.356
 9305SOL    MW437541   5.791   1.177   3.391
 9306SOL     OW37542   6.306   0.515   3.352
 9306SOL    HW237543   6.278   0.603   3.376
 9306SOL    HW337544   6.275   0.459   3.423
 9306SOL    MW437545   6.298   0.518   3.364
 9307SOL     OW37546   6.848   0.733   2.071
 9307SOL    HW237547   6.895   0.751   1.990
 9307SOL    HW337548   6.814   0.817   2.099
 9307SOL    MW437549   6.850   0.747   2.064
 9308SOL     OW37550   5.961   0.911   2.565
 9308SOL    HW237551   6.019   0.967   2.513
 9308SOL    HW337552   6.005   0.826   2.567
 9308SOL    MW437553   5.974   0.908   2.558
 9309SOL     OW37554   7.101   0.263   2.402
 9309SOL    HW237555   7.023   0.213   2.427
 9309SOL    HW337556   7.072   0.354   2.402
 9309SOL    MW437557   7.087   0.267   2.405
 9310SOL     OW37558   6.687   0.225   2.561
 9310SOL    HW237559   6.707   0.300   2.505
 9310SOL    HW337560   6.667   0.264   2.646
 9310SOL    MW437561   6.688   0.241   2.565
 9311SOL     OW37562   6.583   1.475   1.893
 9311SOL    HW237563   6.610   1.553   1.845
 9311SOL    HW337564   6.490   1.490   1.912
 9311SOL    MW437565   6.574   1.488   1.889
 9312SOL     OW37566   7.447   0.998   3.580
 9312SOL    HW237567   7.360   0.978   3.616
 9312SOL    HW337568   7.501   0.924   3.605
 9312SOL    MW437569   7.442   0.987   3.588
 9313SOL     OW37570   5.668   1.511   2.737
 9313SOL    HW237571   5.700   1.515   2.828
 9313SOL    HW337572   5.573   1.519   2.745
 9313SOL    MW437573   5.660   1.514   2.750
 9314SOL     OW37574   5.623   0.637   2.284
 9314SOL    HW237575   5.563   0.609   2.354
 9314SOL    HW337576   5.697   0.577   2.290
 9314SOL    MW437577   5.625   0.626   2.293
 9315SOL     OW37578   7.191   1.849   3.718
 9315SOL    HW237579   7.236   1.773   3.683
 9315SOL    HW337580   7.229   1.862   3.805
 9315SOL    MW437581   7.201   1.842   3.724
 9316SOL     OW37582   6.791   1.368   2.444
 9316SOL    HW237583   6.814   1.319   2.522
 9316SOL    HW337584   6.872   1.410   2.416
 9316SOL    MW437585   6.804   1.368   2.451
 9317SOL     OW37586   6.049   0.376   3.173
 9317SOL    HW237587   6.082   0.457   3.213
 9317SOL    HW337588   6.022   0.402   3.085
 9317SOL    MW437589   6.048   0.390   3.167
 9318SOL     OW37590   6.003   0.343   2.909
 9318SOL    HW237591   6.033   0.257   2.880
 9318SOL    HW337592   5.908   0.336   2.912
 9318SOL    MW437593   5.995   0.332   2.907
 9319SOL     OW37594   6.832   0.552   3.600
 9319SOL    HW237595   6.884   0.487   3.553
 9319SOL    HW337596   6.790   0.603   3.530
 9319SOL    MW437597   6.833   0.549   3.583
 9320SOL     OW37598   6.931   0.347   3.461
 9320SOL    HW237599   6.838   0.331   3.448
 9320SOL    HW337600   6.957   0.285   3.529
 9320SOL    MW437601   6.921   0.337   3.468
 9321SOL     OW37602   6.146   0.121   2.800
 9321SOL    HW237603   6.156   0.030   2.826
 9321SOL    HW337604   6.102   0.117   2.715
 9321SOL    MW437605   6.142   0.109   2.792
 9322SOL     OW37606   6.240   1.736   3.346
 9322SOL    HW237607   6.157   1.721   3.391
 9322SOL    HW337608   6.299   1.669   3.381
 9322SOL    MW437609   6.238   1.726   3.356
 9323SOL     OW37610   7.297   0.443   2.971
 9323SOL    HW237611   7.230   0.476   3.031
 9323SOL    HW337612   7.340   0.521   2.937
 9323SOL    MW437613   7.295   0.458   2.975
 9324SOL     OW37614   7.475   1.163   2.941
 9324SOL    HW237615   7.468   1.103   2.866
 9324SOL    HW337616   7.401   1.223   2.930
 9324SOL    MW437617   7.465   1.163   2.930
 9325SOL     OW37618   6.857   1.025   2.859
 9325SOL    HW237619   6.871   0.997   2.950
 9325SOL    HW337620   6.943   1.056   2.831
 9325SOL    MW437621   6.870   1.026   2.868
 9326SOL     OW37622   6.940   0.520   3.138
 9326SOL    HW237623   6.961   0.521   3.045
 9326SOL    HW337624   6.985   0.442   3.171
 9326SOL    MW437625   6.947   0.510   3.130
 9327SOL     OW37626   7.433   0.651   3.680
 9327SOL    HW237627   7.470   0.596   3.749
 9327SOL    HW337628   7.458   0.608   3.598
 9327SOL    MW437629   7.440   0.639   3.679
 9328SOL     OW37630   6.980   0.949   3.731
 9328SOL    HW237631   7.046   0.897   3.685
 9328SOL    HW337632   7.000   0.936   3.824
 9328SOL    MW437633   6.991   0.940   3.738
 9329SOL     OW37634   6.991   0.810   2.358
 9329SOL    HW237635   6.906   0.780   2.328
 9329SOL    HW337636   6.983   0.817   2.453
 9329SOL    MW437637   6.979   0.808   2.367
 9330SOL     OW37638   6.067   1.273   3.089
 9330SOL    HW237639   6.079   1.300   3.180
 9330SOL    HW337640   6.048   1.354   3.042
 9330SOL    MW437641   6.066   1.288   3.094
 9331SOL     OW37642   6.351   0.253   2.912
 9331SOL    HW237643   6.324   0.255   3.003
 9331SOL    HW337644   6.281   0.205   2.867
 9331SOL    MW437645   6.339   0.249   2.919
 9332SOL     OW37646   6.205   1.745   3.074
 9332SOL    HW237647   6.257   1.822   3.051
 9332SOL    HW337648   6.214   1.737   3.169
 9332SOL    MW437649   6.214   1.752   3.085
 9333SOL     OW37650   7.107   1.330   3.306
 9333SOL    HW237651   7.092   1.259   3.369
 9333SOL    HW337652   7.153   1.288   3.234
 9333SOL    MW437653   7.113   1.314   3.306
 9334SOL     OW37654   6.181   1.061   3.423
 9334SOL    HW237655   6.218   1.066   3.335
 9334SOL    HW337656   6.220   1.134   3.470
 9334SOL    MW437657   6.191   1.071   3.418
 9335SOL     OW37658   6.361   1.104   3.235
 9335SOL    HW237659   6.420   1.050   3.288
 9335SOL    HW337660   6.376   1.076   3.145
 9335SOL    MW437661   6.371   1.093   3.231
 9336SOL     OW37662   6.364   0.476   2.084
 9336SOL    HW237663   6.437   0.525   2.047
 9336SOL    HW337664   6.380   0.385   2.058
 9336SOL    MW437665   6.376   0.471   2.077
 9337SOL     OW37666   7.172   1.593   3.407
 9337SOL    HW237667   7.214   1.578   3.492
 9337SOL    HW337668   7.163   1.506   3.369
 9337SOL    MW437669   7.176   1.581   3.414
 9338SOL     OW37670   6.832   0.072   2.998
 9338SOL    HW237671   6.887   0.081   2.920
 9338SOL    HW337672   6.887   0.106   3.069
 9338SOL    MW437673   6.846   0.077   2.997
 9339SOL     OW37674   5.839   0.985   2.182
 9339SOL    HW237675   5.776   1.001   2.111
 9339SOL    HW337676   5.786   0.948   2.253
 9339SOL    MW437677   5.824   0.982   2.182
 9340SOL     OW37678   6.195   1.339   2.041
 9340SOL    HW237679   6.210   1.315   2.133
 9340SOL    HW337680   6.103   1.317   2.025
 9340SOL    MW437681   6.185   1.332   2.051
 9341SOL     OW37682   6.734   1.570   2.193
 9341SOL    HW237683   6.742   1.488   2.144
 9341SOL    HW337684   6.653   1.609   2.160
 9341SOL    MW437685   6.724   1.565   2.183
 9342SOL     OW37686   5.993   1.728   2.762
 9342SOL    HW237687   5.997   1.639   2.797
 9342SOL    HW337688   6.019   1.719   2.671
 9342SOL    MW437689   5.996   1.716   2.754
 9343SOL     OW37690   6.610   1.206   3.005
 9343SOL    HW237691   6.542   1.140   3.021
 9343SOL    HW337692   6.628   1.200   2.912
 9343SOL    MW437693   6.603   1.197   2.996
 9344SOL     OW37694   5.699   1.481   3.256
 9344SOL    HW237695   5.689   1.439   3.342
 9344SOL    HW337696   5.620   1.534   3.246
 9344SOL    MW437697   5.688   1.482   3.267
 9345SOL     OW37698   6.603   0.345   2.826
 9345SOL    HW237699   6.533   0.297   2.871
 9345SOL    HW337700   6.635   0.408   2.890
 9345SOL    MW437701   6.598   0.347   2.840
 9346SOL     OW37702   6.254   0.781   3.446
 9346SOL    HW237703   6.247   0.876   3.434
 9346SOL    HW337704   6.263   0.770   3.541
 9346SOL    MW437705   6.255   0.793   3.456
 9347SOL     OW37706   5.975   1.296   3.704
 9347SOL    HW237707   6.047   1.298   3.641
 9347SOL    HW337708   5.945   1.205   3.703
 9347SOL    MW437709   5.980   1.285   3.696
 9348SOL     OW37710   7.059   0.059   3.171
 9348SOL    HW237711   7.130   0.005   3.135
 9348SOL    HW337712   7.058   0.038   3.264
 9348SOL    MW437713   7.068   0.050   3.179
 9349SOL     OW37714   7.259   1.589   3.655
 9349SOL    HW237715   7.232   1.586   3.746
 9349SOL    HW337716   7.355   1.593   3.658
 9349SOL    MW437717   7.269   1.589   3.667
 9350SOL     OW37718   6.070   0.451   2.639
 9350SOL    HW237719   6.141   0.399   2.602
 9350SOL    HW337720   6.056   0.416   2.726
 9350SOL    MW437721   6.078   0.440   2.646
 9351SOL     OW37722   5.625   1.786   3.711
 9351SOL    HW237723   5.675   1.764   3.633
 9351SOL    HW337724   5.633   1.881   3.719
 9351SOL    MW437725   5.633   1.795   3.702
 9352SOL     OW37726   6.386   1.544   2.715
 9352SOL    HW237727   6.314   1.481   2.728
 9352SOL    HW337728   6.347   1.629   2.733
 9352SOL    MW437729   6.370   1.547   2.718
 9353SOL     OW37730   6.706   0.392   2.363
 9353SOL    HW237731   6.728   0.329   2.295
 9353SOL    HW337732   6.611   0.384   2.374
 9353SOL    MW437733   6.696   0.383   2.355
 9354SOL     OW37734   5.791   0.082   2.295
 9354SOL    HW237735   5.862   0.103   2.234
 9354SOL    HW337736   5.745   0.010   2.253
 9354SOL    MW437737   5.795   0.076   2.281
 9355SOL     OW37738   5.622   0.549   3.438
 9355SOL    HW237739   5.686   0.615   3.413
 9355SOL    HW337740   5.541   0.576   3.395
 9355SOL    MW437741   5.620   0.561   3.430
 9356SOL     OW37742   7.360   1.456   2.395
 9356SOL    HW237743   7.330   1.389   2.456
 9356SOL    HW337744   7.454   1.462   2.409
 9356SOL    MW437745   7.368   1.448   2.405
 9357SOL     OW37746   6.916   1.133   2.325
 9357SOL    HW237747   6.888   1.219   2.358
 9357SOL    HW337748   6.944   1.149   2.235
 9357SOL    MW437749   6.916   1.147   2.317
 9358SOL     OW37750   6.578   0.053   2.378
 9358SOL    HW237751   6.615   0.112   2.443
 9358SOL    HW337752   6.555   0.109   2.304
 9358SOL    MW437753   6.579   0.068   2.377
 9359SOL     OW37754   7.431   0.935   2.800
 9359SOL    HW237755   7.422   0.967   2.711
 9359SOL    HW337756   7.384   0.851   2.800
 9359SOL    MW437757   7.424   0.928   2.790
 9360SOL     OW37758   5.807   0.775   3.379
 9360SOL    HW237759   5.828   0.844   3.317
 9360SOL    HW337760   5.887   0.722   3.384
 9360SOL    MW437761   5.820   0.776   3.373
 9361SOL     OW37762   7.343   0.866   2.501
 9361SOL    HW237763   7.437   0.855   2.489
 9361SOL    HW337764   7.319   0.938   2.442
 9361SOL    MW437765   7.353   0.874   2.492
 9362SOL     OW37766   5.792   0.790   3.646
 9362SOL    HW237767   5.718   0.734   3.672
 9362SOL    HW337768   5.787   0.793   3.551
 9362SOL    MW437769   5.781   0.783   3.636
 9363SOL     OW37770   5.999   0.744   2.274
 9363SOL    HW237771   5.999   0.839   2.259
 9363SOL    HW337772   6.076   0.728   2.328
 9363SOL    MW437773   6.009   0.755   2.279
 9364SOL     OW37774   6.775   0.603   3.338
 9364SOL    HW237775   6.811   0.576   3.254
 9364SOL    HW337776   6.688   0.637   3.317
 9364SOL    MW437777   6.769   0.604   3.325
 9365SOL     OW37778   5.758   0.475   2.563
 9365SOL    HW237779   5.820   0.482   2.636
 9365SOL    HW337780   5.758   0.382   2.540
 9365SOL    MW437781   5.766   0.464   2.570
 9366SOL     OW37782   7.305   1.815   2.095
 9366SOL    HW237783   7.372   1.848   2.035
 9366SOL    HW337784   7.262   1.894   2.129
 9366SOL    MW437785   7.307   1.830   2.091
 9367SOL     OW37786   6.440   0.736   3.047
 9367SOL    HW237787   6.398   0.654   3.023
 9367SOL    HW337788   6.441   0.735   3.143
 9367SOL    MW437789   6.433   0.725   3.056
 9368SOL     OW37790   7.111   1.869   3.446
 9368SOL    HW237791   7.114   1.775   3.429
 9368SOL    HW337792   7.134   1.877   3.538
 9368SOL    MW437793   7.114   1.857   3.456
 9369SOL     OW37794   6.244   0.206   3.152
 9369SOL    HW237795   6.175   0.269   3.173
 9369SOL    HW337796   6.271   0.170   3.237
 9369SOL    MW437797   6.238   0.209   3.165
 9370SOL     OW37798   5.627   1.047   2.021
 9370SOL    HW237799   5.596   1.112   2.084
 9370SOL    HW337800   5.576   0.969   2.040
 9370SOL    MW437801   5.617   1.044   2.031
 9371SOL     OW37802   7.039   0.059   2.769
 9371SOL    HW237803   7.127   0.068   2.806
 9371SOL    HW337804   7.049   0.000   2.695
 9371SOL    MW437805   7.053   0.053   2.763
 9372SOL     OW37806   7.071   0.798   2.613
 9372SOL    HW237807   7.151   0.813   2.562
 9372SOL    HW337808   7.064   0.703   2.619
 9372SOL    MW437809   7.080   0.787   2.608
 9373SOL     OW37810   6.211   1.847   1.963
 9373SOL    HW237811   6.116   1.847   1.955
 9373SOL    HW337812   6.227   1.793   2.041
 9373SOL    MW437813   6.201   1.841   1.972
 9374SOL     OW37814   6.521   0.724   3.310
 9374SOL    HW237815   6.590   0.791   3.307
 9374SOL    HW337816   6.454   0.762   3.366
 9374SOL    MW437817   6.522   0.737   3.317
 9375SOL     OW37818   5.939   1.024   3.558
 9375SOL    HW237819   5.893   0.940   3.560
 9375SOL    HW337820   5.996   1.018   3.482
 9375SOL    MW437821   5.941   1.012   3.550
 9376SOL     OW37822   7.056   0.667   1.879
 9376SOL    HW237823   6.984   0.643   1.821
 9376SOL    HW337824   7.122   0.704   1.821
 9376SOL    MW437825   7.055   0.669   1.864
 9377SOL     OW37826   6.190   1.399   2.559
 9377SOL    HW237827   6.255   1.332   2.580
 9377SOL    HW337828   6.242   1.476   2.536
 9377SOL    MW437829   6.205   1.401   2.558
 9378SOL     OW37830   6.451   0.564   2.689
 9378SOL    HW237831   6.391   0.582   2.761
 9378SOL    HW337832   6.485   0.476   2.708
 9378SOL    MW437833   6.447   0.554   2.702
 9379SOL     OW37834   7.392   0.063   3.358
 9379SOL    HW237835   7.313   0.109   3.386
 9379SOL    HW337836   7.427   0.117   3.287
 9379SOL    MW437837   7.386   0.076   3.352
 9380SOL     OW37838   6.676   1.147   2.708
 9380SOL    HW237839   6.768   1.128   2.726
 9380SOL    HW337840   6.649   1.077   2.648
 9380SOL    MW437841   6.684   1.135   2.702
 9381SOL     OW37842   6.469   0.967   2.063
 9381SOL    HW237843   6.455   0.879   2.028
 9381SOL    HW337844   6.420   1.024   2.004
 9381SOL    MW437845   6.461   0.962   2.051
 9382SOL     OW37846   6.950   1.385   2.804
 9382SOL    HW237847   6.923   1.469   2.769
 9382SOL    HW337848   6.910   1.380   2.891
 9382SOL    MW437849   6.943   1.394   2.810
 9383SOL     OW37850   6.869   1.333   3.072
 9383SOL    HW237851   6.880   1.300   3.161
 9383SOL    HW337852   6.788   1.292   3.041
 9383SOL    MW437853   6.859   1.325   3.078
 9384SOL     OW37854   5.882   0.691   2.842
 9384SOL    HW237855   5.832   0.690   2.923
 9384SOL    HW337856   5.902   0.783   2.826
 9384SOL    MW437857   5.878   0.703   2.850
 9385SOL     OW37858   6.949   1.455   3.604
 9385SOL    HW237859   6.949   1.549   3.620
 9385SOL    HW337860   6.994   1.445   3.520
 9385SOL    MW437861   6.955   1.465   3.595
 9386SOL     OW37862   7.188   0.173   2.165
 9386SOL    HW237863   7.181   0.177   2.260
 9386SOL    HW337864   7.200   0.264   2.138
 9386SOL    MW437865   7.189   0.186   2.173
 9387SOL     OW37866   6.477   0.736   2.279
 9387SOL    HW237867   6.457   0.722   2.186
 9387SOL    HW337868   6.570   0.715   2.286
 9387SOL    MW437869   6.487   0.731   2.268
 9388SOL     OW37870   5.804   0.359   3.583
 9388SOL    HW237871   5.761   0.418   3.520
 9388SOL    HW337872   5.872   0.414   3.623
 9388SOL    MW437873   5.808   0.374   3.580
 9389SOL     OW37874   6.916   0.979   3.128
 9389SOL    HW237875   6.979   0.976   3.201
 9389SOL    HW337876   6.832   0.997   3.170
 9389SOL    MW437877   6.912   0.981   3.143
 9390SOL     OW37878   6.460   1.694   2.317
 9390SOL    HW237879   6.518   1.765   2.344
 9390SOL    HW337880   6.483   1.622   2.375
 9390SOL    MW437881   6.471   1.694   2.328
 9391SOL     OW37882   7.255   0.156   2.907
 9391SOL    HW237883   7.300   0.074   2.926
 9391SOL    HW337884   7.275   0.212   2.983
 9391SOL    MW437885   7.265   0.152   2.919
 9392SOL     OW37886   5.703  -0.001   3.006
 9392SOL    HW237887   5.694   0.000   2.911
 9392SOL    HW337888   5.797   0.011   3.021
 9392SOL    MW437889   5.715   0.002   2.997
 9393SOL     OW37890   7.340   1.192   2.626
 9393SOL    HW237891   7.319   1.138   2.549
 9393SOL    HW337892   7.436   1.190   2.630
 9393SOL    MW437893   7.349   1.185   2.615
 9394SOL     OW37894   6.032   1.337   3.369
 9394SOL    HW237895   5.953   1.287   3.392
 9394SOL    HW337896   6.102   1.296   3.419
 9394SOL    MW437897   6.030   1.325   3.379
 9395SOL     OW37898   5.916   0.126   2.052
 9395SOL    HW237899   5.845   0.181   2.020
 9395SOL    HW337900   5.958   0.092   1.973
 9395SOL    MW437901   5.912   0.128   2.038
 9396SOL     OW37902   7.040   0.623   2.888
 9396SOL    HW237903   6.963   0.669   2.854
 9396SOL    HW337904   7.097   0.692   2.922
 9396SOL    MW437905   7.037   0.638   2.888
 9397SOL     OW37906   5.672   0.225   1.901
 9397SOL    HW237907   5.639   0.304   1.945
 9397SOL    HW337908   5.727   0.258   1.830
 9397SOL    MW437909   5.675   0.239   1.898
 9398SOL     OW37910   5.706   1.482   2.090
 9398SOL    HW237911   5.723   1.566   2.132
 9398SOL    HW337912   5.741   1.491   2.002
 9398SOL    MW437913   5.711   1.495   2.084
 9399SOL     OW37914   6.978   1.571   2.307
 9399SOL    HW237915   7.041   1.561   2.236
 9399SOL    HW337916   6.895   1.591   2.262
 9399SOL    MW437917   6.975   1.572   2.292
 9400SOL     OW37918   7.341   0.839   3.993
 9400SOL    HW237919   7.382   0.781   4.058
 9400SOL    HW337920   7.248   0.831   4.010
 9400SOL    MW437921   7.335   0.831   4.003
 9401SOL     OW37922   7.207   0.771   4.988
 9401SOL    HW237923   7.162   0.838   5.039
 9401SOL    HW337924   7.295   0.807   4.974
 9401SOL    MW437925   7.213   0.784   4.992
 9402SOL     OW37926   6.135   1.022   4.222
 9402SOL    HW237927   6.225   0.997   4.206
 9402SOL    HW337928   6.131   1.115   4.199
 9402SOL    MW437929   6.147   1.031   4.217
 9403SOL     OW37930   7.251   1.725   4.364
 9403SOL    HW237931   7.263   1.671   4.442
 9403SOL    HW337932   7.288   1.673   4.293
 9403SOL    MW437933   7.257   1.710   4.365
 9404SOL     OW37934   6.630   1.610   5.365
 9404SOL    HW237935   6.671   1.646   5.286
 9404SOL    HW337936   6.665   1.521   5.372
 9404SOL    MW437937   6.641   1.603   5.356
 9405SOL     OW37938   7.187   1.165   4.969
 9405SOL    HW237939   7.108   1.130   4.927
 9405SOL    HW337940   7.214   1.237   4.913
 9405SOL    MW437941   7.180   1.170   4.956
 9406SOL     OW37942   6.419   0.478   4.235
 9406SOL    HW237943   6.394   0.566   4.263
 9406SOL    HW337944   6.416   0.481   4.139
 9406SOL    MW437945   6.415   0.490   4.227
 9407SOL     OW37946   5.861   0.506   4.163
 9407SOL    HW237947   5.893   0.594   4.145
 9407SOL    HW337948   5.849   0.504   4.258
 9407SOL    MW437949   5.864   0.518   4.175
 9408SOL     OW37950   5.939   0.919   5.064
 9408SOL    HW237951   6.002   0.866   5.015
 9408SOL    HW337952   5.920   0.993   5.007
 9408SOL    MW437953   5.945   0.921   5.051
 9409SOL     OW37954   6.260   0.261   4.250
 9409SOL    HW237955   6.318   0.337   4.252
 9409SOL    HW337956   6.195   0.282   4.183
 9409SOL    MW437957   6.259   0.273   4.241
 9410SOL     OW37958   6.347   1.188   4.425
 9410SOL    HW237959   6.427   1.191   4.477
 9410SOL    HW337960   6.375   1.155   4.339
 9410SOL    MW437961   6.361   1.184   4.420
 9411SOL     OW37962   6.372   1.529   5.328
 9411SOL    HW237963   6.456   1.555   5.367
 9411SOL    HW337964   6.396   1.473   5.254
 9411SOL    MW437965   6.386   1.525   5.323
 9412SOL     OW37966   6.124   0.692   4.416
 9412SOL    HW237967   6.109   0.612   4.467
 9412SOL    HW337968   6.206   0.727   4.450
 9412SOL    MW437969   6.132   0.684   4.428
 9413SOL     OW37970   6.461   1.378   5.101
 9413SOL    HW237971   6.425   1.444   5.041
 9413SOL    HW337972   6.389   1.316   5.114
 9413SOL    MW437973   6.447   1.378   5.095
 9414SOL     OW37974   6.266   0.518   4.793
 9414SOL    HW237975   6.172   0.514   4.811
 9414SOL    HW337976   6.296   0.427   4.802
 9414SOL    MW437977   6.257   0.506   4.796
 9415SOL     OW37978   6.012   0.932   4.697
 9415SOL    HW237979   5.967   0.939   4.613
 9415SOL    HW337980   5.992   1.015   4.741
 9415SOL    MW437981   6.004   0.944   4.691
 9416SOL     OW37982   5.709   1.778   4.572
 9416SOL    HW237983   5.798   1.770   4.607
 9416SOL    HW337984   5.673   1.690   4.577
 9416SOL    MW437985   5.716   1.765   4.577
 9417SOL     OW37986   6.974   1.170   3.941
 9417SOL    HW237987   6.892   1.206   3.907
 9417SOL    HW337988   7.042   1.213   3.890
 9417SOL    MW437989   6.972   1.180   3.929
 9418SOL     OW37990   5.973   1.305   4.607
 9418SOL    HW237991   5.949   1.358   4.683
 9418SOL    HW337992   6.029   1.363   4.555
 9418SOL    MW437993   5.977   1.320   4.610
 9419SOL     OW37994   6.535   0.949   4.417
 9419SOL    HW237995   6.449   0.936   4.457
 9419SOL    HW337996   6.588   0.876   4.449
 9419SOL    MW437997   6.531   0.938   4.426
 9420SOL     OW37998   5.943   1.601   5.202
 9420SOL    HW237999   5.851   1.577   5.187
 9420SOL    HW338000   5.987   1.518   5.219
 9420SOL    MW438001   5.937   1.586   5.201
 9421SOL     OW38002   6.526   1.311   4.134
 9421SOL    HW238003   6.503   1.373   4.202
 9421SOL    HW338004   6.483   1.229   4.160
 9421SOL    MW438005   6.518   1.307   4.145
 9422SOL     OW38006   7.399   0.312   4.590
 9422SOL    HW238007   7.336   0.292   4.659
 9422SOL    HW338008   7.389   0.241   4.527
 9422SOL    MW438009   7.389   0.299   4.591
 9423SOL     OW38010   6.023   0.284   4.102
 9423SOL    HW238011   5.997   0.246   4.018
 9423SOL    HW338012   5.960   0.354   4.118
 9423SOL    MW438013   6.012   0.287   4.093
 9424SOL     OW38014   5.858   1.245   4.139
 9424SOL    HW238015   5.806   1.313   4.095
 9424SOL    HW338016   5.855   1.171   4.079
 9424SOL    MW438017   5.850   1.244   4.126
 9425SOL     OW38018   6.520   1.708   3.917
 9425SOL    HW238019   6.475   1.724   4.000
 9425SOL    HW338020   6.451   1.673   3.859
 9425SOL    MW438021   6.506   1.705   3.919
 9426SOL     OW38022   7.455   0.481   3.892
 9426SOL    HW238023   7.364   0.483   3.920
 9426SOL    HW338024   7.500   0.543   3.950
 9426SOL    MW438025   7.448   0.489   3.902
 9427SOL     OW38026   7.200   1.084   4.242
 9427SOL    HW238027   7.110   1.084   4.277
 9427SOL    HW338028   7.193   1.130   4.159
 9427SOL    MW438029   7.187   1.090   4.236
 9428SOL     OW38030   7.000   0.719   5.314
 9428SOL    HW238031   7.069   0.657   5.291
 9428SOL    HW338032   6.925   0.693   5.261
 9428SOL    MW438033   7.000   0.706   5.305
 9429SOL     OW38034   5.741   1.599   4.866
 9429SOL    HW238035   5.724   1.545   4.943
 9429SOL    HW338036   5.729   1.689   4.896
 9429SOL    MW438037   5.738   1.603   4.880
 9430SOL     OW38038   6.736   1.106   5.306
 9430SOL    HW238039   6.721   1.199   5.291
 9430SOL    HW338040   6.831   1.096   5.306
 9430SOL    MW438041   6.745   1.116   5.303
 9431SOL     OW38042   6.532   0.530   5.507
 9431SOL    HW238043   6.622   0.531   5.474
 9431SOL    HW338044   6.491   0.455   5.465
 9431SOL    MW438045   6.538   0.520   5.498
 9432SOL     OW38046   7.107   1.062   4.634
 9432SOL    HW238047   7.110   0.996   4.565
 9432SOL    HW338048   7.192   1.105   4.630
 9432SOL    MW438049   7.119   1.058   4.625
 9433SOL     OW38050   6.727   0.665   4.203
 9433SOL    HW238051   6.753   0.689   4.114
 9433SOL    HW338052   6.709   0.572   4.199
 9433SOL    MW438053   6.729   0.657   4.190
 9434SOL     OW38054   7.392   1.285   4.054
 9434SOL    HW238055   7.348   1.326   4.129
 9434SOL    HW338056   7.449   1.353   4.019
 9434SOL    MW438057   7.394   1.299   4.059
 9435SOL     OW38058   6.312   0.334   5.457
 9435SOL    HW238059   6.322   0.260   5.397
 9435SOL    HW338060   6.348   0.303   5.540
 9435SOL    MW438061   6.318   0.320   5.459
 9436SOL     OW38062   6.048   1.701   4.372
 9436SOL    HW238063   6.080   1.789   4.350
 9436SOL    HW338064   6.001   1.673   4.294
 9436SOL    MW438065   6.047   1.709   4.359
 9437SOL     OW38066   7.432   0.063   4.421
 9437SOL    HW238067   7.486   0.014   4.483
 9437SOL    HW338068   7.375  -0.003   4.382
 9437SOL    MW438069   7.432   0.047   4.423
 9438SOL     OW38070   5.764   1.761   3.949
 9438SOL    HW238071   5.793   1.851   3.941
 9438SOL    HW338072   5.714   1.744   3.870
 9438SOL    MW438073   5.762   1.769   3.938
 9439SOL     OW38074   6.551   0.016   4.834
 9439SOL    HW238075   6.510   0.094   4.796
 9439SOL    HW338076   6.645   0.034   4.829
 9439SOL    MW438077   6.557   0.028   4.829
 9440SOL     OW38078   7.168   1.569   3.920
 9440SOL    HW238079   7.216   1.638   3.966
 9440SOL    HW338080   7.089   1.613   3.889
 9440SOL    MW438081   7.163   1.583   3.923
 9441SOL     OW38082   6.566   0.694   3.864
 9441SOL    HW238083   6.568   0.641   3.785
 9441SOL    HW338084   6.654   0.731   3.870
 9441SOL    MW438085   6.578   0.693   3.853
 9442SOL     OW38086   7.180   0.620   4.200
 9442SOL    HW238087   7.219   0.620   4.287
 9442SOL    HW338088   7.121   0.696   4.200
 9442SOL    MW438089   7.177   0.631   4.211
 9443SOL     OW38090   6.497   0.987   5.329
 9443SOL    HW238091   6.474   0.967   5.419
 9443SOL    HW338092   6.582   1.031   5.334
 9443SOL    MW438093   6.504   0.990   5.341
 9444SOL     OW38094   6.577   0.124   5.089
 9444SOL    HW238095   6.583   0.086   5.002
 9444SOL    HW338096   6.566   0.218   5.074
 9444SOL    MW438097   6.578   0.132   5.077
 9445SOL     OW38098   6.666   0.613   4.923
 9445SOL    HW238099   6.741   0.642   4.870
 9445SOL    HW338100   6.598   0.678   4.907
 9445SOL    MW438101   6.667   0.625   4.913
 9446SOL     OW38102   7.216   0.581   5.200
 9446SOL    HW238103   7.197   0.490   5.179
 9446SOL    HW338104   7.194   0.630   5.121
 9446SOL    MW438105   7.211   0.574   5.187
 9447SOL     OW38106   7.358   1.675   5.104
 9447SOL    HW238107   7.286   1.637   5.155
 9447SOL    HW338108   7.375   1.760   5.145
 9447SOL    MW438109   7.352   1.680   5.116
 9448SOL     OW38110   6.663   0.319   5.306
 9448SOL    HW238111   6.629   0.358   5.225
 9448SOL    HW338112   6.641   0.227   5.299
 9448SOL    MW438113   6.656   0.312   5.296
 9449SOL     OW38114   7.072   1.133   5.382
 9449SOL    HW238115   7.154   1.174   5.412
 9449SOL    HW338116   7.035   1.095   5.462
 9449SOL    MW438117   7.078   1.134   5.397
 9450SOL     OW38118   7.367   0.506   4.366
 9450SOL    HW238119   7.456   0.475   4.383
 9450SOL    HW338120   7.310   0.446   4.414
 9450SOL    MW438121   7.370   0.494   4.375
 9451SOL     OW38122   5.793   0.220   4.395
 9451SOL    HW238123   5.784   0.160   4.321
 9451SOL    HW338124   5.726   0.191   4.458
 9451SOL    MW438125   5.783   0.207   4.393
 9452SOL     OW38126   6.736   1.313   3.956
 9452SOL    HW238127   6.686   1.315   4.038
 9452SOL    HW338128   6.670   1.331   3.888
 9452SOL    MW438129   6.722   1.315   3.958
 9453SOL     OW38130   5.740   0.393   4.758
 9453SOL    HW238131   5.712   0.484   4.767
 9453SOL    HW338132   5.677   0.354   4.697
 9453SOL    MW438133   5.727   0.399   4.752
 9454SOL     OW38134   6.199   1.731   4.064
 9454SOL    HW238135   6.120   1.689   4.097
 9454SOL    HW338136   6.265   1.714   4.131
 9454SOL    MW438137   6.198   1.723   4.077
 9455SOL     OW38138   7.327   1.251   5.461
 9455SOL    HW238139   7.377   1.177   5.493
 9455SOL    HW338140   7.273   1.278   5.536
 9455SOL    MW438141   7.327   1.245   5.474
 9456SOL     OW38142   6.335   1.146   3.771
 9456SOL    HW238143   6.257   1.092   3.758
 9456SOL    HW338144   6.306   1.219   3.824
 9456SOL    MW438145   6.321   1.148   3.776
 9457SOL     OW38146   7.461   0.886   4.963
 9457SOL    HW238147   7.477   0.924   4.876
 9457SOL    HW338148   7.495   0.952   5.024
 9457SOL    MW438149   7.468   0.899   4.959
 9458SOL     OW38150   7.253   1.595   4.632
 9458SOL    HW238151   7.282   1.662   4.693
 9458SOL    HW338152   7.234   1.519   4.687
 9458SOL    MW438153   7.255   1.595   4.647
 9459SOL     OW38154   6.916   1.662   3.839
 9459SOL    HW238155   6.842   1.625   3.889
 9459SOL    HW338156   6.924   1.752   3.872
 9459SOL    MW438157   6.907   1.669   3.851
 9460SOL     OW38158   5.724   0.668   4.928
 9460SOL    HW238159   5.786   0.698   4.994
 9460SOL    HW338160   5.658   0.737   4.922
 9460SOL    MW438161   5.723   0.681   4.935
 9461SOL     OW38162   7.140   1.336   3.781
 9461SOL    HW238163   7.087   1.385   3.717
 9461SOL    HW338164   7.171   1.402   3.842
 9461SOL    MW438165   7.138   1.350   3.779
 9462SOL     OW38166   6.365   0.225   3.836
 9462SOL    HW238167   6.313   0.145   3.824
 9462SOL    HW338168   6.452   0.202   3.804
 9462SOL    MW438169   6.368   0.211   3.830
 9463SOL     OW38170   5.819   1.777   5.380
 9463SOL    HW238171   5.793   1.845   5.318
 9463SOL    HW338172   5.867   1.714   5.328
 9463SOL    MW438173   5.821   1.777   5.366
 9464SOL     OW38174   5.871   1.096   4.887
 9464SOL    HW238175   5.924   1.171   4.912
 9464SOL    HW338176   5.790   1.134   4.853
 9464SOL    MW438177   5.867   1.111   4.887
 9465SOL     OW38178   6.411   1.000   4.875
 9465SOL    HW238179   6.439   0.909   4.887
 9465SOL    HW338180   6.340   0.994   4.811
 9465SOL    MW438181   6.404   0.988   4.870
 9466SOL     OW38182   5.726   0.865   4.293
 9466SOL    HW238183   5.817   0.880   4.320
 9466SOL    HW338184   5.729   0.786   4.239
 9466SOL    MW438185   5.738   0.857   4.291
 9467SOL     OW38186   5.962   0.573   5.547
 9467SOL    HW238187   5.909   0.653   5.554
 9467SOL    HW338188   6.032   0.585   5.612
 9467SOL    MW438189   5.964   0.586   5.555
 9468SOL     OW38190   6.348   0.123   5.254
 9468SOL    HW238191   6.325   0.031   5.256
 9468SOL    HW338192   6.434   0.125   5.211
 9468SOL    MW438193   6.355   0.113   5.250
 9469SOL     OW38194   6.032   0.647   5.293
 9469SOL    HW238195   6.112   0.697   5.279
 9469SOL    HW338196   6.023   0.641   5.388
 9469SOL    MW438197   6.041   0.653   5.303
 9470SOL     OW38198   6.353   1.797   4.667
 9470SOL    HW238199   6.442   1.812   4.697
 9470SOL    HW338200   6.348   1.844   4.583
 9470SOL    MW438201   6.363   1.805   4.660
 9471SOL     OW38202   7.009   0.172   5.564
 9471SOL    HW238203   7.065   0.099   5.590
 9471SOL    HW338204   6.979   0.210   5.646
 9471SOL    MW438205   7.013   0.167   5.577
 9472SOL     OW38206   5.734   1.477   4.332
 9472SOL    HW238207   5.706   1.516   4.414
 9472SOL    HW338208   5.754   1.386   4.354
 9472SOL    MW438209   5.732   1.469   4.345
 9473SOL     OW38210   6.567   1.520   4.367
 9473SOL    HW238211   6.650   1.474   4.351
 9473SOL    HW338212   6.557   1.519   4.463
 9473SOL    MW438213   6.577   1.513   4.377
 9474SOL     OW38214   7.399   0.665   4.681
 9474SOL    HW238215   7.488   0.695   4.663
 9474SOL    HW338216   7.379   0.605   4.610
 9474SOL    MW438217   7.408   0.662   4.670
 9475SOL     OW38218   7.250   0.844   5.561
 9475SOL    HW238219   7.305   0.768   5.542
 9475SOL    HW338220   7.252   0.852   5.656
 9475SOL    MW438221   7.258   0.835   5.569
 9476SOL     OW38222   6.300   1.577   3.772
 9476SOL    HW238223   6.240   1.646   3.742
 9476SOL    HW338224   6.245   1.519   3.825
 9476SOL    MW438225   6.284   1.579   3.774
 9477SOL     OW38226   6.738   0.222   3.995
 9477SOL    HW238227   6.671   0.198   3.932
 9477SOL    HW338228   6.803   0.271   3.944
 9477SOL    MW438229   6.738   0.224   3.980
 9478SOL     OW38230   6.545   0.406   5.080
 9478SOL    HW238231   6.464   0.447   5.108
 9478SOL    HW338232   6.592   0.474   5.032
 9478SOL    MW438233   6.540   0.421   5.078
 9479SOL     OW38234   6.805   0.744   4.703
 9479SOL    HW238235   6.818   0.838   4.713
 9479SOL    HW338236   6.766   0.734   4.617
 9479SOL    MW438237   6.801   0.755   4.693
 9480SOL     OW38238   6.257   0.939   4.507
 9480SOL    HW238239   6.168   0.930   4.540
 9480SOL    HW338240   6.261   1.029   4.475
 9480SOL    MW438241   6.246   0.950   4.507
 9481SOL     OW38242   7.056   0.522   4.502
 9481SOL    HW238243   7.001   0.443   4.501
 9481SOL    HW338244   7.038   0.563   4.586
 9481SOL    MW438245   7.046   0.517   4.511
 9482SOL     OW38246   6.027   0.209   5.319
 9482SOL    HW238247   5.948   0.227   5.371
 9482SOL    HW338248   6.022   0.271   5.246
 9482SOL    MW438249   6.017   0.219   5.316
 9483SOL     OW38250   6.675   0.726   4.459
 9483SOL    HW238251   6.612   0.658   4.483
 9483SOL    HW338252   6.695   0.707   4.367
 9483SOL    MW438253   6.669   0.713   4.451
 9484SOL     OW38254   5.931   1.621   4.161
 9484SOL    HW238255   5.892   1.668   4.087
 9484SOL    HW338256   5.865   1.556   4.186
 9484SOL    MW438257   5.918   1.619   4.155
 9485SOL     OW38258   6.423   1.030   4.185
 9485SOL    HW238259   6.425   1.004   4.092
 9485SOL    HW338260   6.481   0.967   4.228
 9485SOL    MW438261   6.431   1.019   4.179
 9486SOL     OW38262   6.976   1.590   4.957
 9486SOL    HW238263   6.901   1.636   4.995
 9486SOL    HW338264   6.958   1.497   4.974
 9486SOL    MW438265   6.965   1.584   4.965
 9487SOL     OW38266   6.980   1.798   4.387
 9487SOL    HW238267   6.923   1.751   4.326
 9487SOL    HW338268   7.066   1.759   4.374
 9487SOL    MW438269   6.983   1.789   4.377
 9488SOL     OW38270   6.933   0.274   4.518
 9488SOL    HW238271   6.961   0.206   4.579
 9488SOL    HW338272   6.847   0.245   4.488
 9488SOL    MW438273   6.926   0.261   4.522
 9489SOL     OW38274   5.738   1.208   4.452
 9489SOL    HW238275   5.802   1.240   4.515
 9489SOL    HW338276   5.787   1.144   4.400
 9489SOL    MW438277   5.753   1.204   4.453
 9490SOL     OW38278   6.238   1.284   5.434
 9490SOL    HW238279   6.286   1.367   5.421
 9490SOL    HW338280   6.295   1.232   5.490
 9490SOL    MW438281   6.252   1.288   5.440
 9491SOL     OW38282   5.814   1.526   5.574
 9491SOL    HW238283   5.870   1.450   5.589
 9491SOL    HW338284   5.763   1.504   5.496
 9491SOL    MW438285   5.814   1.513   5.565
 9492SOL     OW38286   6.913   0.378   3.853
 9492SOL    HW238287   6.886   0.444   3.789
 9492SOL    HW338288   6.983   0.421   3.903
 9492SOL    MW438289   6.918   0.391   3.850
 9493SOL     OW38290   6.581   0.083   3.790
 9493SOL    HW238291   6.637   0.075   3.712
 9493SOL    HW338292   6.558  -0.007   3.812
 9493SOL    MW438293   6.586   0.070   3.783
 9494SOL     OW38294   7.086   0.934   3.995
 9494SOL    HW238295   7.053   1.023   3.985
 9494SOL    HW338296   7.051   0.905   4.080
 9494SOL    MW438297   7.076   0.943   4.006
 9495SOL     OW38298   6.699   1.363   5.183
 9495SOL    HW238299   6.610   1.369   5.151
 9495SOL    HW338300   6.743   1.442   5.151
 9495SOL    MW438301   6.694   1.373   5.175
 9496SOL     OW38302   5.992   0.031   5.525
 9496SOL    HW238303   5.920  -0.004   5.473
 9496SOL    HW338304   6.050   0.072   5.460
 9496SOL    MW438305   5.990   0.032   5.510
 9497SOL     OW38306   6.016   1.521   4.824
 9497SOL    HW238307   6.061   1.583   4.881
 9497SOL    HW338308   5.923   1.540   4.837
 9497SOL    MW438309   6.009   1.531   4.831
 9498SOL     OW38310   7.456   1.050   5.178
 9498SOL    HW238311   7.371   1.063   5.137
 9498SOL    HW338312   7.436   1.014   5.265
 9498SOL    MW438313   7.443   1.046   5.183
 9499SOL     OW38314   6.438   1.589   4.932
 9499SOL    HW238315   6.462   1.578   4.841
 9499SOL    HW338316   6.361   1.646   4.930
 9499SOL    MW438317   6.430   1.594   4.921
 9500SOL     OW38318   6.080   0.972   3.787
 9500SOL    HW238319   6.003   0.985   3.843
 9500SOL    HW338320   6.044   0.936   3.706
 9500SOL    MW438321   6.066   0.968   3.784
 9501SOL     OW38322   6.733   0.945   4.030
 9501SOL    HW238323   6.643   0.966   4.005
 9501SOL    HW338324   6.760   1.018   4.086
 9501SOL    MW438325   6.725   0.957   4.033
 9502SOL     OW38326   6.233   1.294   4.722
 9502SOL    HW238327   6.226   1.273   4.816
 9502SOL    HW338328   6.151   1.262   4.685
 9502SOL    MW438329   6.221   1.288   4.729
 9503SOL     OW38330   7.097   0.304   5.124
 9503SOL    HW238331   7.044   0.306   5.204
 9503SOL    HW338332   7.082   0.217   5.087
 9503SOL    MW438333   7.089   0.294   5.129
 9504SOL     OW38334   7.433   0.228   4.997
 9504SOL    HW238335   7.414   0.295   4.932
 9504SOL    HW338336   7.490   0.166   4.952
 9504SOL    MW438337   7.437   0.229   4.983
 9505SOL     OW38338   5.679   1.386   5.385
 9505SOL    HW238339   5.723   1.319   5.331
 9505SOL    HW338340   5.594   1.348   5.405
 9505SOL    MW438341   5.674   1.372   5.381
 9506SOL     OW38342   6.362   0.061   4.437
 9506SOL    HW238343   6.291   0.122   4.419
 9506SOL    HW338344   6.413   0.058   4.356
 9506SOL    MW438345   6.358   0.067   4.424
 9507SOL     OW38346   6.120   1.301   4.186
 9507SOL    HW238347   6.113   1.333   4.276
 9507SOL    HW338348   6.030   1.285   4.158
 9507SOL    MW438349   6.108   1.303   4.193
 9508SOL     OW38350   6.715   1.694   5.095
 9508SOL    HW238351   6.635   1.679   5.045
 9508SOL    HW338352   6.722   1.789   5.102
 9508SOL    MW438353   6.706   1.705   5.089
 9509SOL     OW38354   6.829   1.659   4.585
 9509SOL    HW238355   6.876   1.732   4.544
 9509SOL    HW338356   6.750   1.698   4.621
 9509SOL    MW438357   6.824   1.674   4.584
 9510SOL     OW38358   7.237   1.754   4.860
 9510SOL    HW238359   7.280   1.724   4.940
 9510SOL    HW338360   7.156   1.702   4.857
 9510SOL    MW438361   7.232   1.743   4.870
 9511SOL     OW38362   6.322   0.718   5.567
 9511SOL    HW238363   6.392   0.660   5.539
 9511SOL    HW338364   6.265   0.663   5.622
 9511SOL    MW438365   6.324   0.705   5.571
 9512SOL     OW38366   7.109   0.930   5.200
 9512SOL    HW238367   7.114   0.983   5.280
 9512SOL    HW338368   7.071   0.847   5.228
 9512SOL    MW438369   7.105   0.925   5.215
 9513SOL     OW38370   6.123   0.585   3.900
 9513SOL    HW238371   6.089   0.641   3.970
 9513SOL    HW338372   6.194   0.535   3.940
 9513SOL    MW438373   6.129   0.586   3.914
 9514SOL     OW38374   7.219   1.336   4.722
 9514SOL    HW238375   7.254   1.318   4.635
 9514SOL    HW338376   7.124   1.337   4.709
 9514SOL    MW438377   7.211   1.333   4.709
 9515SOL     OW38378   6.648   0.984   5.091
 9515SOL    HW238379   6.691   1.019   5.169
 9515SOL    HW338380   6.631   1.061   5.037
 9515SOL    MW438381   6.651   0.999   5.094
 9516SOL     OW38382   7.179   0.471   3.964
 9516SOL    HW238383   7.171   0.542   3.901
 9516SOL    HW338384   7.197   0.515   4.047
 9516SOL    MW438385   7.180   0.485   3.966
 9517SOL     OW38386   6.039   0.126   4.393
 9517SOL    HW238387   6.089   0.169   4.324
 9517SOL    HW338388   5.954   0.170   4.393
 9517SOL    MW438389   6.036   0.139   4.384
 9518SOL     OW38390   5.798   1.188   5.253
 9518SOL    HW238391   5.826   1.141   5.331
 9518SOL    HW338392   5.719   1.143   5.224
 9518SOL    MW438393   5.791   1.177   5.259
 9519SOL     OW38394   6.306   0.515   5.220
 9519SOL    HW238395   6.278   0.603   5.244
 9519SOL    HW338396   6.275   0.459   5.291
 9519SOL    MW438397   6.298   0.518   5.232
 9520SOL     OW38398   6.848   0.733   3.939
 9520SOL    HW238399   6.895   0.751   3.858
 9520SOL    HW338400   6.814   0.817   3.967
 9520SOL    MW438401   6.850   0.747   3.932
 9521SOL     OW38402   5.961   0.911   4.433
 9521SOL    HW238403   6.019   0.967   4.381
 9521SOL    HW338404   6.005   0.826   4.435
 9521SOL    MW438405   5.974   0.908   4.426
 9522SOL     OW38406   7.101   0.263   4.270
 9522SOL    HW238407   7.023   0.213   4.295
 9522SOL    HW338408   7.072   0.354   4.270
 9522SOL    MW438409   7.087   0.267   4.273
 9523SOL     OW38410   6.687   0.225   4.429
 9523SOL    HW238411   6.707   0.300   4.373
 9523SOL    HW338412   6.667   0.264   4.514
 9523SOL    MW438413   6.688   0.241   4.433
 9524SOL     OW38414   6.583   1.475   3.761
 9524SOL    HW238415   6.610   1.553   3.713
 9524SOL    HW338416   6.490   1.490   3.780
 9524SOL    MW438417   6.574   1.488   3.757
 9525SOL     OW38418   7.447   0.998   5.448
 9525SOL    HW238419   7.360   0.978   5.484
 9525SOL    HW338420   7.501   0.924   5.473
 9525SOL    MW438421   7.442   0.987   5.456
 9526SOL     OW38422   5.668   1.511   4.605
 9526SOL    HW238423   5.700   1.515   4.696
 9526SOL    HW338424   5.573   1.519   4.613
 9526SOL    MW438425   5.660   1.514   4.618
 9527SOL     OW38426   5.623   0.637   4.152
 9527SOL    HW238427   5.563   0.609   4.222
 9527SOL    HW338428   5.697   0.577   4.158
 9527SOL    MW438429   5.625   0.626   4.161
 9528SOL     OW38430   7.191   1.849   5.586
 9528SOL    HW238431   7.236   1.773   5.551
 9528SOL    HW338432   7.229   1.862   5.673
 9528SOL    MW438433   7.201   1.842   5.592
 9529SOL     OW38434   6.791   1.368   4.312
 9529SOL    HW238435   6.814   1.319   4.390
 9529SOL    HW338436   6.872   1.410   4.284
 9529SOL    MW438437   6.804   1.368   4.319
 9530SOL     OW38438   6.049   0.376   5.041
 9530SOL    HW238439   6.082   0.457   5.081
 9530SOL    HW338440   6.022   0.402   4.953
 9530SOL    MW438441   6.048   0.390   5.035
 9531SOL     OW38442   6.003   0.343   4.777
 9531SOL    HW238443   6.033   0.257   4.748
 9531SOL    HW338444   5.908   0.336   4.780
 9531SOL    MW438445   5.995   0.332   4.775
 9532SOL     OW38446   6.832   0.552   5.468
 9532SOL    HW238447   6.884   0.487   5.421
 9532SOL    HW338448   6.790   0.603   5.398
 9532SOL    MW438449   6.833   0.549   5.451
 9533SOL     OW38450   6.931   0.347   5.329
 9533SOL    HW238451   6.838   0.331   5.316
 9533SOL    HW338452   6.957   0.285   5.397
 9533SOL    MW438453   6.921   0.337   5.336
 9534SOL     OW38454   6.146   0.121   4.668
 9534SOL    HW238455   6.156   0.030   4.694
 9534SOL    HW338456   6.102   0.117   4.583
 9534SOL    MW438457   6.142   0.109   4.660
 9535SOL     OW38458   6.240   1.736   5.214
 9535SOL    HW238459   6.157   1.721   5.259
 9535SOL    HW338460   6.299   1.669   5.249
 9535SOL    MW438461   6.238   1.726   5.224
 9536SOL     OW38462   7.297   0.443   4.839
 9536SOL    HW238463   7.230   0.476   4.899
 9536SOL    HW338464   7.340   0.521   4.805
 9536SOL    MW438465   7.295   0.458   4.843
 9537SOL     OW38466   7.475   1.163   4.809
 9537SOL    HW238467   7.468   1.103   4.734
 9537SOL    HW338468   7.401   1.223   4.798
 9537SOL    MW438469   7.465   1.163   4.798
 9538SOL     OW38470   6.857   1.025   4.727
 9538SOL    HW238471   6.871   0.997   4.818
 9538SOL    HW338472   6.943   1.056   4.699
 9538SOL    MW438473   6.870   1.026   4.736
 9539SOL     OW38474   6.940   0.520   5.006
 9539SOL    HW238475   6.961   0.521   4.913
 9539SOL    HW338476   6.985   0.442   5.039
 9539SOL    MW438477   6.947   0.510   4.998
 9540SOL     OW38478   7.433   0.651   5.548
 9540SOL    HW238479   7.470   0.596   5.617
 9540SOL    HW338480   7.458   0.608   5.466
 9540SOL    MW438481   7.440   0.639   5.547
 9541SOL     OW38482   6.980   0.949   5.600
 9541SOL    HW238483   7.046   0.897   5.554
 9541SOL    HW338484   7.000   0.936   5.693
 9541SOL    MW438485   6.991   0.940   5.607
 9542SOL     OW38486   6.991   0.810   4.226
 9542SOL    HW238487   6.906   0.780   4.196
 9542SOL    HW338488   6.983   0.817   4.321
 9542SOL    MW438489   6.979   0.808   4.235
 9543SOL     OW38490   6.067   1.273   4.957
 9543SOL    HW238491   6.079   1.300   5.048
 9543SOL    HW338492   6.048   1.354   4.910
 9543SOL    MW438493   6.066   1.288   4.962
 9544SOL     OW38494   6.351   0.253   4.780
 9544SOL    HW238495   6.324   0.255   4.871
 9544SOL    HW338496   6.281   0.205   4.735
 9544SOL    MW438497   6.339   0.249   4.787
 9545SOL     OW38498   6.205   1.745   4.942
 9545SOL    HW238499   6.257   1.822   4.919
 9545SOL    HW338500   6.214   1.737   5.037
 9545SOL    MW438501   6.214   1.752   4.953
 9546SOL     OW38502   7.107   1.330   5.174
 9546SOL    HW238503   7.092   1.259   5.237
 9546SOL    HW338504   7.153   1.288   5.102
 9546SOL    MW438505   7.113   1.314   5.174
 9547SOL     OW38506   6.181   1.061   5.291
 9547SOL    HW238507   6.218   1.066   5.203
 9547SOL    HW338508   6.220   1.134   5.338
 9547SOL    MW438509   6.191   1.071   5.286
 9548SOL     OW38510   6.361   1.104   5.103
 9548SOL    HW238511   6.420   1.050   5.156
 9548SOL    HW338512   6.376   1.076   5.013
 9548SOL    MW438513   6.371   1.093   5.099
 9549SOL     OW38514   6.364   0.476   3.952
 9549SOL    HW238515   6.437   0.525   3.915
 9549SOL    HW338516   6.380   0.385   3.926
 9549SOL    MW438517   6.376   0.471   3.945
 9550SOL     OW38518   7.172   1.593   5.275
 9550SOL    HW238519   7.214   1.578   5.360
 9550SOL    HW338520   7.163   1.506   5.237
 9550SOL    MW438521   7.176   1.581   5.282
 9551SOL     OW38522   6.832   0.072   4.866
 9551SOL    HW238523   6.887   0.081   4.788
 9551SOL    HW338524   6.887   0.106   4.937
 9551SOL    MW438525   6.846   0.077   4.865
 9552SOL     OW38526   5.839   0.985   4.050
 9552SOL    HW238527   5.776   1.001   3.979
 9552SOL    HW338528   5.786   0.948   4.121
 9552SOL    MW438529   5.824   0.982   4.050
 9553SOL     OW38530   6.195   1.339   3.909
 9553SOL    HW238531   6.210   1.315   4.001
 9553SOL    HW338532   6.103   1.317   3.893
 9553SOL    MW438533   6.185   1.332   3.919
 9554SOL     OW38534   6.734   1.570   4.061
 9554SOL    HW238535   6.742   1.488   4.012
 9554SOL    HW338536   6.653   1.609   4.028
 9554SOL    MW438537   6.724   1.565   4.051
 9555SOL     OW38538   5.993   1.728   4.630
 9555SOL    HW238539   5.997   1.639   4.665
 9555SOL    HW338540   6.019   1.719   4.539
 9555SOL    MW438541   5.996   1.716   4.622
 9556SOL     OW38542   6.610   1.206   4.873
 9556SOL    HW238543   6.542   1.140   4.889
 9556SOL    HW338544   6.628   1.200   4.780
 9556SOL    MW438545   6.603   1.197   4.864
 9557SOL     OW38546   5.699   1.481   5.124
 9557SOL    HW238547   5.689   1.439   5.210
 9557SOL    HW338548   5.620   1.534   5.114
 9557SOL    MW438549   5.688   1.482   5.135
 9558SOL     OW38550   6.603   0.345   4.694
 9558SOL    HW238551   6.533   0.297   4.739
 9558SOL    HW338552   6.635   0.408   4.758
 9558SOL    MW438553   6.598   0.347   4.708
 9559SOL     OW38554   6.254   0.781   5.314
 9559SOL    HW238555   6.247   0.876   5.302
 9559SOL    HW338556   6.263   0.770   5.409
 9559SOL    MW438557   6.255   0.793   5.324
 9560SOL     OW38558   5.975   1.296   5.572
 9560SOL    HW238559   6.047   1.298   5.509
 9560SOL    HW338560   5.945   1.205   5.571
 9560SOL    MW438561   5.980   1.285   5.564
 9561SOL     OW38562   7.059   0.059   5.039
 9561SOL    HW238563   7.130   0.005   5.003
 9561SOL    HW338564   7.058   0.038   5.132
 9561SOL    MW438565   7.068   0.050   5.047
 9562SOL     OW38566   7.259   1.589   5.523
 9562SOL    HW238567   7.232   1.586   5.614
 9562SOL    HW338568   7.355   1.593   5.526
 9562SOL    MW438569   7.269   1.589   5.535
 9563SOL     OW38570   6.070   0.451   4.507
 9563SOL    HW238571   6.141   0.399   4.470
 9563SOL    HW338572   6.056   0.416   4.594
 9563SOL    MW438573   6.078   0.440   4.514
 9564SOL     OW38574   5.625   1.786   5.579
 9564SOL    HW238575   5.675   1.764   5.501
 9564SOL    HW338576   5.633   1.881   5.587
 9564SOL    MW438577   5.633   1.795   5.570
 9565SOL     OW38578   6.386   1.544   4.583
 9565SOL    HW238579   6.314   1.481   4.596
 9565SOL    HW338580   6.347   1.629   4.601
 9565SOL    MW438581   6.370   1.547   4.586
 9566SOL     OW38582   6.706   0.392   4.231
 9566SOL    HW238583   6.728   0.329   4.163
 9566SOL    HW338584   6.611   0.384   4.242
 9566SOL    MW438585   6.696   0.383   4.223
 9567SOL     OW38586   5.791   0.082   4.163
 9567SOL    HW238587   5.862   0.103   4.102
 9567SOL    HW338588   5.745   0.010   4.121
 9567SOL    MW438589   5.795   0.076   4.149
 9568SOL     OW38590   5.622   0.549   5.306
 9568SOL    HW238591   5.686   0.615   5.281
 9568SOL    HW338592   5.541   0.576   5.263
 9568SOL    MW438593   5.620   0.561   5.298
 9569SOL     OW38594   7.360   1.456   4.263
 9569SOL    HW238595   7.330   1.389   4.324
 9569SOL    HW338596   7.454   1.462   4.277
 9569SOL    MW438597   7.368   1.448   4.273
 9570SOL     OW38598   6.916   1.133   4.193
 9570SOL    HW238599   6.888   1.219   4.226
 9570SOL    HW338600   6.944   1.149   4.103
 9570SOL    MW438601   6.916   1.147   4.185
 9571SOL     OW38602   6.578   0.053   4.246
 9571SOL    HW238603   6.615   0.112   4.311
 9571SOL    HW338604   6.555   0.109   4.172
 9571SOL    MW438605   6.579   0.068   4.245
 9572SOL     OW38606   7.431   0.935   4.668
 9572SOL    HW238607   7.422   0.967   4.579
 9572SOL    HW338608   7.384   0.851   4.668
 9572SOL    MW438609   7.424   0.928   4.658
 9573SOL     OW38610   5.807   0.775   5.247
 9573SOL    HW238611   5.828   0.844   5.185
 9573SOL    HW338612   5.887   0.722   5.252
 9573SOL    MW438613   5.820   0.776   5.241
 9574SOL     OW38614   7.343   0.866   4.369
 9574SOL    HW238615   7.437   0.855   4.357
 9574SOL    HW338616   7.319   0.938   4.310
 9574SOL    MW438617   7.353   0.874   4.360
 9575SOL     OW38618   5.792   0.790   5.514
 9575SOL    HW238619   5.718   0.734   5.540
 9575SOL    HW338620   5.787   0.793   5.419
 9575SOL    MW438621   5.781   0.783   5.504
 9576SOL     OW38622   5.999   0.744   4.142
 9576SOL    HW238623   5.999   0.839   4.127
 9576SOL    HW338624   6.076   0.728   4.196
 9576SOL    MW438625   6.009   0.755   4.147
 9577SOL     OW38626   6.775   0.603   5.206
 9577SOL    HW238627   6.811   0.576   5.122
 9577SOL    HW338628   6.688   0.637   5.185
 9577SOL    MW438629   6.769   0.604   5.193
 9578SOL     OW38630   5.758   0.475   4.431
 9578SOL    HW238631   5.820   0.482   4.504
 9578SOL    HW338632   5.758   0.382   4.408
 9578SOL    MW438633   5.766   0.464   4.438
 9579SOL     OW38634   7.305   1.815   3.963
 9579SOL    HW238635   7.372   1.848   3.903
 9579SOL    HW338636   7.262   1.894   3.997
 9579SOL    MW438637   7.307   1.830   3.959
 9580SOL     OW38638   6.440   0.736   4.915
 9580SOL    HW238639   6.398   0.654   4.891
 9580SOL    HW338640   6.441   0.735   5.011
 9580SOL    MW438641   6.433   0.725   4.924
 9581SOL     OW38642   7.111   1.869   5.314
 9581SOL    HW238643   7.114   1.775   5.297
 9581SOL    HW338644   7.134   1.877   5.406
 9581SOL    MW438645   7.114   1.857   5.324
 9582SOL     OW38646   6.244   0.206   5.020
 9582SOL    HW238647   6.175   0.269   5.041
 9582SOL    HW338648   6.271   0.170   5.105
 9582SOL    MW438649   6.238   0.209   5.033
 9583SOL     OW38650   5.627   1.047   3.889
 9583SOL    HW238651   5.596   1.112   3.952
 9583SOL    HW338652   5.576   0.969   3.908
 9583SOL    MW438653   5.617   1.044   3.899
 9584SOL     OW38654   7.039   0.059   4.637
 9584SOL    HW238655   7.127   0.068   4.674
 9584SOL    HW338656   7.049   0.000   4.563
 9584SOL    MW438657   7.053   0.053   4.631
 9585SOL     OW38658   7.071   0.798   4.481
 9585SOL    HW238659   7.151   0.813   4.430
 9585SOL    HW338660   7.064   0.703   4.487
 9585SOL    MW438661   7.080   0.787   4.476
 9586SOL     OW38662   6.211   1.847   3.831
 9586SOL    HW238663   6.116   1.847   3.823
 9586SOL    HW338664   6.227   1.793   3.909
 9586SOL    MW438665   6.201   1.841   3.840
 9587SOL     OW38666   6.521   0.724   5.178
 9587SOL    HW238667   6.590   0.791   5.175
 9587SOL    HW338668   6.454   0.762   5.234
 9587SOL    MW438669   6.522   0.737   5.185
 9588SOL     OW38670   5.939   1.024   5.426
 9588SOL    HW238671   5.893   0.940   5.428
 9588SOL    HW338672   5.996   1.018   5.350
 9588SOL    MW438673   5.941   1.012   5.418
 9589SOL     OW38674   7.056   0.667   3.747
 9589SOL    HW238675   6.984   0.643   3.689
 9589SOL    HW338676   7.122   0.704   3.689
 9589SOL    MW438677   7.055   0.669   3.732
 9590SOL     OW38678   6.190   1.399   4.427
 9590SOL    HW238679   6.255   1.332   4.448
 9590SOL    HW338680   6.242   1.476   4.404
 9590SOL    MW438681   6.205   1.401   4.426
 9591SOL     OW38682   6.451   0.564   4.557
 9591SOL    HW238683   6.391   0.582   4.629
 9591SOL    HW338684   6.485   0.476   4.576
 9591SOL    MW438685   6.447   0.554   4.570
 9592SOL     OW38686   7.392   0.063   5.226
 9592SOL    HW238687   7.313   0.109   5.254
 9592SOL    HW338688   7.427   0.117   5.155
 9592SOL    MW438689   7.386   0.076   5.220
 9593SOL     OW38690   6.676   1.147   4.576
 9593SOL    HW238691   6.768   1.128   4.594
 9593SOL    HW338692   6.649   1.077   4.516
 9593SOL    MW438693   6.684   1.135   4.570
 9594SOL     OW38694   6.469   0.967   3.931
 9594SOL    HW238695   6.455   0.879   3.896
 9594SOL    HW338696   6.420   1.024   3.872
 9594SOL    MW438697   6.461   0.962   3.919
 9595SOL     OW38698   6.950   1.385   4.672
 9595SOL    HW238699   6.923   1.469   4.637
 9595SOL    HW338700   6.910   1.380   4.759
 9595SOL    MW438701   6.943   1.394   4.678
 9596SOL     OW38702   6.869   1.333   4.940
 9596SOL    HW238703   6.880   1.300   5.029
 9596SOL    HW338704   6.788   1.292   4.909
 9596SOL    MW438705   6.859   1.325   4.946
 9597SOL     OW38706   5.882   0.691   4.710
 9597SOL    HW238707   5.832   0.690   4.791
 9597SOL    HW338708   5.902   0.783   4.694
 9597SOL    MW438709   5.878   0.703   4.718
 9598SOL     OW38710   6.949   1.455   5.472
 9598SOL    HW238711   6.949   1.549   5.488
 9598SOL    HW338712   6.994   1.445   5.388
 9598SOL    MW438713   6.955   1.465   5.463
 9599SOL     OW38714   7.188   0.173   4.033
 9599SOL    HW238715   7.181   0.177   4.128
 9599SOL    HW338716   7.200   0.264   4.006
 9599SOL    MW438717   7.189   0.186   4.041
 9600SOL     OW38718   6.477   0.736   4.147
 9600SOL    HW238719   6.457   0.722   4.054
 9600SOL    HW338720   6.570   0.715   4.154
 9600SOL    MW438721   6.487   0.731   4.136
 9601SOL     OW38722   5.804   0.359   5.451
 9601SOL    HW238723   5.761   0.418   5.388
 9601SOL    HW338724   5.872   0.414   5.491
 9601SOL    MW438725   5.808   0.374   5.448
 9602SOL     OW38726   6.916   0.979   4.996
 9602SOL    HW238727   6.979   0.976   5.069
 9602SOL    HW338728   6.832   0.997   5.038
 9602SOL    MW438729   6.912   0.981   5.011
 9603SOL     OW38730   6.460   1.694   4.185
 9603SOL    HW238731   6.518   1.765   4.212
 9603SOL    HW338732   6.483   1.622   4.243
 9603SOL    MW438733   6.471   1.694   4.196
 9604SOL     OW38734   7.255   0.156   4.775
 9604SOL    HW238735   7.300   0.074   4.794
 9604SOL    HW338736   7.275   0.212   4.851
 9604SOL    MW438737   7.265   0.152   4.787
 9605SOL     OW38738   5.703  -0.001   4.874
 9605SOL    HW238739   5.694   0.000   4.779
 9605SOL    HW338740   5.797   0.011   4.889
 9605SOL    MW438741   5.715   0.002   4.865
 9606SOL     OW38742   7.340   1.192   4.494
 9606SOL    HW238743   7.319   1.138   4.417
 9606SOL    HW338744   7.436   1.190   4.498
 9606SOL    MW438745   7.349   1.185   4.483
 9607SOL     OW38746   6.032   1.337   5.237
 9607SOL    HW238747   5.953   1.287   5.260
 9607SOL    HW338748   6.102   1.296   5.287
 9607SOL    MW438749   6.030   1.325   5.247
 9608SOL     OW38750   5.916   0.126   3.920
 9608SOL    HW238751   5.845   0.181   3.888
 9608SOL    HW338752   5.958   0.092   3.841
 9608SOL    MW438753   5.912   0.128   3.906
 9609SOL     OW38754   7.040   0.623   4.756
 9609SOL    HW238755   6.963   0.669   4.722
 9609SOL    HW338756   7.097   0.692   4.790
 9609SOL    MW438757   7.037   0.638   4.756
 9610SOL     OW38758   5.672   0.225   3.769
 9610SOL    HW238759   5.639   0.304   3.813
 9610SOL    HW338760   5.727   0.258   3.698
 9610SOL    MW438761   5.675   0.239   3.766
 9611SOL     OW38762   5.706   1.482   3.958
 9611SOL    HW238763   5.723   1.566   4.000
 9611SOL    HW338764   5.741   1.491   3.870
 9611SOL    MW438765   5.711   1.495   3.952
 9612SOL     OW38766   6.978   1.571   4.175
 9612SOL    HW238767   7.041   1.561   4.104
 9612SOL    HW338768   6.895   1.591   4.130
 9612SOL    MW438769   6.975   1.572   4.160
 9613SOL     OW38770   7.341   0.839   5.862
 9613SOL    HW238771   7.382   0.781   5.927
 9613SOL    HW338772   7.248   0.831   5.879
 9613SOL    MW438773   7.335   0.831   5.872
 9614SOL     OW38774   6.135   1.022   6.091
 9614SOL    HW238775   6.225   0.997   6.075
 9614SOL    HW338776   6.131   1.115   6.068
 9614SOL    MW438777   6.147   1.031   6.086
 9615SOL     OW38778   7.251   1.725   6.233
 9615SOL    HW238779   7.263   1.671   6.311
 9615SOL    HW338780   7.288   1.673   6.162
 9615SOL    MW438781   7.257   1.710   6.234
 9616SOL     OW38782   6.419   0.478   6.104
 9616SOL    HW238783   6.394   0.566   6.132
 9616SOL    HW338784   6.416   0.481   6.008
 9616SOL    MW438785   6.415   0.490   6.096
 9617SOL     OW38786   5.861   0.506   6.032
 9617SOL    HW238787   5.893   0.594   6.014
 9617SOL    HW338788   5.849   0.504   6.127
 9617SOL    MW438789   5.864   0.518   6.044
 9618SOL     OW38790   6.260   0.261   6.119
 9618SOL    HW238791   6.318   0.337   6.121
 9618SOL    HW338792   6.195   0.282   6.052
 9618SOL    MW438793   6.259   0.273   6.110
 9619SOL     OW38794   6.347   1.188   6.294
 9619SOL    HW238795   6.427   1.191   6.346
 9619SOL    HW338796   6.375   1.155   6.208
 9619SOL    MW438797   6.361   1.184   6.289
 9620SOL     OW38798   6.124   0.692   6.285
 9620SOL    HW238799   6.109   0.612   6.336
 9620SOL    HW338800   6.206   0.727   6.319
 9620SOL    MW438801   6.132   0.684   6.297
 9621SOL     OW38802   6.012   0.932   6.566
 9621SOL    HW238803   5.967   0.939   6.482
 9621SOL    HW338804   5.992   1.015   6.610
 9621SOL    MW438805   6.004   0.944   6.560
 9622SOL     OW38806   5.709   1.778   6.441
 9622SOL    HW238807   5.798   1.770   6.476
 9622SOL    HW338808   5.673   1.690   6.446
 9622SOL    MW438809   5.716   1.765   6.446
 9623SOL     OW38810   6.974   1.170   5.810
 9623SOL    HW238811   6.892   1.206   5.776
 9623SOL    HW338812   7.042   1.213   5.759
 9623SOL    MW438813   6.972   1.180   5.798
 9624SOL     OW38814   6.535   0.949   6.286
 9624SOL    HW238815   6.449   0.936   6.326
 9624SOL    HW338816   6.588   0.876   6.318
 9624SOL    MW438817   6.531   0.938   6.295
 9625SOL     OW38818   6.526   1.311   6.003
 9625SOL    HW238819   6.503   1.373   6.071
 9625SOL    HW338820   6.483   1.229   6.029
 9625SOL    MW438821   6.518   1.307   6.014
 9626SOL     OW38822   7.399   0.312   6.459
 9626SOL    HW238823   7.336   0.292   6.528
 9626SOL    HW338824   7.389   0.241   6.396
 9626SOL    MW438825   7.389   0.299   6.460
 9627SOL     OW38826   6.023   0.284   5.971
 9627SOL    HW238827   5.997   0.246   5.887
 9627SOL    HW338828   5.960   0.354   5.987
 9627SOL    MW438829   6.012   0.287   5.962
 9628SOL     OW38830   5.858   1.245   6.008
 9628SOL    HW238831   5.806   1.313   5.964
 9628SOL    HW338832   5.855   1.171   5.948
 9628SOL    MW438833   5.850   1.244   5.995
 9629SOL     OW38834   6.520   1.708   5.786
 9629SOL    HW238835   6.475   1.724   5.869
 9629SOL    HW338836   6.451   1.673   5.728
 9629SOL    MW438837   6.506   1.705   5.788
 9630SOL     OW38838   7.455   0.481   5.761
 9630SOL    HW238839   7.364   0.483   5.789
 9630SOL    HW338840   7.500   0.543   5.819
 9630SOL    MW438841   7.448   0.489   5.771
 9631SOL     OW38842   7.200   1.084   6.111
 9631SOL    HW238843   7.110   1.084   6.146
 9631SOL    HW338844   7.193   1.130   6.028
 9631SOL    MW438845   7.187   1.090   6.105
 9632SOL     OW38846   6.727   0.665   6.072
 9632SOL    HW238847   6.753   0.689   5.983
 9632SOL    HW338848   6.709   0.572   6.068
 9632SOL    MW438849   6.729   0.657   6.059
 9633SOL     OW38850   7.392   1.285   5.923
 9633SOL    HW238851   7.348   1.326   5.998
 9633SOL    HW338852   7.449   1.353   5.888
 9633SOL    MW438853   7.394   1.299   5.928
 9634SOL     OW38854   6.048   1.701   6.241
 9634SOL    HW238855   6.080   1.789   6.219
 9634SOL    HW338856   6.001   1.673   6.163
 9634SOL    MW438857   6.047   1.709   6.228
 9635SOL     OW38858   7.432   0.063   6.290
 9635SOL    HW238859   7.486   0.014   6.352
 9635SOL    HW338860   7.375  -0.003   6.251
 9635SOL    MW438861   7.432   0.047   6.292
 9636SOL     OW38862   5.764   1.761   5.818
 9636SOL    HW238863   5.793   1.851   5.810
 9636SOL    HW338864   5.714   1.744   5.739
 9636SOL    MW438865   5.762   1.769   5.807
 9637SOL     OW38866   7.168   1.569   5.789
 9637SOL    HW238867   7.216   1.638   5.835
 9637SOL    HW338868   7.089   1.613   5.758
 9637SOL    MW438869   7.163   1.583   5.792
 9638SOL     OW38870   6.566   0.694   5.733
 9638SOL    HW238871   6.568   0.641   5.654
 9638SOL    HW338872   6.654   0.731   5.739
 9638SOL    MW438873   6.578   0.693   5.722
 9639SOL     OW38874   7.180   0.620   6.069
 9639SOL    HW238875   7.219   0.620   6.156
 9639SOL    HW338876   7.121   0.696   6.069
 9639SOL    MW438877   7.177   0.631   6.080
 9640SOL     OW38878   7.367   0.506   6.235
 9640SOL    HW238879   7.456   0.475   6.252
 9640SOL    HW338880   7.310   0.446   6.283
 9640SOL    MW438881   7.370   0.494   6.244
 9641SOL     OW38882   5.793   0.220   6.264
 9641SOL    HW238883   5.784   0.160   6.190
 9641SOL    HW338884   5.726   0.191   6.327
 9641SOL    MW438885   5.783   0.207   6.262
 9642SOL     OW38886   6.736   1.313   5.825
 9642SOL    HW238887   6.686   1.315   5.907
 9642SOL    HW338888   6.670   1.331   5.757
 9642SOL    MW438889   6.722   1.315   5.827
 9643SOL     OW38890   6.199   1.731   5.933
 9643SOL    HW238891   6.120   1.689   5.966
 9643SOL    HW338892   6.265   1.714   6.000
 9643SOL    MW438893   6.198   1.723   5.946
 9644SOL     OW38894   6.335   1.146   5.640
 9644SOL    HW238895   6.257   1.092   5.627
 9644SOL    HW338896   6.306   1.219   5.693
 9644SOL    MW438897   6.321   1.148   5.645
 9645SOL     OW38898   6.916   1.662   5.708
 9645SOL    HW238899   6.842   1.625   5.758
 9645SOL    HW338900   6.924   1.752   5.741
 9645SOL    MW438901   6.907   1.669   5.720
 9646SOL     OW38902   7.140   1.336   5.650
 9646SOL    HW238903   7.087   1.385   5.586
 9646SOL    HW338904   7.171   1.402   5.711
 9646SOL    MW438905   7.138   1.350   5.648
 9647SOL     OW38906   6.365   0.225   5.705
 9647SOL    HW238907   6.313   0.145   5.693
 9647SOL    HW338908   6.452   0.202   5.673
 9647SOL    MW438909   6.368   0.211   5.699
 9648SOL     OW38910   5.726   0.865   6.162
 9648SOL    HW238911   5.817   0.880   6.189
 9648SOL    HW338912   5.729   0.786   6.108
 9648SOL    MW438913   5.738   0.857   6.160
 9649SOL     OW38914   6.353   1.797   6.536
 9649SOL    HW238915   6.442   1.812   6.566
 9649SOL    HW338916   6.348   1.844   6.452
 9649SOL    MW438917   6.363   1.805   6.529
 9650SOL     OW38918   5.734   1.477   6.201
 9650SOL    HW238919   5.706   1.516   6.283
 9650SOL    HW338920   5.754   1.386   6.223
 9650SOL    MW438921   5.732   1.469   6.214
 9651SOL     OW38922   6.567   1.520   6.236
 9651SOL    HW238923   6.650   1.474   6.220
 9651SOL    HW338924   6.557   1.519   6.332
 9651SOL    MW438925   6.577   1.513   6.246
 9652SOL     OW38926   6.300   1.577   5.641
 9652SOL    HW238927   6.240   1.646   5.611
 9652SOL    HW338928   6.245   1.519   5.694
 9652SOL    MW438929   6.284   1.579   5.643
 9653SOL     OW38930   6.738   0.222   5.864
 9653SOL    HW238931   6.671   0.198   5.801
 9653SOL    HW338932   6.803   0.271   5.813
 9653SOL    MW438933   6.738   0.224   5.849
 9654SOL     OW38934   6.257   0.939   6.376
 9654SOL    HW238935   6.168   0.930   6.409
 9654SOL    HW338936   6.261   1.029   6.344
 9654SOL    MW438937   6.246   0.950   6.376
 9655SOL     OW38938   7.056   0.522   6.371
 9655SOL    HW238939   7.001   0.443   6.370
 9655SOL    HW338940   7.038   0.563   6.455
 9655SOL    MW438941   7.046   0.517   6.380
 9656SOL     OW38942   6.675   0.726   6.328
 9656SOL    HW238943   6.612   0.658   6.352
 9656SOL    HW338944   6.695   0.707   6.236
 9656SOL    MW438945   6.669   0.713   6.320
 9657SOL     OW38946   5.931   1.621   6.030
 9657SOL    HW238947   5.892   1.668   5.956
 9657SOL    HW338948   5.865   1.556   6.055
 9657SOL    MW438949   5.918   1.619   6.024
 9658SOL     OW38950   6.423   1.030   6.054
 9658SOL    HW238951   6.425   1.004   5.961
 9658SOL    HW338952   6.481   0.967   6.097
 9658SOL    MW438953   6.431   1.019   6.048
 9659SOL     OW38954   6.980   1.798   6.256
 9659SOL    HW238955   6.923   1.751   6.195
 9659SOL    HW338956   7.066   1.759   6.243
 9659SOL    MW438957   6.983   1.789   6.246
 9660SOL     OW38958   6.933   0.274   6.387
 9660SOL    HW238959   6.961   0.206   6.448
 9660SOL    HW338960   6.847   0.245   6.357
 9660SOL    MW438961   6.926   0.261   6.391
 9661SOL     OW38962   5.738   1.208   6.321
 9661SOL    HW238963   5.802   1.240   6.384
 9661SOL    HW338964   5.787   1.144   6.269
 9661SOL    MW438965   5.753   1.204   6.322
 9662SOL     OW38966   6.913   0.378   5.722
 9662SOL    HW238967   6.886   0.444   5.658
 9662SOL    HW338968   6.983   0.421   5.772
 9662SOL    MW438969   6.918   0.391   5.719
 9663SOL     OW38970   6.581   0.083   5.659
 9663SOL    HW238971   6.637   0.075   5.581
 9663SOL    HW338972   6.558  -0.007   5.681
 9663SOL    MW438973   6.586   0.070   5.652
 9664SOL     OW38974   7.086   0.934   5.864
 9664SOL    HW238975   7.053   1.023   5.854
 9664SOL    HW338976   7.051   0.905   5.949
 9664SOL    MW438977   7.076   0.943   5.875
 9665SOL     OW38978   6.080   0.972   5.656
 9665SOL    HW238979   6.003   0.985   5.712
 9665SOL    HW338980   6.044   0.936   5.575
 9665SOL    MW438981   6.066   0.968   5.653
 9666SOL     OW38982   6.733   0.945   5.899
 9666SOL    HW238983   6.643   0.966   5.874
 9666SOL    HW338984   6.760   1.018   5.955
 9666SOL    MW438985   6.725   0.957   5.902
 9667SOL     OW38986   6.362   0.061   6.306
 9667SOL    HW238987   6.291   0.122   6.288
 9667SOL    HW338988   6.413   0.058   6.225
 9667SOL    MW438989   6.358   0.067   6.293
 9668SOL     OW38990   6.120   1.301   6.055
 9668SOL    HW238991   6.113   1.333   6.145
 9668SOL    HW338992   6.030   1.285   6.027
 9668SOL    MW438993   6.108   1.303   6.062
 9669SOL     OW38994   6.829   1.659   6.454
 9669SOL    HW238995   6.876   1.732   6.413
 9669SOL    HW338996   6.750   1.698   6.490
 9669SOL    MW438997   6.824   1.674   6.453
 9670SOL     OW38998   6.123   0.585   5.769
 9670SOL    HW238999   6.089   0.641   5.839
 9670SOL    HW339000   6.194   0.535   5.809
 9670SOL    MW439001   6.129   0.586   5.783
 9671SOL     OW39002   7.179   0.471   5.833
 9671SOL    HW239003   7.171   0.542   5.770
 9671SOL    HW339004   7.197   0.515   5.916
 9671SOL    MW439005   7.180   0.485   5.835
 9672SOL     OW39006   6.039   0.126   6.262
 9672SOL    HW239007   6.089   0.169   6.193
 9672SOL    HW339008   5.954   0.170   6.262
 9672SOL    MW439009   6.036   0.139   6.253
 9673SOL     OW39010   6.848   0.733   5.808
 9673SOL    HW239011   6.895   0.751   5.727
 9673SOL    HW339012   6.814   0.817   5.836
 9673SOL    MW439013   6.850   0.747   5.801
 9674SOL     OW39014   5.961   0.911   6.302
 9674SOL    HW239015   6.019   0.967   6.250
 9674SOL    HW339016   6.005   0.826   6.304
 9674SOL    MW439017   5.974   0.908   6.295
 9675SOL     OW39018   7.101   0.263   6.139
 9675SOL    HW239019   7.023   0.213   6.164
 9675SOL    HW339020   7.072   0.354   6.139
 9675SOL    MW439021   7.087   0.267   6.142
 9676SOL     OW39022   6.687   0.225   6.298
 9676SOL    HW239023   6.707   0.300   6.242
 9676SOL    HW339024   6.667   0.264   6.383
 9676SOL    MW439025   6.688   0.241   6.302
 9677SOL     OW39026   6.583   1.475   5.630
 9677SOL    HW239027   6.610   1.553   5.582
 9677SOL    HW339028   6.490   1.490   5.649
 9677SOL    MW439029   6.574   1.488   5.626
 9678SOL     OW39030   5.623   0.637   6.021
 9678SOL    HW239031   5.563   0.609   6.091
 9678SOL    HW339032   5.697   0.577   6.027
 9678SOL    MW439033   5.625   0.626   6.030
 9679SOL     OW39034   6.791   1.368   6.181
 9679SOL    HW239035   6.814   1.319   6.259
 9679SOL    HW339036   6.872   1.410   6.153
 9679SOL    MW439037   6.804   1.368   6.188
 9680SOL     OW39038   6.146   0.121   6.537
 9680SOL    HW239039   6.156   0.030   6.563
 9680SOL    HW339040   6.102   0.117   6.452
 9680SOL    MW439041   6.142   0.109   6.529
 9681SOL     OW39042   6.991   0.810   6.095
 9681SOL    HW239043   6.906   0.780   6.065
 9681SOL    HW339044   6.983   0.817   6.190
 9681SOL    MW439045   6.979   0.808   6.104
 9682SOL     OW39046   6.364   0.476   5.821
 9682SOL    HW239047   6.437   0.525   5.784
 9682SOL    HW339048   6.380   0.385   5.795
 9682SOL    MW439049   6.376   0.471   5.814
 9683SOL     OW39050   5.839   0.985   5.919
 9683SOL    HW239051   5.776   1.001   5.848
 9683SOL    HW339052   5.786   0.948   5.990
 9683SOL    MW439053   5.824   0.982   5.919
 9684SOL     OW39054   6.195   1.339   5.778
 9684SOL    HW239055   6.210   1.315   5.870
 9684SOL    HW339056   6.103   1.317   5.762
 9684SOL    MW439057   6.185   1.332   5.788
 9685SOL     OW39058   6.734   1.570   5.930
 9685SOL    HW239059   6.742   1.488   5.881
 9685SOL    HW339060   6.653   1.609   5.897
 9685SOL    MW439061   6.724   1.565   5.920
 9686SOL     OW39062   5.993   1.728   6.499
 9686SOL    HW239063   5.997   1.639   6.534
 9686SOL    HW339064   6.019   1.719   6.408
 9686SOL    MW439065   5.996   1.716   6.491
 9687SOL     OW39066   6.070   0.451   6.376
 9687SOL    HW239067   6.141   0.399   6.339
 9687SOL    HW339068   6.056   0.416   6.463
 9687SOL    MW439069   6.078   0.440   6.383
 9688SOL     OW39070   6.386   1.544   6.452
 9688SOL    HW239071   6.314   1.481   6.465
 9688SOL    HW339072   6.347   1.629   6.470
 9688SOL    MW439073   6.370   1.547   6.455
 9689SOL     OW39074   6.706   0.392   6.100
 9689SOL    HW239075   6.728   0.329   6.032
 9689SOL    HW339076   6.611   0.384   6.111
 9689SOL    MW439077   6.696   0.383   6.092
 9690SOL     OW39078   5.791   0.082   6.032
 9690SOL    HW239079   5.862   0.103   5.971
 9690SOL    HW339080   5.745   0.010   5.990
 9690SOL    MW439081   5.795   0.076   6.018
 9691SOL     OW39082   7.360   1.456   6.132
 9691SOL    HW239083   7.330   1.389   6.193
 9691SOL    HW339084   7.454   1.462   6.146
 9691SOL    MW439085   7.368   1.448   6.142
 9692SOL     OW39086   6.916   1.133   6.062
 9692SOL    HW239087   6.888   1.219   6.095
 9692SOL    HW339088   6.944   1.149   5.972
 9692SOL    MW439089   6.916   1.147   6.054
 9693SOL     OW39090   6.578   0.053   6.115
 9693SOL    HW239091   6.615   0.112   6.180
 9693SOL    HW339092   6.555   0.109   6.041
 9693SOL    MW439093   6.579   0.068   6.114
 9694SOL     OW39094   7.431   0.935   6.537
 9694SOL    HW239095   7.422   0.967   6.448
 9694SOL    HW339096   7.384   0.851   6.537
 9694SOL    MW439097   7.424   0.928   6.527
 9695SOL     OW39098   7.343   0.866   6.238
 9695SOL    HW239099   7.437   0.855   6.226
 9695SOL    HW339100   7.319   0.938   6.179
 9695SOL    MW439101   7.353   0.874   6.229
 9696SOL     OW39102   5.999   0.744   6.011
 9696SOL    HW239103   5.999   0.839   5.996
 9696SOL    HW339104   6.076   0.728   6.065
 9696SOL    MW439105   6.009   0.755   6.016
 9697SOL     OW39106   5.758   0.475   6.300
 9697SOL    HW239107   5.820   0.482   6.373
 9697SOL    HW339108   5.758   0.382   6.277
 9697SOL    MW439109   5.766   0.464   6.307
 9698SOL     OW39110   7.305   1.815   5.832
 9698SOL    HW239111   7.372   1.848   5.772
 9698SOL    HW339112   7.262   1.894   5.866
 9698SOL    MW439113   7.307   1.830   5.828
 9699SOL     OW39114   5.627   1.047   5.758
 9699SOL    HW239115   5.596   1.112   5.821
 9699SOL    HW339116   5.576   0.969   5.777
 9699SOL    MW439117   5.617   1.044   5.768
 9700SOL     OW39118   7.071   0.798   6.350
 9700SOL    HW239119   7.151   0.813   6.299
 9700SOL    HW339120   7.064   0.703   6.356
 9700SOL    MW439121   7.080   0.787   6.345
 9701SOL     OW39122   6.211   1.847   5.700
 9701SOL    HW239123   6.116   1.847   5.692
 9701SOL    HW339124   6.227   1.793   5.778
 9701SOL    MW439125   6.201   1.841   5.709
 9702SOL     OW39126   7.056   0.667   5.615
 9702SOL    HW239127   6.984   0.643   5.557
 9702SOL    HW339128   7.122   0.704   5.557
 9702SOL    MW439129   7.055   0.669   5.600
 9703SOL     OW39130   6.190   1.399   6.296
 9703SOL    HW239131   6.255   1.332   6.317
 9703SOL    HW339132   6.242   1.476   6.273
 9703SOL    MW439133   6.205   1.401   6.295
 9704SOL     OW39134   6.451   0.564   6.426
 9704SOL    HW239135   6.391   0.582   6.498
 9704SOL    HW339136   6.485   0.476   6.445
 9704SOL    MW439137   6.447   0.554   6.439
 9705SOL     OW39138   6.676   1.147   6.445
 9705SOL    HW239139   6.768   1.128   6.463
 9705SOL    HW339140   6.649   1.077   6.385
 9705SOL    MW439141   6.684   1.135   6.439
 9706SOL     OW39142   6.469   0.967   5.800
 9706SOL    HW239143   6.455   0.879   5.765
 9706SOL    HW339144   6.420   1.024   5.741
 9706SOL    MW439145   6.461   0.962   5.788
 9707SOL     OW39146   7.188   0.173   5.902
 9707SOL    HW239147   7.181   0.177   5.997
 9707SOL    HW339148   7.200   0.264   5.875
 9707SOL    MW439149   7.189   0.186   5.910
 9708SOL     OW39150   6.477   0.736   6.016
 9708SOL    HW239151   6.457   0.722   5.923
 9708SOL    HW339152   6.570   0.715   6.023
 9708SOL    MW439153   6.487   0.731   6.005
 9709SOL     OW39154   6.460   1.694   6.054
 9709SOL    HW239155   6.518   1.765   6.081
 9709SOL    HW339156   6.483   1.622   6.112
 9709SOL    MW439157   6.471   1.694   6.065
 9710SOL     OW39158   7.340   1.192   6.363
 9710SOL    HW239159   7.319   1.138   6.286
 9710SOL    HW339160   7.436   1.190   6.367
 9710SOL    MW439161   7.349   1.185   6.352
 9711SOL     OW39162   5.916   0.126   5.789
 9711SOL    HW239163   5.845   0.181   5.757
 9711SOL    HW339164   5.958   0.092   5.710
 9711SOL    MW439165   5.912   0.128   5.775
 9712SOL     OW39166   5.672   0.225   5.638
 9712SOL    HW239167   5.639   0.304   5.682
 9712SOL    HW339168   5.727   0.258   5.567
 9712SOL    MW439169   5.675   0.239   5.635
 9713SOL     OW39170   5.706   1.482   5.827
 9713SOL    HW239171   5.723   1.566   5.869
 9713SOL    HW339172   5.741   1.491   5.739
 9713SOL    MW439173   5.711   1.495   5.821
 9714SOL     OW39174   6.978   1.571   6.044
 9714SOL    HW239175   7.041   1.561   5.973
 9714SOL    HW339176   6.895   1.591   5.999
 9714SOL    MW439177   6.975   1.572   6.029
 9715SOL     OW39178   7.207   2.639   1.252
 9715SOL    HW239179   7.162   2.706   1.303
 9715SOL    HW339180   7.295   2.675   1.238
 9715SOL    MW439181   7.213   2.652   1.256
 9716SOL     OW39182   6.135   2.890   0.486
 9716SOL    HW239183   6.225   2.865   0.470
 9716SOL    HW339184   6.131   2.983   0.463
 9716SOL    MW439185   6.147   2.899   0.481
 9717SOL     OW39186   7.251   3.593   0.628
 9717SOL    HW239187   7.263   3.539   0.706
 9717SOL    HW339188   7.288   3.541   0.557
 9717SOL    MW439189   7.257   3.578   0.629
 9718SOL     OW39190   6.630   3.478   1.629
 9718SOL    HW239191   6.671   3.514   1.550
 9718SOL    HW339192   6.665   3.389   1.636
 9718SOL    MW439193   6.641   3.471   1.620
 9719SOL     OW39194   7.187   3.033   1.233
 9719SOL    HW239195   7.108   2.998   1.191
 9719SOL    HW339196   7.214   3.105   1.177
 9719SOL    MW439197   7.180   3.038   1.220
 9720SOL     OW39198   6.419   2.346   0.499
 9720SOL    HW239199   6.394   2.434   0.527
 9720SOL    HW339200   6.416   2.349   0.403
 9720SOL    MW439201   6.415   2.358   0.491
 9721SOL     OW39202   5.861   2.374   0.427
 9721SOL    HW239203   5.893   2.462   0.409
 9721SOL    HW339204   5.849   2.372   0.522
 9721SOL    MW439205   5.864   2.386   0.439
 9722SOL     OW39206   5.939   2.787   1.328
 9722SOL    HW239207   6.002   2.734   1.279
 9722SOL    HW339208   5.920   2.861   1.271
 9722SOL    MW439209   5.945   2.789   1.315
 9723SOL     OW39210   6.260   2.129   0.514
 9723SOL    HW239211   6.318   2.205   0.516
 9723SOL    HW339212   6.195   2.150   0.447
 9723SOL    MW439213   6.259   2.141   0.505
 9724SOL     OW39214   6.347   3.056   0.689
 9724SOL    HW239215   6.427   3.059   0.741
 9724SOL    HW339216   6.375   3.023   0.603
 9724SOL    MW439217   6.361   3.052   0.684
 9725SOL     OW39218   6.372   3.397   1.592
 9725SOL    HW239219   6.456   3.423   1.631
 9725SOL    HW339220   6.396   3.341   1.518
 9725SOL    MW439221   6.386   3.393   1.587
 9726SOL     OW39222   6.124   2.560   0.680
 9726SOL    HW239223   6.109   2.480   0.731
 9726SOL    HW339224   6.206   2.595   0.714
 9726SOL    MW439225   6.132   2.552   0.692
 9727SOL     OW39226   6.461   3.246   1.365
 9727SOL    HW239227   6.425   3.312   1.305
 9727SOL    HW339228   6.389   3.184   1.378
 9727SOL    MW439229   6.447   3.246   1.359
 9728SOL     OW39230   6.266   2.386   1.057
 9728SOL    HW239231   6.172   2.382   1.075
 9728SOL    HW339232   6.296   2.295   1.066
 9728SOL    MW439233   6.257   2.374   1.060
 9729SOL     OW39234   6.012   2.800   0.961
 9729SOL    HW239235   5.967   2.807   0.877
 9729SOL    HW339236   5.992   2.883   1.005
 9729SOL    MW439237   6.004   2.812   0.955
 9730SOL     OW39238   5.709   3.646   0.836
 9730SOL    HW239239   5.798   3.638   0.871
 9730SOL    HW339240   5.673   3.558   0.841
 9730SOL    MW439241   5.716   3.633   0.841
 9731SOL     OW39242   5.973   3.173   0.871
 9731SOL    HW239243   5.949   3.226   0.947
 9731SOL    HW339244   6.029   3.231   0.819
 9731SOL    MW439245   5.977   3.188   0.874
 9732SOL     OW39246   6.535   2.817   0.681
 9732SOL    HW239247   6.449   2.804   0.721
 9732SOL    HW339248   6.588   2.744   0.713
 9732SOL    MW439249   6.531   2.806   0.690
 9733SOL     OW39250   5.943   3.469   1.466
 9733SOL    HW239251   5.851   3.445   1.451
 9733SOL    HW339252   5.987   3.386   1.483
 9733SOL    MW439253   5.937   3.454   1.465
 9734SOL     OW39254   6.526   3.179   0.398
 9734SOL    HW239255   6.503   3.241   0.466
 9734SOL    HW339256   6.483   3.097   0.424
 9734SOL    MW439257   6.518   3.175   0.409
 9735SOL     OW39258   7.399   2.180   0.854
 9735SOL    HW239259   7.336   2.160   0.923
 9735SOL    HW339260   7.389   2.109   0.791
 9735SOL    MW439261   7.389   2.167   0.855
 9736SOL     OW39262   6.023   2.152   0.366
 9736SOL    HW239263   5.997   2.114   0.282
 9736SOL    HW339264   5.960   2.222   0.382
 9736SOL    MW439265   6.012   2.155   0.357
 9737SOL     OW39266   5.858   3.113   0.403
 9737SOL    HW239267   5.806   3.181   0.359
 9737SOL    HW339268   5.855   3.039   0.343
 9737SOL    MW439269   5.850   3.112   0.390
 9738SOL     OW39270   7.200   2.952   0.506
 9738SOL    HW239271   7.110   2.952   0.541
 9738SOL    HW339272   7.193   2.998   0.423
 9738SOL    MW439273   7.187   2.958   0.500
 9739SOL     OW39274   7.000   2.587   1.578
 9739SOL    HW239275   7.069   2.525   1.555
 9739SOL    HW339276   6.925   2.561   1.525
 9739SOL    MW439277   7.000   2.574   1.569
 9740SOL     OW39278   5.741   3.467   1.130
 9740SOL    HW239279   5.724   3.413   1.207
 9740SOL    HW339280   5.729   3.557   1.160
 9740SOL    MW439281   5.738   3.471   1.144
 9741SOL     OW39282   6.736   2.974   1.570
 9741SOL    HW239283   6.721   3.067   1.555
 9741SOL    HW339284   6.831   2.964   1.570
 9741SOL    MW439285   6.745   2.984   1.567
 9742SOL     OW39286   6.532   2.398   1.771
 9742SOL    HW239287   6.622   2.399   1.738
 9742SOL    HW339288   6.491   2.323   1.729
 9742SOL    MW439289   6.538   2.388   1.762
 9743SOL     OW39290   7.107   2.930   0.898
 9743SOL    HW239291   7.110   2.864   0.829
 9743SOL    HW339292   7.192   2.973   0.894
 9743SOL    MW439293   7.119   2.926   0.889
 9744SOL     OW39294   6.727   2.533   0.467
 9744SOL    HW239295   6.753   2.557   0.378
 9744SOL    HW339296   6.709   2.440   0.463
 9744SOL    MW439297   6.729   2.525   0.454
 9745SOL     OW39298   6.312   2.202   1.721
 9745SOL    HW239299   6.322   2.128   1.661
 9745SOL    HW339300   6.348   2.171   1.804
 9745SOL    MW439301   6.318   2.188   1.723
 9746SOL     OW39302   6.048   3.569   0.636
 9746SOL    HW239303   6.080   3.657   0.614
 9746SOL    HW339304   6.001   3.541   0.558
 9746SOL    MW439305   6.047   3.577   0.623
 9747SOL     OW39306   7.432   1.931   0.685
 9747SOL    HW239307   7.486   1.882   0.747
 9747SOL    HW339308   7.375   1.865   0.646
 9747SOL    MW439309   7.432   1.915   0.687
 9748SOL     OW39310   5.764   3.629   0.213
 9748SOL    HW239311   5.793   3.719   0.205
 9748SOL    HW339312   5.714   3.612   0.134
 9748SOL    MW439313   5.762   3.637   0.202
 9749SOL     OW39314   6.551   1.884   1.098
 9749SOL    HW239315   6.510   1.962   1.060
 9749SOL    HW339316   6.645   1.902   1.093
 9749SOL    MW439317   6.557   1.896   1.093
 9750SOL     OW39318   6.497   2.855   1.593
 9750SOL    HW239319   6.474   2.835   1.683
 9750SOL    HW339320   6.582   2.899   1.598
 9750SOL    MW439321   6.504   2.858   1.605
 9751SOL     OW39322   6.577   1.992   1.353
 9751SOL    HW239323   6.583   1.954   1.266
 9751SOL    HW339324   6.566   2.086   1.338
 9751SOL    MW439325   6.578   2.000   1.341
 9752SOL     OW39326   6.666   2.481   1.187
 9752SOL    HW239327   6.741   2.510   1.134
 9752SOL    HW339328   6.598   2.546   1.171
 9752SOL    MW439329   6.667   2.493   1.177
 9753SOL     OW39330   7.216   2.449   1.464
 9753SOL    HW239331   7.197   2.358   1.443
 9753SOL    HW339332   7.194   2.498   1.385
 9753SOL    MW439333   7.211   2.442   1.451
 9754SOL     OW39334   7.358   3.543   1.368
 9754SOL    HW239335   7.286   3.505   1.419
 9754SOL    HW339336   7.375   3.628   1.409
 9754SOL    MW439337   7.352   3.548   1.380
 9755SOL     OW39338   6.663   2.187   1.570
 9755SOL    HW239339   6.629   2.226   1.489
 9755SOL    HW339340   6.641   2.095   1.563
 9755SOL    MW439341   6.656   2.180   1.560
 9756SOL     OW39342   7.072   3.001   1.646
 9756SOL    HW239343   7.154   3.042   1.676
 9756SOL    HW339344   7.035   2.963   1.726
 9756SOL    MW439345   7.078   3.002   1.661
 9757SOL     OW39346   7.367   2.374   0.630
 9757SOL    HW239347   7.456   2.343   0.647
 9757SOL    HW339348   7.310   2.314   0.678
 9757SOL    MW439349   7.370   2.362   0.639
 9758SOL     OW39350   5.793   2.088   0.659
 9758SOL    HW239351   5.784   2.028   0.585
 9758SOL    HW339352   5.726   2.059   0.722
 9758SOL    MW439353   5.783   2.075   0.657
 9759SOL     OW39354   6.736   3.181   0.220
 9759SOL    HW239355   6.686   3.183   0.302
 9759SOL    HW339356   6.670   3.199   0.152
 9759SOL    MW439357   6.722   3.183   0.222
 9760SOL     OW39358   5.740   2.261   1.022
 9760SOL    HW239359   5.712   2.352   1.031
 9760SOL    HW339360   5.677   2.222   0.961
 9760SOL    MW439361   5.727   2.267   1.016
 9761SOL     OW39362   7.327   3.119   1.725
 9761SOL    HW239363   7.377   3.045   1.757
 9761SOL    HW339364   7.273   3.146   1.800
 9761SOL    MW439365   7.327   3.113   1.738
 9762SOL     OW39366   7.461   2.754   1.227
 9762SOL    HW239367   7.477   2.792   1.140
 9762SOL    HW339368   7.495   2.820   1.288
 9762SOL    MW439369   7.468   2.767   1.223
 9763SOL     OW39370   7.253   3.463   0.896
 9763SOL    HW239371   7.282   3.530   0.957
 9763SOL    HW339372   7.234   3.387   0.951
 9763SOL    MW439373   7.255   3.463   0.911
 9764SOL     OW39374   5.724   2.536   1.192
 9764SOL    HW239375   5.786   2.566   1.258
 9764SOL    HW339376   5.658   2.605   1.186
 9764SOL    MW439377   5.723   2.549   1.199
 9765SOL     OW39378   5.819   3.645   1.644
 9765SOL    HW239379   5.793   3.713   1.582
 9765SOL    HW339380   5.867   3.582   1.592
 9765SOL    MW439381   5.821   3.645   1.630
 9766SOL     OW39382   5.871   2.964   1.151
 9766SOL    HW239383   5.924   3.039   1.176
 9766SOL    HW339384   5.790   3.002   1.117
 9766SOL    MW439385   5.867   2.979   1.151
 9767SOL     OW39386   6.411   2.868   1.139
 9767SOL    HW239387   6.439   2.777   1.151
 9767SOL    HW339388   6.340   2.862   1.075
 9767SOL    MW439389   6.404   2.856   1.134
 9768SOL     OW39390   5.726   2.733   0.557
 9768SOL    HW239391   5.817   2.748   0.584
 9768SOL    HW339392   5.729   2.654   0.503
 9768SOL    MW439393   5.738   2.725   0.555
 9769SOL     OW39394   5.962   2.441   1.811
 9769SOL    HW239395   5.909   2.521   1.818
 9769SOL    HW339396   6.032   2.453   1.876
 9769SOL    MW439397   5.964   2.454   1.819
 9770SOL     OW39398   6.348   1.991   1.518
 9770SOL    HW239399   6.325   1.899   1.520
 9770SOL    HW339400   6.434   1.993   1.475
 9770SOL    MW439401   6.355   1.981   1.514
 9771SOL     OW39402   6.032   2.515   1.557
 9771SOL    HW239403   6.112   2.565   1.543
 9771SOL    HW339404   6.023   2.509   1.652
 9771SOL    MW439405   6.041   2.521   1.567
 9772SOL     OW39406   6.353   3.665   0.931
 9772SOL    HW239407   6.442   3.680   0.961
 9772SOL    HW339408   6.348   3.712   0.847
 9772SOL    MW439409   6.363   3.673   0.924
 9773SOL     OW39410   7.009   2.040   1.828
 9773SOL    HW239411   7.065   1.967   1.854
 9773SOL    HW339412   6.979   2.078   1.910
 9773SOL    MW439413   7.013   2.035   1.841
 9774SOL     OW39414   5.734   3.345   0.596
 9774SOL    HW239415   5.706   3.384   0.678
 9774SOL    HW339416   5.754   3.254   0.618
 9774SOL    MW439417   5.732   3.337   0.609
 9775SOL     OW39418   6.567   3.388   0.631
 9775SOL    HW239419   6.650   3.342   0.615
 9775SOL    HW339420   6.557   3.387   0.727
 9775SOL    MW439421   6.577   3.381   0.641
 9776SOL     OW39422   7.399   2.533   0.945
 9776SOL    HW239423   7.488   2.563   0.927
 9776SOL    HW339424   7.379   2.473   0.874
 9776SOL    MW439425   7.408   2.530   0.934
 9777SOL     OW39426   7.250   2.712   1.825
 9777SOL    HW239427   7.305   2.636   1.806
 9777SOL    HW339428   7.252   2.720   1.920
 9777SOL    MW439429   7.258   2.703   1.833
 9778SOL     OW39430   6.545   2.274   1.344
 9778SOL    HW239431   6.464   2.315   1.372
 9778SOL    HW339432   6.592   2.342   1.296
 9778SOL    MW439433   6.540   2.289   1.342
 9779SOL     OW39434   6.805   2.612   0.967
 9779SOL    HW239435   6.818   2.706   0.977
 9779SOL    HW339436   6.766   2.602   0.881
 9779SOL    MW439437   6.801   2.623   0.957
 9780SOL     OW39438   6.257   2.807   0.771
 9780SOL    HW239439   6.168   2.798   0.804
 9780SOL    HW339440   6.261   2.897   0.739
 9780SOL    MW439441   6.246   2.818   0.771
 9781SOL     OW39442   7.056   2.390   0.766
 9781SOL    HW239443   7.001   2.311   0.765
 9781SOL    HW339444   7.038   2.431   0.850
 9781SOL    MW439445   7.046   2.385   0.775
 9782SOL     OW39446   6.027   2.077   1.583
 9782SOL    HW239447   5.948   2.095   1.635
 9782SOL    HW339448   6.022   2.139   1.510
 9782SOL    MW439449   6.017   2.087   1.580
 9783SOL     OW39450   6.675   2.594   0.723
 9783SOL    HW239451   6.612   2.526   0.747
 9783SOL    HW339452   6.695   2.575   0.631
 9783SOL    MW439453   6.669   2.581   0.715
 9784SOL     OW39454   5.931   3.489   0.425
 9784SOL    HW239455   5.892   3.536   0.351
 9784SOL    HW339456   5.865   3.424   0.450
 9784SOL    MW439457   5.918   3.487   0.419
 9785SOL     OW39458   6.976   3.458   1.221
 9785SOL    HW239459   6.901   3.504   1.259
 9785SOL    HW339460   6.958   3.365   1.238
 9785SOL    MW439461   6.965   3.452   1.229
 9786SOL     OW39462   6.980   3.666   0.651
 9786SOL    HW239463   6.923   3.619   0.590
 9786SOL    HW339464   7.066   3.627   0.638
 9786SOL    MW439465   6.983   3.657   0.641
 9787SOL     OW39466   6.933   2.142   0.782
 9787SOL    HW239467   6.961   2.074   0.843
 9787SOL    HW339468   6.847   2.113   0.752
 9787SOL    MW439469   6.926   2.129   0.786
 9788SOL     OW39470   5.738   3.076   0.716
 9788SOL    HW239471   5.802   3.108   0.779
 9788SOL    HW339472   5.787   3.012   0.664
 9788SOL    MW439473   5.753   3.072   0.717
 9789SOL     OW39474   6.238   3.152   1.698
 9789SOL    HW239475   6.286   3.235   1.685
 9789SOL    HW339476   6.295   3.100   1.754
 9789SOL    MW439477   6.252   3.156   1.704
 9790SOL     OW39478   5.814   3.394   1.838
 9790SOL    HW239479   5.870   3.318   1.853
 9790SOL    HW339480   5.763   3.372   1.760
 9790SOL    MW439481   5.814   3.381   1.829
 9791SOL     OW39482   6.699   3.231   1.447
 9791SOL    HW239483   6.610   3.237   1.415
 9791SOL    HW339484   6.743   3.310   1.415
 9791SOL    MW439485   6.694   3.241   1.439
 9792SOL     OW39486   5.992   1.899   1.789
 9792SOL    HW239487   5.920   1.864   1.737
 9792SOL    HW339488   6.050   1.940   1.724
 9792SOL    MW439489   5.990   1.900   1.774
 9793SOL     OW39490   6.016   3.389   1.088
 9793SOL    HW239491   6.061   3.451   1.145
 9793SOL    HW339492   5.923   3.408   1.101
 9793SOL    MW439493   6.009   3.399   1.095
 9794SOL     OW39494   7.456   2.918   1.442
 9794SOL    HW239495   7.371   2.931   1.401
 9794SOL    HW339496   7.436   2.882   1.529
 9794SOL    MW439497   7.443   2.914   1.447
 9795SOL     OW39498   6.438   3.457   1.196
 9795SOL    HW239499   6.462   3.446   1.105
 9795SOL    HW339500   6.361   3.514   1.194
 9795SOL    MW439501   6.430   3.462   1.185
 9796SOL     OW39502   6.233   3.162   0.986
 9796SOL    HW239503   6.226   3.141   1.080
 9796SOL    HW339504   6.151   3.130   0.949
 9796SOL    MW439505   6.221   3.156   0.993
 9797SOL     OW39506   7.097   2.172   1.388
 9797SOL    HW239507   7.044   2.174   1.468
 9797SOL    HW339508   7.082   2.085   1.351
 9797SOL    MW439509   7.089   2.162   1.393
 9798SOL     OW39510   7.433   2.096   1.261
 9798SOL    HW239511   7.414   2.163   1.196
 9798SOL    HW339512   7.490   2.034   1.216
 9798SOL    MW439513   7.437   2.097   1.247
 9799SOL     OW39514   5.679   3.254   1.649
 9799SOL    HW239515   5.723   3.187   1.595
 9799SOL    HW339516   5.594   3.216   1.669
 9799SOL    MW439517   5.674   3.240   1.645
 9800SOL     OW39518   6.362   1.929   0.701
 9800SOL    HW239519   6.291   1.990   0.683
 9800SOL    HW339520   6.413   1.926   0.620
 9800SOL    MW439521   6.358   1.935   0.688
 9801SOL     OW39522   6.120   3.169   0.450
 9801SOL    HW239523   6.113   3.201   0.540
 9801SOL    HW339524   6.030   3.153   0.422
 9801SOL    MW439525   6.108   3.171   0.457
 9802SOL     OW39526   6.715   3.562   1.359
 9802SOL    HW239527   6.635   3.547   1.309
 9802SOL    HW339528   6.722   3.657   1.366
 9802SOL    MW439529   6.706   3.573   1.353
 9803SOL     OW39530   6.829   3.527   0.849
 9803SOL    HW239531   6.876   3.600   0.808
 9803SOL    HW339532   6.750   3.566   0.885
 9803SOL    MW439533   6.824   3.542   0.848
 9804SOL     OW39534   7.237   3.622   1.124
 9804SOL    HW239535   7.280   3.592   1.204
 9804SOL    HW339536   7.156   3.570   1.121
 9804SOL    MW439537   7.232   3.611   1.134
 9805SOL     OW39538   6.322   2.586   1.831
 9805SOL    HW239539   6.392   2.528   1.803
 9805SOL    HW339540   6.265   2.531   1.886
 9805SOL    MW439541   6.324   2.573   1.835
 9806SOL     OW39542   7.109   2.798   1.464
 9806SOL    HW239543   7.114   2.851   1.544
 9806SOL    HW339544   7.071   2.715   1.492
 9806SOL    MW439545   7.105   2.793   1.479
 9807SOL     OW39546   6.749   1.933   1.710
 9807SOL    HW239547   6.744   1.840   1.691
 9807SOL    HW339548   6.832   1.944   1.756
 9807SOL    MW439549   6.757   1.922   1.714
 9808SOL     OW39550   7.219   3.204   0.986
 9808SOL    HW239551   7.254   3.186   0.899
 9808SOL    HW339552   7.124   3.205   0.973
 9808SOL    MW439553   7.211   3.201   0.973
 9809SOL     OW39554   6.648   2.852   1.355
 9809SOL    HW239555   6.691   2.887   1.433
 9809SOL    HW339556   6.631   2.929   1.301
 9809SOL    MW439557   6.651   2.867   1.358
 9810SOL     OW39558   6.039   1.994   0.657
 9810SOL    HW239559   6.089   2.037   0.588
 9810SOL    HW339560   5.954   2.038   0.657
 9810SOL    MW439561   6.036   2.007   0.648
 9811SOL     OW39562   5.798   3.056   1.517
 9811SOL    HW239563   5.826   3.009   1.595
 9811SOL    HW339564   5.719   3.011   1.488
 9811SOL    MW439565   5.791   3.045   1.523
 9812SOL     OW39566   6.306   2.383   1.484
 9812SOL    HW239567   6.278   2.471   1.508
 9812SOL    HW339568   6.275   2.327   1.555
 9812SOL    MW439569   6.298   2.386   1.496
 9813SOL     OW39570   6.848   2.601   0.203
 9813SOL    HW239571   6.895   2.619   0.122
 9813SOL    HW339572   6.814   2.685   0.231
 9813SOL    MW439573   6.850   2.615   0.196
 9814SOL     OW39574   5.961   2.779   0.697
 9814SOL    HW239575   6.019   2.835   0.645
 9814SOL    HW339576   6.005   2.694   0.699
 9814SOL    MW439577   5.974   2.776   0.690
 9815SOL     OW39578   7.101   2.131   0.534
 9815SOL    HW239579   7.023   2.081   0.559
 9815SOL    HW339580   7.072   2.222   0.534
 9815SOL    MW439581   7.087   2.135   0.537
 9816SOL     OW39582   6.687   2.093   0.693
 9816SOL    HW239583   6.707   2.168   0.637
 9816SOL    HW339584   6.667   2.132   0.778
 9816SOL    MW439585   6.688   2.109   0.697
 9817SOL     OW39586   7.447   2.866   1.712
 9817SOL    HW239587   7.360   2.846   1.748
 9817SOL    HW339588   7.501   2.792   1.737
 9817SOL    MW439589   7.442   2.855   1.720
 9818SOL     OW39590   5.668   3.379   0.869
 9818SOL    HW239591   5.700   3.383   0.960
 9818SOL    HW339592   5.573   3.387   0.877
 9818SOL    MW439593   5.660   3.382   0.882
 9819SOL     OW39594   7.191   3.717   1.850
 9819SOL    HW239595   7.236   3.641   1.815
 9819SOL    HW339596   7.229   3.730   1.937
 9819SOL    MW439597   7.201   3.710   1.856
 9820SOL     OW39598   6.791   3.236   0.576
 9820SOL    HW239599   6.814   3.187   0.654
 9820SOL    HW339600   6.872   3.278   0.548
 9820SOL    MW439601   6.804   3.236   0.583
 9821SOL     OW39602   6.049   2.244   1.305
 9821SOL    HW239603   6.082   2.325   1.345
 9821SOL    HW339604   6.022   2.270   1.217
 9821SOL    MW439605   6.048   2.258   1.299
 9822SOL     OW39606   6.003   2.211   1.041
 9822SOL    HW239607   6.033   2.125   1.012
 9822SOL    HW339608   5.908   2.204   1.044
 9822SOL    MW439609   5.995   2.200   1.039
 9823SOL     OW39610   6.832   2.420   1.732
 9823SOL    HW239611   6.884   2.355   1.685
 9823SOL    HW339612   6.790   2.471   1.662
 9823SOL    MW439613   6.833   2.417   1.715
 9824SOL     OW39614   6.931   2.215   1.593
 9824SOL    HW239615   6.838   2.199   1.580
 9824SOL    HW339616   6.957   2.153   1.661
 9824SOL    MW439617   6.921   2.205   1.600
 9825SOL     OW39618   6.146   1.989   0.932
 9825SOL    HW239619   6.156   1.898   0.958
 9825SOL    HW339620   6.102   1.985   0.847
 9825SOL    MW439621   6.142   1.977   0.924
 9826SOL     OW39622   6.240   3.604   1.478
 9826SOL    HW239623   6.157   3.589   1.523
 9826SOL    HW339624   6.299   3.537   1.513
 9826SOL    MW439625   6.238   3.594   1.488
 9827SOL     OW39626   7.297   2.311   1.103
 9827SOL    HW239627   7.230   2.344   1.163
 9827SOL    HW339628   7.340   2.389   1.069
 9827SOL    MW439629   7.295   2.326   1.107
 9828SOL     OW39630   7.475   3.031   1.073
 9828SOL    HW239631   7.468   2.971   0.998
 9828SOL    HW339632   7.401   3.091   1.062
 9828SOL    MW439633   7.465   3.031   1.062
 9829SOL     OW39634   6.857   2.893   0.991
 9829SOL    HW239635   6.871   2.865   1.082
 9829SOL    HW339636   6.943   2.924   0.963
 9829SOL    MW439637   6.870   2.894   1.000
 9830SOL     OW39638   6.940   2.388   1.270
 9830SOL    HW239639   6.961   2.389   1.177
 9830SOL    HW339640   6.985   2.310   1.303
 9830SOL    MW439641   6.947   2.378   1.262
 9831SOL     OW39642   7.433   2.519   1.812
 9831SOL    HW239643   7.470   2.464   1.881
 9831SOL    HW339644   7.458   2.476   1.730
 9831SOL    MW439645   7.440   2.507   1.811
 9832SOL     OW39646   6.980   2.817   1.863
 9832SOL    HW239647   7.046   2.765   1.817
 9832SOL    HW339648   7.000   2.804   1.956
 9832SOL    MW439649   6.991   2.808   1.870
 9833SOL     OW39650   6.931   1.903   0.212
 9833SOL    HW239651   7.005   1.947   0.255
 9833SOL    HW339652   6.855   1.957   0.234
 9833SOL    MW439653   6.931   1.915   0.220
 9834SOL     OW39654   6.991   2.678   0.490
 9834SOL    HW239655   6.906   2.648   0.460
 9834SOL    HW339656   6.983   2.685   0.585
 9834SOL    MW439657   6.979   2.676   0.499
 9835SOL     OW39658   6.067   3.141   1.221
 9835SOL    HW239659   6.079   3.168   1.312
 9835SOL    HW339660   6.048   3.222   1.174
 9835SOL    MW439661   6.066   3.156   1.226
 9836SOL     OW39662   6.351   2.121   1.044
 9836SOL    HW239663   6.324   2.123   1.135
 9836SOL    HW339664   6.281   2.073   0.999
 9836SOL    MW439665   6.339   2.117   1.051
 9837SOL     OW39666   6.205   3.613   1.206
 9837SOL    HW239667   6.257   3.690   1.183
 9837SOL    HW339668   6.214   3.605   1.301
 9837SOL    MW439669   6.214   3.620   1.217
 9838SOL     OW39670   7.107   3.198   1.438
 9838SOL    HW239671   7.092   3.127   1.501
 9838SOL    HW339672   7.153   3.156   1.366
 9838SOL    MW439673   7.113   3.182   1.438
 9839SOL     OW39674   6.181   2.929   1.555
 9839SOL    HW239675   6.218   2.934   1.467
 9839SOL    HW339676   6.220   3.002   1.602
 9839SOL    MW439677   6.191   2.939   1.550
 9840SOL     OW39678   6.361   2.972   1.367
 9840SOL    HW239679   6.420   2.918   1.420
 9840SOL    HW339680   6.376   2.944   1.277
 9840SOL    MW439681   6.371   2.961   1.363
 9841SOL     OW39682   7.172   3.461   1.539
 9841SOL    HW239683   7.214   3.446   1.624
 9841SOL    HW339684   7.163   3.374   1.501
 9841SOL    MW439685   7.176   3.449   1.546
 9842SOL     OW39686   6.832   1.940   1.130
 9842SOL    HW239687   6.887   1.949   1.052
 9842SOL    HW339688   6.887   1.974   1.201
 9842SOL    MW439689   6.846   1.945   1.129
 9843SOL     OW39690   5.993   3.596   0.894
 9843SOL    HW239691   5.997   3.507   0.929
 9843SOL    HW339692   6.019   3.587   0.803
 9843SOL    MW439693   5.996   3.584   0.886
 9844SOL     OW39694   6.610   3.074   1.137
 9844SOL    HW239695   6.542   3.008   1.153
 9844SOL    HW339696   6.628   3.068   1.044
 9844SOL    MW439697   6.603   3.065   1.128
 9845SOL     OW39698   5.699   3.349   1.388
 9845SOL    HW239699   5.689   3.307   1.474
 9845SOL    HW339700   5.620   3.402   1.378
 9845SOL    MW439701   5.688   3.350   1.399
 9846SOL     OW39702   6.603   2.213   0.958
 9846SOL    HW239703   6.533   2.165   1.003
 9846SOL    HW339704   6.635   2.276   1.022
 9846SOL    MW439705   6.598   2.215   0.972
 9847SOL     OW39706   6.254   2.649   1.578
 9847SOL    HW239707   6.247   2.744   1.566
 9847SOL    HW339708   6.263   2.638   1.673
 9847SOL    MW439709   6.255   2.661   1.588
 9848SOL     OW39710   5.975   3.164   1.836
 9848SOL    HW239711   6.047   3.166   1.773
 9848SOL    HW339712   5.945   3.073   1.835
 9848SOL    MW439713   5.980   3.153   1.828
 9849SOL     OW39714   7.059   1.927   1.303
 9849SOL    HW239715   7.130   1.873   1.267
 9849SOL    HW339716   7.058   1.906   1.396
 9849SOL    MW439717   7.068   1.918   1.311
 9850SOL     OW39718   7.259   3.457   1.787
 9850SOL    HW239719   7.232   3.454   1.878
 9850SOL    HW339720   7.355   3.461   1.790
 9850SOL    MW439721   7.269   3.457   1.799
 9851SOL     OW39722   6.070   2.319   0.771
 9851SOL    HW239723   6.141   2.267   0.734
 9851SOL    HW339724   6.056   2.284   0.858
 9851SOL    MW439725   6.078   2.308   0.778
 9852SOL     OW39726   5.625   3.654   1.843
 9852SOL    HW239727   5.675   3.632   1.765
 9852SOL    HW339728   5.633   3.749   1.851
 9852SOL    MW439729   5.633   3.663   1.834
 9853SOL     OW39730   6.386   3.412   0.847
 9853SOL    HW239731   6.314   3.349   0.860
 9853SOL    HW339732   6.347   3.497   0.865
 9853SOL    MW439733   6.370   3.415   0.850
 9854SOL     OW39734   6.706   2.260   0.495
 9854SOL    HW239735   6.728   2.197   0.427
 9854SOL    HW339736   6.611   2.252   0.506
 9854SOL    MW439737   6.696   2.251   0.487
 9855SOL     OW39738   5.622   2.417   1.570
 9855SOL    HW239739   5.686   2.483   1.545
 9855SOL    HW339740   5.541   2.444   1.527
 9855SOL    MW439741   5.620   2.429   1.562
 9856SOL     OW39742   7.360   3.324   0.527
 9856SOL    HW239743   7.330   3.257   0.588
 9856SOL    HW339744   7.454   3.330   0.541
 9856SOL    MW439745   7.368   3.316   0.537
 9857SOL     OW39746   6.916   3.001   0.457
 9857SOL    HW239747   6.888   3.087   0.490
 9857SOL    HW339748   6.944   3.017   0.367
 9857SOL    MW439749   6.916   3.015   0.449
 9858SOL     OW39750   6.578   1.921   0.510
 9858SOL    HW239751   6.615   1.980   0.575
 9858SOL    HW339752   6.555   1.977   0.436
 9858SOL    MW439753   6.579   1.936   0.509
 9859SOL     OW39754   7.431   2.803   0.932
 9859SOL    HW239755   7.422   2.835   0.843
 9859SOL    HW339756   7.384   2.719   0.932
 9859SOL    MW439757   7.424   2.796   0.922
 9860SOL     OW39758   5.807   2.643   1.511
 9860SOL    HW239759   5.828   2.712   1.449
 9860SOL    HW339760   5.887   2.590   1.516
 9860SOL    MW439761   5.820   2.644   1.505
 9861SOL     OW39762   7.343   2.734   0.633
 9861SOL    HW239763   7.437   2.723   0.621
 9861SOL    HW339764   7.319   2.806   0.574
 9861SOL    MW439765   7.353   2.742   0.624
 9862SOL     OW39766   5.792   2.658   1.778
 9862SOL    HW239767   5.718   2.602   1.804
 9862SOL    HW339768   5.787   2.661   1.683
 9862SOL    MW439769   5.781   2.651   1.768
 9863SOL     OW39770   5.958   1.945   1.228
 9863SOL    HW239771   6.001   2.029   1.248
 9863SOL    HW339772   6.031   1.883   1.221
 9863SOL    MW439773   5.973   1.948   1.229
 9864SOL     OW39774   5.999   2.612   0.406
 9864SOL    HW239775   5.999   2.707   0.391
 9864SOL    HW339776   6.076   2.596   0.460
 9864SOL    MW439777   6.009   2.623   0.411
 9865SOL     OW39778   6.775   2.471   1.470
 9865SOL    HW239779   6.811   2.444   1.386
 9865SOL    HW339780   6.688   2.505   1.449
 9865SOL    MW439781   6.769   2.472   1.457
 9866SOL     OW39782   5.758   2.343   0.695
 9866SOL    HW239783   5.820   2.350   0.768
 9866SOL    HW339784   5.758   2.250   0.672
 9866SOL    MW439785   5.766   2.332   0.702
 9867SOL     OW39786   6.440   2.604   1.179
 9867SOL    HW239787   6.398   2.522   1.155
 9867SOL    HW339788   6.441   2.603   1.275
 9867SOL    MW439789   6.433   2.593   1.188
 9868SOL     OW39790   7.111   3.737   1.578
 9868SOL    HW239791   7.114   3.643   1.561
 9868SOL    HW339792   7.134   3.745   1.670
 9868SOL    MW439793   7.114   3.725   1.588
 9869SOL     OW39794   6.244   2.074   1.284
 9869SOL    HW239795   6.175   2.137   1.305
 9869SOL    HW339796   6.271   2.038   1.369
 9869SOL    MW439797   6.238   2.077   1.297
 9870SOL     OW39798   7.039   1.927   0.901
 9870SOL    HW239799   7.127   1.936   0.938
 9870SOL    HW339800   7.049   1.868   0.827
 9870SOL    MW439801   7.053   1.921   0.895
 9871SOL     OW39802   7.071   2.666   0.745
 9871SOL    HW239803   7.151   2.681   0.694
 9871SOL    HW339804   7.064   2.571   0.751
 9871SOL    MW439805   7.080   2.655   0.740
 9872SOL     OW39806   6.521   2.592   1.442
 9872SOL    HW239807   6.590   2.659   1.439
 9872SOL    HW339808   6.454   2.630   1.498
 9872SOL    MW439809   6.522   2.605   1.449
 9873SOL     OW39810   5.939   2.892   1.690
 9873SOL    HW239811   5.893   2.808   1.692
 9873SOL    HW339812   5.996   2.886   1.614
 9873SOL    MW439813   5.941   2.880   1.682
 9874SOL     OW39814   7.056   2.535   0.011
 9874SOL    HW239815   6.984   2.511  -0.047
 9874SOL    HW339816   7.122   2.572  -0.047
 9874SOL    MW439817   7.055   2.537  -0.004
 9875SOL     OW39818   6.190   3.267   0.691
 9875SOL    HW239819   6.255   3.200   0.712
 9875SOL    HW339820   6.242   3.344   0.668
 9875SOL    MW439821   6.205   3.269   0.690
 9876SOL     OW39822   6.451   2.432   0.821
 9876SOL    HW239823   6.391   2.450   0.893
 9876SOL    HW339824   6.485   2.344   0.840
 9876SOL    MW439825   6.447   2.422   0.834
 9877SOL     OW39826   7.392   1.931   1.490
 9877SOL    HW239827   7.313   1.977   1.518
 9877SOL    HW339828   7.427   1.985   1.419
 9877SOL    MW439829   7.386   1.944   1.484
 9878SOL     OW39830   6.676   3.015   0.840
 9878SOL    HW239831   6.768   2.996   0.858
 9878SOL    HW339832   6.649   2.945   0.780
 9878SOL    MW439833   6.684   3.003   0.834
 9879SOL     OW39834   6.950   3.253   0.936
 9879SOL    HW239835   6.923   3.337   0.901
 9879SOL    HW339836   6.910   3.248   1.023
 9879SOL    MW439837   6.943   3.262   0.942
 9880SOL     OW39838   6.869   3.201   1.204
 9880SOL    HW239839   6.880   3.168   1.293
 9880SOL    HW339840   6.788   3.160   1.173
 9880SOL    MW439841   6.859   3.193   1.210
 9881SOL     OW39842   5.882   2.559   0.974
 9881SOL    HW239843   5.832   2.558   1.055
 9881SOL    HW339844   5.902   2.651   0.958
 9881SOL    MW439845   5.878   2.571   0.982
 9882SOL     OW39846   6.949   3.323   1.736
 9882SOL    HW239847   6.949   3.417   1.752
 9882SOL    HW339848   6.994   3.313   1.652
 9882SOL    MW439849   6.955   3.333   1.727
 9883SOL     OW39850   6.477   2.604   0.411
 9883SOL    HW239851   6.457   2.590   0.318
 9883SOL    HW339852   6.570   2.583   0.418
 9883SOL    MW439853   6.487   2.599   0.400
 9884SOL     OW39854   5.804   2.227   1.715
 9884SOL    HW239855   5.761   2.286   1.652
 9884SOL    HW339856   5.872   2.282   1.755
 9884SOL    MW439857   5.808   2.242   1.712
 9885SOL     OW39858   6.916   2.847   1.260
 9885SOL    HW239859   6.979   2.844   1.333
 9885SOL    HW339860   6.832   2.865   1.302
 9885SOL    MW439861   6.912   2.849   1.275
 9886SOL     OW39862   6.460   3.562   0.449
 9886SOL    HW239863   6.518   3.633   0.476
 9886SOL    HW339864   6.483   3.490   0.507
 9886SOL    MW439865   6.471   3.562   0.460
 9887SOL     OW39866   7.255   2.024   1.039
 9887SOL    HW239867   7.300   1.942   1.058
 9887SOL    HW339868   7.275   2.080   1.115
 9887SOL    MW439869   7.265   2.020   1.051
 9888SOL     OW39870   5.703   1.867   1.138
 9888SOL    HW239871   5.694   1.868   1.043
 9888SOL    HW339872   5.797   1.879   1.153
 9888SOL    MW439873   5.715   1.870   1.129
 9889SOL     OW39874   7.340   3.060   0.758
 9889SOL    HW239875   7.319   3.006   0.681
 9889SOL    HW339876   7.436   3.058   0.762
 9889SOL    MW439877   7.349   3.053   0.747
 9890SOL     OW39878   6.032   3.205   1.501
 9890SOL    HW239879   5.953   3.155   1.524
 9890SOL    HW339880   6.102   3.164   1.551
 9890SOL    MW439881   6.030   3.193   1.511
 9891SOL     OW39882   7.040   2.491   1.020
 9891SOL    HW239883   6.963   2.537   0.986
 9891SOL    HW339884   7.097   2.560   1.054
 9891SOL    MW439885   7.037   2.506   1.020
 9892SOL     OW39886   5.706   3.350   0.222
 9892SOL    HW239887   5.723   3.434   0.264
 9892SOL    HW339888   5.741   3.359   0.134
 9892SOL    MW439889   5.711   3.363   0.216
 9893SOL     OW39890   6.978   3.439   0.439
 9893SOL    HW239891   7.041   3.429   0.368
 9893SOL    HW339892   6.895   3.459   0.394
 9893SOL    MW439893   6.975   3.440   0.424
 9894SOL     OW39894   7.341   2.707   2.125
 9894SOL    HW239895   7.382   2.649   2.190
 9894SOL    HW339896   7.248   2.699   2.142
 9894SOL    MW439897   7.335   2.699   2.135
 9895SOL     OW39898   7.207   2.639   3.120
 9895SOL    HW239899   7.162   2.706   3.171
 9895SOL    HW339900   7.295   2.675   3.106
 9895SOL    MW439901   7.213   2.652   3.124
 9896SOL     OW39902   6.135   2.890   2.354
 9896SOL    HW239903   6.225   2.865   2.338
 9896SOL    HW339904   6.131   2.983   2.331
 9896SOL    MW439905   6.147   2.899   2.349
 9897SOL     OW39906   7.251   3.593   2.496
 9897SOL    HW239907   7.263   3.539   2.574
 9897SOL    HW339908   7.288   3.541   2.425
 9897SOL    MW439909   7.257   3.578   2.497
 9898SOL     OW39910   6.630   3.478   3.497
 9898SOL    HW239911   6.671   3.514   3.418
 9898SOL    HW339912   6.665   3.389   3.504
 9898SOL    MW439913   6.641   3.471   3.488
 9899SOL     OW39914   7.187   3.033   3.101
 9899SOL    HW239915   7.108   2.998   3.059
 9899SOL    HW339916   7.214   3.105   3.045
 9899SOL    MW439917   7.180   3.038   3.088
 9900SOL     OW39918   6.419   2.346   2.367
 9900SOL    HW239919   6.394   2.434   2.395
 9900SOL    HW339920   6.416   2.349   2.271
 9900SOL    MW439921   6.415   2.358   2.359
 9901SOL     OW39922   5.861   2.374   2.295
 9901SOL    HW239923   5.893   2.462   2.277
 9901SOL    HW339924   5.849   2.372   2.390
 9901SOL    MW439925   5.864   2.386   2.307
 9902SOL     OW39926   5.939   2.787   3.196
 9902SOL    HW239927   6.002   2.734   3.147
 9902SOL    HW339928   5.920   2.861   3.139
 9902SOL    MW439929   5.945   2.789   3.183
 9903SOL     OW39930   6.260   2.129   2.382
 9903SOL    HW239931   6.318   2.205   2.384
 9903SOL    HW339932   6.195   2.150   2.315
 9903SOL    MW439933   6.259   2.141   2.373
 9904SOL     OW39934   6.347   3.056   2.557
 9904SOL    HW239935   6.427   3.059   2.609
 9904SOL    HW339936   6.375   3.023   2.471
 9904SOL    MW439937   6.361   3.052   2.552
 9905SOL     OW39938   6.372   3.397   3.460
 9905SOL    HW239939   6.456   3.423   3.499
 9905SOL    HW339940   6.396   3.341   3.386
 9905SOL    MW439941   6.386   3.393   3.455
 9906SOL     OW39942   6.124   2.560   2.548
 9906SOL    HW239943   6.109   2.480   2.599
 9906SOL    HW339944   6.206   2.595   2.582
 9906SOL    MW439945   6.132   2.552   2.560
 9907SOL     OW39946   6.461   3.246   3.233
 9907SOL    HW239947   6.425   3.312   3.173
 9907SOL    HW339948   6.389   3.184   3.246
 9907SOL    MW439949   6.447   3.246   3.227
 9908SOL     OW39950   6.266   2.386   2.925
 9908SOL    HW239951   6.172   2.382   2.943
 9908SOL    HW339952   6.296   2.295   2.934
 9908SOL    MW439953   6.257   2.374   2.928
 9909SOL     OW39954   6.012   2.800   2.829
 9909SOL    HW239955   5.967   2.807   2.745
 9909SOL    HW339956   5.992   2.883   2.873
 9909SOL    MW439957   6.004   2.812   2.823
 9910SOL     OW39958   5.709   3.646   2.704
 9910SOL    HW239959   5.798   3.638   2.739
 9910SOL    HW339960   5.673   3.558   2.709
 9910SOL    MW439961   5.716   3.633   2.709
 9911SOL     OW39962   6.974   3.038   2.073
 9911SOL    HW239963   6.892   3.074   2.039
 9911SOL    HW339964   7.042   3.081   2.022
 9911SOL    MW439965   6.972   3.048   2.061
 9912SOL     OW39966   5.973   3.173   2.739
 9912SOL    HW239967   5.949   3.226   2.815
 9912SOL    HW339968   6.029   3.231   2.687
 9912SOL    MW439969   5.977   3.188   2.742
 9913SOL     OW39970   6.535   2.817   2.549
 9913SOL    HW239971   6.449   2.804   2.589
 9913SOL    HW339972   6.588   2.744   2.581
 9913SOL    MW439973   6.531   2.806   2.558
 9914SOL     OW39974   5.943   3.469   3.334
 9914SOL    HW239975   5.851   3.445   3.319
 9914SOL    HW339976   5.987   3.386   3.351
 9914SOL    MW439977   5.937   3.454   3.333
 9915SOL     OW39978   6.526   3.179   2.266
 9915SOL    HW239979   6.503   3.241   2.334
 9915SOL    HW339980   6.483   3.097   2.292
 9915SOL    MW439981   6.518   3.175   2.277
 9916SOL     OW39982   7.399   2.180   2.722
 9916SOL    HW239983   7.336   2.160   2.791
 9916SOL    HW339984   7.389   2.109   2.659
 9916SOL    MW439985   7.389   2.167   2.723
 9917SOL     OW39986   6.023   2.152   2.234
 9917SOL    HW239987   5.997   2.114   2.150
 9917SOL    HW339988   5.960   2.222   2.250
 9917SOL    MW439989   6.012   2.155   2.225
 9918SOL     OW39990   5.858   3.113   2.271
 9918SOL    HW239991   5.806   3.181   2.227
 9918SOL    HW339992   5.855   3.039   2.211
 9918SOL    MW439993   5.850   3.112   2.258
 9919SOL     OW39994   6.520   3.576   2.049
 9919SOL    HW239995   6.475   3.592   2.132
 9919SOL    HW339996   6.451   3.541   1.991
 9919SOL    MW439997   6.506   3.573   2.051
 9920SOL     OW39998   7.455   2.349   2.024
 9920SOL    HW239999   7.364   2.351   2.052
 9920SOL    HW340000   7.500   2.411   2.082
 9920SOL    MW440001   7.448   2.357   2.034
 9921SOL     OW40002   7.200   2.952   2.374
 9921SOL    HW240003   7.110   2.952   2.409
 9921SOL    HW340004   7.193   2.998   2.291
 9921SOL    MW440005   7.187   2.958   2.368
 9922SOL     OW40006   7.000   2.587   3.446
 9922SOL    HW240007   7.069   2.525   3.423
 9922SOL    HW340008   6.925   2.561   3.393
 9922SOL    MW440009   7.000   2.574   3.437
 9923SOL     OW40010   5.741   3.467   2.998
 9923SOL    HW240011   5.724   3.413   3.075
 9923SOL    HW340012   5.729   3.557   3.028
 9923SOL    MW440013   5.738   3.471   3.012
 9924SOL     OW40014   6.736   2.974   3.438
 9924SOL    HW240015   6.721   3.067   3.423
 9924SOL    HW340016   6.831   2.964   3.438
 9924SOL    MW440017   6.745   2.984   3.435
 9925SOL     OW40018   6.532   2.398   3.639
 9925SOL    HW240019   6.622   2.399   3.606
 9925SOL    HW340020   6.491   2.323   3.597
 9925SOL    MW440021   6.538   2.388   3.630
 9926SOL     OW40022   7.107   2.930   2.766
 9926SOL    HW240023   7.110   2.864   2.697
 9926SOL    HW340024   7.192   2.973   2.762
 9926SOL    MW440025   7.119   2.926   2.757
 9927SOL     OW40026   6.727   2.533   2.335
 9927SOL    HW240027   6.753   2.557   2.246
 9927SOL    HW340028   6.709   2.440   2.331
 9927SOL    MW440029   6.729   2.525   2.322
 9928SOL     OW40030   7.392   3.153   2.186
 9928SOL    HW240031   7.348   3.194   2.261
 9928SOL    HW340032   7.449   3.221   2.151
 9928SOL    MW440033   7.394   3.167   2.191
 9929SOL     OW40034   6.312   2.202   3.589
 9929SOL    HW240035   6.322   2.128   3.529
 9929SOL    HW340036   6.348   2.171   3.672
 9929SOL    MW440037   6.318   2.188   3.591
 9930SOL     OW40038   6.048   3.569   2.504
 9930SOL    HW240039   6.080   3.657   2.482
 9930SOL    HW340040   6.001   3.541   2.426
 9930SOL    MW440041   6.047   3.577   2.491
 9931SOL     OW40042   7.432   1.931   2.553
 9931SOL    HW240043   7.486   1.882   2.615
 9931SOL    HW340044   7.375   1.865   2.514
 9931SOL    MW440045   7.432   1.915   2.555
 9932SOL     OW40046   5.764   3.629   2.081
 9932SOL    HW240047   5.793   3.719   2.073
 9932SOL    HW340048   5.714   3.612   2.002
 9932SOL    MW440049   5.762   3.637   2.070
 9933SOL     OW40050   6.551   1.884   2.966
 9933SOL    HW240051   6.510   1.962   2.928
 9933SOL    HW340052   6.645   1.902   2.961
 9933SOL    MW440053   6.557   1.896   2.961
 9934SOL     OW40054   7.168   3.437   2.052
 9934SOL    HW240055   7.216   3.506   2.098
 9934SOL    HW340056   7.089   3.481   2.021
 9934SOL    MW440057   7.163   3.451   2.055
 9935SOL     OW40058   6.566   2.562   1.996
 9935SOL    HW240059   6.568   2.509   1.917
 9935SOL    HW340060   6.654   2.599   2.002
 9935SOL    MW440061   6.578   2.561   1.985
 9936SOL     OW40062   7.180   2.488   2.332
 9936SOL    HW240063   7.219   2.488   2.419
 9936SOL    HW340064   7.121   2.564   2.332
 9936SOL    MW440065   7.177   2.499   2.343
 9937SOL     OW40066   6.497   2.855   3.461
 9937SOL    HW240067   6.474   2.835   3.551
 9937SOL    HW340068   6.582   2.899   3.466
 9937SOL    MW440069   6.504   2.858   3.473
 9938SOL     OW40070   6.577   1.992   3.221
 9938SOL    HW240071   6.583   1.954   3.134
 9938SOL    HW340072   6.566   2.086   3.206
 9938SOL    MW440073   6.578   2.000   3.209
 9939SOL     OW40074   6.666   2.481   3.055
 9939SOL    HW240075   6.741   2.510   3.002
 9939SOL    HW340076   6.598   2.546   3.039
 9939SOL    MW440077   6.667   2.493   3.045
 9940SOL     OW40078   7.216   2.449   3.332
 9940SOL    HW240079   7.197   2.358   3.311
 9940SOL    HW340080   7.194   2.498   3.253
 9940SOL    MW440081   7.211   2.442   3.319
 9941SOL     OW40082   7.358   3.543   3.236
 9941SOL    HW240083   7.286   3.505   3.287
 9941SOL    HW340084   7.375   3.628   3.277
 9941SOL    MW440085   7.352   3.548   3.248
 9942SOL     OW40086   6.663   2.187   3.438
 9942SOL    HW240087   6.629   2.226   3.357
 9942SOL    HW340088   6.641   2.095   3.431
 9942SOL    MW440089   6.656   2.180   3.428
 9943SOL     OW40090   7.072   3.001   3.514
 9943SOL    HW240091   7.154   3.042   3.544
 9943SOL    HW340092   7.035   2.963   3.594
 9943SOL    MW440093   7.078   3.002   3.529
 9944SOL     OW40094   7.367   2.374   2.498
 9944SOL    HW240095   7.456   2.343   2.515
 9944SOL    HW340096   7.310   2.314   2.546
 9944SOL    MW440097   7.370   2.362   2.507
 9945SOL     OW40098   5.793   2.088   2.527
 9945SOL    HW240099   5.784   2.028   2.453
 9945SOL    HW340100   5.726   2.059   2.590
 9945SOL    MW440101   5.783   2.075   2.525
 9946SOL     OW40102   6.736   3.181   2.088
 9946SOL    HW240103   6.686   3.183   2.170
 9946SOL    HW340104   6.670   3.199   2.020
 9946SOL    MW440105   6.722   3.183   2.090
 9947SOL     OW40106   5.740   2.261   2.890
 9947SOL    HW240107   5.712   2.352   2.899
 9947SOL    HW340108   5.677   2.222   2.829
 9947SOL    MW440109   5.727   2.267   2.884
 9948SOL     OW40110   6.199   3.599   2.196
 9948SOL    HW240111   6.120   3.557   2.229
 9948SOL    HW340112   6.265   3.582   2.263
 9948SOL    MW440113   6.198   3.591   2.209
 9949SOL     OW40114   7.327   3.119   3.593
 9949SOL    HW240115   7.377   3.045   3.625
 9949SOL    HW340116   7.273   3.146   3.668
 9949SOL    MW440117   7.327   3.113   3.606
 9950SOL     OW40118   6.335   3.014   1.903
 9950SOL    HW240119   6.257   2.960   1.890
 9950SOL    HW340120   6.306   3.087   1.956
 9950SOL    MW440121   6.321   3.016   1.908
 9951SOL     OW40122   7.461   2.754   3.095
 9951SOL    HW240123   7.477   2.792   3.008
 9951SOL    HW340124   7.495   2.820   3.156
 9951SOL    MW440125   7.468   2.767   3.091
 9952SOL     OW40126   7.253   3.463   2.764
 9952SOL    HW240127   7.282   3.530   2.825
 9952SOL    HW340128   7.234   3.387   2.819
 9952SOL    MW440129   7.255   3.463   2.779
 9953SOL     OW40130   6.916   3.530   1.971
 9953SOL    HW240131   6.842   3.493   2.021
 9953SOL    HW340132   6.924   3.620   2.004
 9953SOL    MW440133   6.907   3.537   1.983
 9954SOL     OW40134   5.724   2.536   3.060
 9954SOL    HW240135   5.786   2.566   3.126
 9954SOL    HW340136   5.658   2.605   3.054
 9954SOL    MW440137   5.723   2.549   3.067
 9955SOL     OW40138   7.140   3.204   1.913
 9955SOL    HW240139   7.087   3.253   1.849
 9955SOL    HW340140   7.171   3.270   1.974
 9955SOL    MW440141   7.138   3.218   1.911
 9956SOL     OW40142   6.365   2.093   1.968
 9956SOL    HW240143   6.313   2.013   1.956
 9956SOL    HW340144   6.452   2.070   1.936
 9956SOL    MW440145   6.368   2.079   1.962
 9957SOL     OW40146   5.819   3.645   3.512
 9957SOL    HW240147   5.793   3.713   3.450
 9957SOL    HW340148   5.867   3.582   3.460
 9957SOL    MW440149   5.821   3.645   3.498
 9958SOL     OW40150   5.871   2.964   3.019
 9958SOL    HW240151   5.924   3.039   3.044
 9958SOL    HW340152   5.790   3.002   2.985
 9958SOL    MW440153   5.867   2.979   3.019
 9959SOL     OW40154   6.411   2.868   3.007
 9959SOL    HW240155   6.439   2.777   3.019
 9959SOL    HW340156   6.340   2.862   2.943
 9959SOL    MW440157   6.404   2.856   3.002
 9960SOL     OW40158   5.726   2.733   2.425
 9960SOL    HW240159   5.817   2.748   2.452
 9960SOL    HW340160   5.729   2.654   2.371
 9960SOL    MW440161   5.738   2.725   2.423
 9961SOL     OW40162   5.962   2.441   3.679
 9961SOL    HW240163   5.909   2.521   3.686
 9961SOL    HW340164   6.032   2.453   3.744
 9961SOL    MW440165   5.964   2.454   3.687
 9962SOL     OW40166   6.348   1.991   3.386
 9962SOL    HW240167   6.325   1.899   3.388
 9962SOL    HW340168   6.434   1.993   3.343
 9962SOL    MW440169   6.355   1.981   3.382
 9963SOL     OW40170   6.032   2.515   3.425
 9963SOL    HW240171   6.112   2.565   3.411
 9963SOL    HW340172   6.023   2.509   3.520
 9963SOL    MW440173   6.041   2.521   3.435
 9964SOL     OW40174   6.353   3.665   2.799
 9964SOL    HW240175   6.442   3.680   2.829
 9964SOL    HW340176   6.348   3.712   2.715
 9964SOL    MW440177   6.363   3.673   2.792
 9965SOL     OW40178   7.009   2.040   3.696
 9965SOL    HW240179   7.065   1.967   3.722
 9965SOL    HW340180   6.979   2.078   3.778
 9965SOL    MW440181   7.013   2.035   3.709
 9966SOL     OW40182   5.734   3.345   2.464
 9966SOL    HW240183   5.706   3.384   2.546
 9966SOL    HW340184   5.754   3.254   2.486
 9966SOL    MW440185   5.732   3.337   2.477
 9967SOL     OW40186   6.567   3.388   2.499
 9967SOL    HW240187   6.650   3.342   2.483
 9967SOL    HW340188   6.557   3.387   2.595
 9967SOL    MW440189   6.577   3.381   2.509
 9968SOL     OW40190   7.399   2.533   2.813
 9968SOL    HW240191   7.488   2.563   2.795
 9968SOL    HW340192   7.379   2.473   2.742
 9968SOL    MW440193   7.408   2.530   2.802
 9969SOL     OW40194   7.250   2.712   3.693
 9969SOL    HW240195   7.305   2.636   3.674
 9969SOL    HW340196   7.252   2.720   3.788
 9969SOL    MW440197   7.258   2.703   3.701
 9970SOL     OW40198   6.300   3.445   1.904
 9970SOL    HW240199   6.240   3.514   1.874
 9970SOL    HW340200   6.245   3.387   1.957
 9970SOL    MW440201   6.284   3.447   1.906
 9971SOL     OW40202   6.738   2.090   2.127
 9971SOL    HW240203   6.671   2.066   2.064
 9971SOL    HW340204   6.803   2.139   2.076
 9971SOL    MW440205   6.738   2.092   2.112
 9972SOL     OW40206   6.545   2.274   3.212
 9972SOL    HW240207   6.464   2.315   3.240
 9972SOL    HW340208   6.592   2.342   3.164
 9972SOL    MW440209   6.540   2.289   3.210
 9973SOL     OW40210   6.805   2.612   2.835
 9973SOL    HW240211   6.818   2.706   2.845
 9973SOL    HW340212   6.766   2.602   2.749
 9973SOL    MW440213   6.801   2.623   2.825
 9974SOL     OW40214   6.257   2.807   2.639
 9974SOL    HW240215   6.168   2.798   2.672
 9974SOL    HW340216   6.261   2.897   2.607
 9974SOL    MW440217   6.246   2.818   2.639
 9975SOL     OW40218   7.056   2.390   2.634
 9975SOL    HW240219   7.001   2.311   2.633
 9975SOL    HW340220   7.038   2.431   2.718
 9975SOL    MW440221   7.046   2.385   2.643
 9976SOL     OW40222   6.027   2.077   3.451
 9976SOL    HW240223   5.948   2.095   3.503
 9976SOL    HW340224   6.022   2.139   3.378
 9976SOL    MW440225   6.017   2.087   3.448
 9977SOL     OW40226   6.675   2.594   2.591
 9977SOL    HW240227   6.612   2.526   2.615
 9977SOL    HW340228   6.695   2.575   2.499
 9977SOL    MW440229   6.669   2.581   2.583
 9978SOL     OW40230   5.931   3.489   2.293
 9978SOL    HW240231   5.892   3.536   2.219
 9978SOL    HW340232   5.865   3.424   2.318
 9978SOL    MW440233   5.918   3.487   2.287
 9979SOL     OW40234   6.423   2.898   2.317
 9979SOL    HW240235   6.425   2.872   2.224
 9979SOL    HW340236   6.481   2.835   2.360
 9979SOL    MW440237   6.431   2.887   2.311
 9980SOL     OW40238   6.976   3.458   3.089
 9980SOL    HW240239   6.901   3.504   3.127
 9980SOL    HW340240   6.958   3.365   3.106
 9980SOL    MW440241   6.965   3.452   3.097
 9981SOL     OW40242   6.980   3.666   2.519
 9981SOL    HW240243   6.923   3.619   2.458
 9981SOL    HW340244   7.066   3.627   2.506
 9981SOL    MW440245   6.983   3.657   2.509
 9982SOL     OW40246   6.933   2.142   2.650
 9982SOL    HW240247   6.961   2.074   2.711
 9982SOL    HW340248   6.847   2.113   2.620
 9982SOL    MW440249   6.926   2.129   2.654
 9983SOL     OW40250   5.738   3.076   2.584
 9983SOL    HW240251   5.802   3.108   2.647
 9983SOL    HW340252   5.787   3.012   2.532
 9983SOL    MW440253   5.753   3.072   2.585
 9984SOL     OW40254   6.238   3.152   3.566
 9984SOL    HW240255   6.286   3.235   3.553
 9984SOL    HW340256   6.295   3.100   3.622
 9984SOL    MW440257   6.252   3.156   3.572
 9985SOL     OW40258   5.814   3.394   3.706
 9985SOL    HW240259   5.870   3.318   3.721
 9985SOL    HW340260   5.763   3.372   3.628
 9985SOL    MW440261   5.814   3.381   3.697
 9986SOL     OW40262   6.913   2.246   1.985
 9986SOL    HW240263   6.886   2.312   1.921
 9986SOL    HW340264   6.983   2.289   2.035
 9986SOL    MW440265   6.918   2.259   1.982
 9987SOL     OW40266   6.581   1.951   1.922
 9987SOL    HW240267   6.637   1.943   1.844
 9987SOL    HW340268   6.558   1.861   1.944
 9987SOL    MW440269   6.586   1.938   1.915
 9988SOL     OW40270   7.086   2.802   2.127
 9988SOL    HW240271   7.053   2.891   2.117
 9988SOL    HW340272   7.051   2.773   2.212
 9988SOL    MW440273   7.076   2.811   2.138
 9989SOL     OW40274   6.699   3.231   3.315
 9989SOL    HW240275   6.610   3.237   3.283
 9989SOL    HW340276   6.743   3.310   3.283
 9989SOL    MW440277   6.694   3.241   3.307
 9990SOL     OW40278   5.992   1.899   3.657
 9990SOL    HW240279   5.920   1.864   3.605
 9990SOL    HW340280   6.050   1.940   3.592
 9990SOL    MW440281   5.990   1.900   3.642
 9991SOL     OW40282   6.016   3.389   2.956
 9991SOL    HW240283   6.061   3.451   3.013
 9991SOL    HW340284   5.923   3.408   2.969
 9991SOL    MW440285   6.009   3.399   2.963
 9992SOL     OW40286   7.456   2.918   3.310
 9992SOL    HW240287   7.371   2.931   3.269
 9992SOL    HW340288   7.436   2.882   3.397
 9992SOL    MW440289   7.443   2.914   3.315
 9993SOL     OW40290   6.438   3.457   3.064
 9993SOL    HW240291   6.462   3.446   2.973
 9993SOL    HW340292   6.361   3.514   3.062
 9993SOL    MW440293   6.430   3.462   3.053
 9994SOL     OW40294   6.080   2.840   1.919
 9994SOL    HW240295   6.003   2.853   1.975
 9994SOL    HW340296   6.044   2.804   1.838
 9994SOL    MW440297   6.066   2.836   1.916
 9995SOL     OW40298   6.733   2.813   2.162
 9995SOL    HW240299   6.643   2.834   2.137
 9995SOL    HW340300   6.760   2.886   2.218
 9995SOL    MW440301   6.725   2.825   2.165
 9996SOL     OW40302   6.233   3.162   2.854
 9996SOL    HW240303   6.226   3.141   2.948
 9996SOL    HW340304   6.151   3.130   2.817
 9996SOL    MW440305   6.221   3.156   2.861
 9997SOL     OW40306   7.097   2.172   3.256
 9997SOL    HW240307   7.044   2.174   3.336
 9997SOL    HW340308   7.082   2.085   3.219
 9997SOL    MW440309   7.089   2.162   3.261
 9998SOL     OW40310   7.433   2.096   3.129
 9998SOL    HW240311   7.414   2.163   3.064
 9998SOL    HW340312   7.490   2.034   3.084
 9998SOL    MW440313   7.437   2.097   3.115
 9999SOL     OW40314   5.679   3.254   3.517
 9999SOL    HW240315   5.723   3.187   3.463
 9999SOL    HW340316   5.594   3.216   3.537
 9999SOL    MW440317   5.674   3.240   3.513
10000SOL     OW40318   6.362   1.929   2.569
10000SOL    HW240319   6.291   1.990   2.551
10000SOL    HW340320   6.413   1.926   2.488
10000SOL    MW440321   6.358   1.935   2.556
10001SOL     OW40322   6.120   3.169   2.318
10001SOL    HW240323   6.113   3.201   2.408
10001SOL    HW340324   6.030   3.153   2.290
10001SOL    MW440325   6.108   3.171   2.325
10002SOL     OW40326   6.715   3.562   3.227
10002SOL    HW240327   6.635   3.547   3.177
10002SOL    HW340328   6.722   3.657   3.234
10002SOL    MW440329   6.706   3.573   3.221
10003SOL     OW40330   6.829   3.527   2.717
10003SOL    HW240331   6.876   3.600   2.676
10003SOL    HW340332   6.750   3.566   2.753
10003SOL    MW440333   6.824   3.542   2.716
10004SOL     OW40334   7.237   3.622   2.992
10004SOL    HW240335   7.280   3.592   3.072
10004SOL    HW340336   7.156   3.570   2.989
10004SOL    MW440337   7.232   3.611   3.002
10005SOL     OW40338   6.322   2.586   3.699
10005SOL    HW240339   6.392   2.528   3.671
10005SOL    HW340340   6.265   2.531   3.754
10005SOL    MW440341   6.324   2.573   3.703
10006SOL     OW40342   7.109   2.798   3.332
10006SOL    HW240343   7.114   2.851   3.412
10006SOL    HW340344   7.071   2.715   3.360
10006SOL    MW440345   7.105   2.793   3.347
10007SOL     OW40346   6.749   1.933   3.578
10007SOL    HW240347   6.744   1.840   3.559
10007SOL    HW340348   6.832   1.944   3.624
10007SOL    MW440349   6.757   1.922   3.582
10008SOL     OW40350   6.123   2.453   2.032
10008SOL    HW240351   6.089   2.509   2.102
10008SOL    HW340352   6.194   2.403   2.072
10008SOL    MW440353   6.129   2.454   2.046
10009SOL     OW40354   7.219   3.204   2.854
10009SOL    HW240355   7.254   3.186   2.767
10009SOL    HW340356   7.124   3.205   2.841
10009SOL    MW440357   7.211   3.201   2.841
10010SOL     OW40358   6.648   2.852   3.223
10010SOL    HW240359   6.691   2.887   3.301
10010SOL    HW340360   6.631   2.929   3.169
10010SOL    MW440361   6.651   2.867   3.226
10011SOL     OW40362   7.179   2.339   2.096
10011SOL    HW240363   7.171   2.410   2.033
10011SOL    HW340364   7.197   2.383   2.179
10011SOL    MW440365   7.180   2.353   2.098
10012SOL     OW40366   6.039   1.994   2.525
10012SOL    HW240367   6.089   2.037   2.456
10012SOL    HW340368   5.954   2.038   2.525
10012SOL    MW440369   6.036   2.007   2.516
10013SOL     OW40370   5.798   3.056   3.385
10013SOL    HW240371   5.826   3.009   3.463
10013SOL    HW340372   5.719   3.011   3.356
10013SOL    MW440373   5.791   3.045   3.391
10014SOL     OW40374   6.306   2.383   3.352
10014SOL    HW240375   6.278   2.471   3.376
10014SOL    HW340376   6.275   2.327   3.423
10014SOL    MW440377   6.298   2.386   3.364
10015SOL     OW40378   6.848   2.601   2.071
10015SOL    HW240379   6.895   2.619   1.990
10015SOL    HW340380   6.814   2.685   2.099
10015SOL    MW440381   6.850   2.615   2.064
10016SOL     OW40382   5.961   2.779   2.565
10016SOL    HW240383   6.019   2.835   2.513
10016SOL    HW340384   6.005   2.694   2.567
10016SOL    MW440385   5.974   2.776   2.558
10017SOL     OW40386   7.101   2.131   2.402
10017SOL    HW240387   7.023   2.081   2.427
10017SOL    HW340388   7.072   2.222   2.402
10017SOL    MW440389   7.087   2.135   2.405
10018SOL     OW40390   6.687   2.093   2.561
10018SOL    HW240391   6.707   2.168   2.505
10018SOL    HW340392   6.667   2.132   2.646
10018SOL    MW440393   6.688   2.109   2.565
10019SOL     OW40394   6.583   3.343   1.893
10019SOL    HW240395   6.610   3.421   1.845
10019SOL    HW340396   6.490   3.358   1.912
10019SOL    MW440397   6.574   3.356   1.889
10020SOL     OW40398   7.447   2.866   3.580
10020SOL    HW240399   7.360   2.846   3.616
10020SOL    HW340400   7.501   2.792   3.605
10020SOL    MW440401   7.442   2.855   3.588
10021SOL     OW40402   5.668   3.379   2.737
10021SOL    HW240403   5.700   3.383   2.828
10021SOL    HW340404   5.573   3.387   2.745
10021SOL    MW440405   5.660   3.382   2.750
10022SOL     OW40406   5.623   2.505   2.284
10022SOL    HW240407   5.563   2.477   2.354
10022SOL    HW340408   5.697   2.445   2.290
10022SOL    MW440409   5.625   2.494   2.293
10023SOL     OW40410   7.191   3.717   3.718
10023SOL    HW240411   7.236   3.641   3.683
10023SOL    HW340412   7.229   3.730   3.805
10023SOL    MW440413   7.201   3.710   3.724
10024SOL     OW40414   6.791   3.236   2.444
10024SOL    HW240415   6.814   3.187   2.522
10024SOL    HW340416   6.872   3.278   2.416
10024SOL    MW440417   6.804   3.236   2.451
10025SOL     OW40418   6.049   2.244   3.173
10025SOL    HW240419   6.082   2.325   3.213
10025SOL    HW340420   6.022   2.270   3.085
10025SOL    MW440421   6.048   2.258   3.167
10026SOL     OW40422   6.003   2.211   2.909
10026SOL    HW240423   6.033   2.125   2.880
10026SOL    HW340424   5.908   2.204   2.912
10026SOL    MW440425   5.995   2.200   2.907
10027SOL     OW40426   6.832   2.420   3.600
10027SOL    HW240427   6.884   2.355   3.553
10027SOL    HW340428   6.790   2.471   3.530
10027SOL    MW440429   6.833   2.417   3.583
10028SOL     OW40430   6.931   2.215   3.461
10028SOL    HW240431   6.838   2.199   3.448
10028SOL    HW340432   6.957   2.153   3.529
10028SOL    MW440433   6.921   2.205   3.468
10029SOL     OW40434   6.146   1.989   2.800
10029SOL    HW240435   6.156   1.898   2.826
10029SOL    HW340436   6.102   1.985   2.715
10029SOL    MW440437   6.142   1.977   2.792
10030SOL     OW40438   6.240   3.604   3.346
10030SOL    HW240439   6.157   3.589   3.391
10030SOL    HW340440   6.299   3.537   3.381
10030SOL    MW440441   6.238   3.594   3.356
10031SOL     OW40442   7.297   2.311   2.971
10031SOL    HW240443   7.230   2.344   3.031
10031SOL    HW340444   7.340   2.389   2.937
10031SOL    MW440445   7.295   2.326   2.975
10032SOL     OW40446   7.475   3.031   2.941
10032SOL    HW240447   7.468   2.971   2.866
10032SOL    HW340448   7.401   3.091   2.930
10032SOL    MW440449   7.465   3.031   2.930
10033SOL     OW40450   6.857   2.893   2.859
10033SOL    HW240451   6.871   2.865   2.950
10033SOL    HW340452   6.943   2.924   2.831
10033SOL    MW440453   6.870   2.894   2.868
10034SOL     OW40454   6.940   2.388   3.138
10034SOL    HW240455   6.961   2.389   3.045
10034SOL    HW340456   6.985   2.310   3.171
10034SOL    MW440457   6.947   2.378   3.130
10035SOL     OW40458   7.433   2.519   3.680
10035SOL    HW240459   7.470   2.464   3.749
10035SOL    HW340460   7.458   2.476   3.598
10035SOL    MW440461   7.440   2.507   3.679
10036SOL     OW40462   6.980   2.817   3.731
10036SOL    HW240463   7.046   2.765   3.685
10036SOL    HW340464   7.000   2.804   3.824
10036SOL    MW440465   6.991   2.808   3.738
10037SOL     OW40466   6.931   1.903   2.080
10037SOL    HW240467   7.005   1.947   2.123
10037SOL    HW340468   6.855   1.957   2.102
10037SOL    MW440469   6.931   1.915   2.088
10038SOL     OW40470   6.991   2.678   2.358
10038SOL    HW240471   6.906   2.648   2.328
10038SOL    HW340472   6.983   2.685   2.453
10038SOL    MW440473   6.979   2.676   2.367
10039SOL     OW40474   6.067   3.141   3.089
10039SOL    HW240475   6.079   3.168   3.180
10039SOL    HW340476   6.048   3.222   3.042
10039SOL    MW440477   6.066   3.156   3.094
10040SOL     OW40478   6.351   2.121   2.912
10040SOL    HW240479   6.324   2.123   3.003
10040SOL    HW340480   6.281   2.073   2.867
10040SOL    MW440481   6.339   2.117   2.919
10041SOL     OW40482   6.205   3.613   3.074
10041SOL    HW240483   6.257   3.690   3.051
10041SOL    HW340484   6.214   3.605   3.169
10041SOL    MW440485   6.214   3.620   3.085
10042SOL     OW40486   7.107   3.198   3.306
10042SOL    HW240487   7.092   3.127   3.369
10042SOL    HW340488   7.153   3.156   3.234
10042SOL    MW440489   7.113   3.182   3.306
10043SOL     OW40490   6.181   2.929   3.423
10043SOL    HW240491   6.218   2.934   3.335
10043SOL    HW340492   6.220   3.002   3.470
10043SOL    MW440493   6.191   2.939   3.418
10044SOL     OW40494   6.361   2.972   3.235
10044SOL    HW240495   6.420   2.918   3.288
10044SOL    HW340496   6.376   2.944   3.145
10044SOL    MW440497   6.371   2.961   3.231
10045SOL     OW40498   6.364   2.344   2.084
10045SOL    HW240499   6.437   2.393   2.047
10045SOL    HW340500   6.380   2.253   2.058
10045SOL    MW440501   6.376   2.339   2.077
10046SOL     OW40502   7.172   3.461   3.407
10046SOL    HW240503   7.214   3.446   3.492
10046SOL    HW340504   7.163   3.374   3.369
10046SOL    MW440505   7.176   3.449   3.414
10047SOL     OW40506   6.832   1.940   2.998
10047SOL    HW240507   6.887   1.949   2.920
10047SOL    HW340508   6.887   1.974   3.069
10047SOL    MW440509   6.846   1.945   2.997
10048SOL     OW40510   5.839   2.853   2.182
10048SOL    HW240511   5.776   2.869   2.111
10048SOL    HW340512   5.786   2.816   2.253
10048SOL    MW440513   5.824   2.850   2.182
10049SOL     OW40514   6.195   3.207   2.041
10049SOL    HW240515   6.210   3.183   2.133
10049SOL    HW340516   6.103   3.185   2.025
10049SOL    MW440517   6.185   3.200   2.051
10050SOL     OW40518   6.734   3.438   2.193
10050SOL    HW240519   6.742   3.356   2.144
10050SOL    HW340520   6.653   3.477   2.160
10050SOL    MW440521   6.724   3.433   2.183
10051SOL     OW40522   5.993   3.596   2.762
10051SOL    HW240523   5.997   3.507   2.797
10051SOL    HW340524   6.019   3.587   2.671
10051SOL    MW440525   5.996   3.584   2.754
10052SOL     OW40526   6.610   3.074   3.005
10052SOL    HW240527   6.542   3.008   3.021
10052SOL    HW340528   6.628   3.068   2.912
10052SOL    MW440529   6.603   3.065   2.996
10053SOL     OW40530   5.699   3.349   3.256
10053SOL    HW240531   5.689   3.307   3.342
10053SOL    HW340532   5.620   3.402   3.246
10053SOL    MW440533   5.688   3.350   3.267
10054SOL     OW40534   6.603   2.213   2.826
10054SOL    HW240535   6.533   2.165   2.871
10054SOL    HW340536   6.635   2.276   2.890
10054SOL    MW440537   6.598   2.215   2.840
10055SOL     OW40538   6.254   2.649   3.446
10055SOL    HW240539   6.247   2.744   3.434
10055SOL    HW340540   6.263   2.638   3.541
10055SOL    MW440541   6.255   2.661   3.456
10056SOL     OW40542   5.975   3.164   3.704
10056SOL    HW240543   6.047   3.166   3.641
10056SOL    HW340544   5.945   3.073   3.703
10056SOL    MW440545   5.980   3.153   3.696
10057SOL     OW40546   7.059   1.927   3.171
10057SOL    HW240547   7.130   1.873   3.135
10057SOL    HW340548   7.058   1.906   3.264
10057SOL    MW440549   7.068   1.918   3.179
10058SOL     OW40550   7.259   3.457   3.655
10058SOL    HW240551   7.232   3.454   3.746
10058SOL    HW340552   7.355   3.461   3.658
10058SOL    MW440553   7.269   3.457   3.667
10059SOL     OW40554   6.070   2.319   2.639
10059SOL    HW240555   6.141   2.267   2.602
10059SOL    HW340556   6.056   2.284   2.726
10059SOL    MW440557   6.078   2.308   2.646
10060SOL     OW40558   5.625   3.654   3.711
10060SOL    HW240559   5.675   3.632   3.633
10060SOL    HW340560   5.633   3.749   3.719
10060SOL    MW440561   5.633   3.663   3.702
10061SOL     OW40562   6.386   3.412   2.715
10061SOL    HW240563   6.314   3.349   2.728
10061SOL    HW340564   6.347   3.497   2.733
10061SOL    MW440565   6.370   3.415   2.718
10062SOL     OW40566   6.706   2.260   2.363
10062SOL    HW240567   6.728   2.197   2.295
10062SOL    HW340568   6.611   2.252   2.374
10062SOL    MW440569   6.696   2.251   2.355
10063SOL     OW40570   5.791   1.950   2.295
10063SOL    HW240571   5.862   1.971   2.234
10063SOL    HW340572   5.745   1.878   2.253
10063SOL    MW440573   5.795   1.944   2.281
10064SOL     OW40574   5.622   2.417   3.438
10064SOL    HW240575   5.686   2.483   3.413
10064SOL    HW340576   5.541   2.444   3.395
10064SOL    MW440577   5.620   2.429   3.430
10065SOL     OW40578   7.360   3.324   2.395
10065SOL    HW240579   7.330   3.257   2.456
10065SOL    HW340580   7.454   3.330   2.409
10065SOL    MW440581   7.368   3.316   2.405
10066SOL     OW40582   6.916   3.001   2.325
10066SOL    HW240583   6.888   3.087   2.358
10066SOL    HW340584   6.944   3.017   2.235
10066SOL    MW440585   6.916   3.015   2.317
10067SOL     OW40586   6.578   1.921   2.378
10067SOL    HW240587   6.615   1.980   2.443
10067SOL    HW340588   6.555   1.977   2.304
10067SOL    MW440589   6.579   1.936   2.377
10068SOL     OW40590   7.431   2.803   2.800
10068SOL    HW240591   7.422   2.835   2.711
10068SOL    HW340592   7.384   2.719   2.800
10068SOL    MW440593   7.424   2.796   2.790
10069SOL     OW40594   5.807   2.643   3.379
10069SOL    HW240595   5.828   2.712   3.317
10069SOL    HW340596   5.887   2.590   3.384
10069SOL    MW440597   5.820   2.644   3.373
10070SOL     OW40598   7.343   2.734   2.501
10070SOL    HW240599   7.437   2.723   2.489
10070SOL    HW340600   7.319   2.806   2.442
10070SOL    MW440601   7.353   2.742   2.492
10071SOL     OW40602   5.792   2.658   3.646
10071SOL    HW240603   5.718   2.602   3.672
10071SOL    HW340604   5.787   2.661   3.551
10071SOL    MW440605   5.781   2.651   3.636
10072SOL     OW40606   5.958   1.945   3.096
10072SOL    HW240607   6.001   2.029   3.116
10072SOL    HW340608   6.031   1.883   3.089
10072SOL    MW440609   5.973   1.948   3.097
10073SOL     OW40610   5.999   2.612   2.274
10073SOL    HW240611   5.999   2.707   2.259
10073SOL    HW340612   6.076   2.596   2.328
10073SOL    MW440613   6.009   2.623   2.279
10074SOL     OW40614   6.775   2.471   3.338
10074SOL    HW240615   6.811   2.444   3.254
10074SOL    HW340616   6.688   2.505   3.317
10074SOL    MW440617   6.769   2.472   3.325
10075SOL     OW40618   5.758   2.343   2.563
10075SOL    HW240619   5.820   2.350   2.636
10075SOL    HW340620   5.758   2.250   2.540
10075SOL    MW440621   5.766   2.332   2.570
10076SOL     OW40622   7.305   3.683   2.095
10076SOL    HW240623   7.372   3.716   2.035
10076SOL    HW340624   7.262   3.762   2.129
10076SOL    MW440625   7.307   3.698   2.091
10077SOL     OW40626   6.440   2.604   3.047
10077SOL    HW240627   6.398   2.522   3.023
10077SOL    HW340628   6.441   2.603   3.143
10077SOL    MW440629   6.433   2.593   3.056
10078SOL     OW40630   7.111   3.737   3.446
10078SOL    HW240631   7.114   3.643   3.429
10078SOL    HW340632   7.134   3.745   3.538
10078SOL    MW440633   7.114   3.725   3.456
10079SOL     OW40634   6.244   2.074   3.152
10079SOL    HW240635   6.175   2.137   3.173
10079SOL    HW340636   6.271   2.038   3.237
10079SOL    MW440637   6.238   2.077   3.165
10080SOL     OW40638   5.627   2.915   2.021
10080SOL    HW240639   5.596   2.980   2.084
10080SOL    HW340640   5.576   2.837   2.040
10080SOL    MW440641   5.617   2.912   2.031
10081SOL     OW40642   7.039   1.927   2.769
10081SOL    HW240643   7.127   1.936   2.806
10081SOL    HW340644   7.049   1.868   2.695
10081SOL    MW440645   7.053   1.921   2.763
10082SOL     OW40646   7.071   2.666   2.613
10082SOL    HW240647   7.151   2.681   2.562
10082SOL    HW340648   7.064   2.571   2.619
10082SOL    MW440649   7.080   2.655   2.608
10083SOL     OW40650   6.211   3.715   1.963
10083SOL    HW240651   6.116   3.715   1.955
10083SOL    HW340652   6.227   3.661   2.041
10083SOL    MW440653   6.201   3.709   1.972
10084SOL     OW40654   6.521   2.592   3.310
10084SOL    HW240655   6.590   2.659   3.307
10084SOL    HW340656   6.454   2.630   3.366
10084SOL    MW440657   6.522   2.605   3.317
10085SOL     OW40658   5.939   2.892   3.558
10085SOL    HW240659   5.893   2.808   3.560
10085SOL    HW340660   5.996   2.886   3.482
10085SOL    MW440661   5.941   2.880   3.550
10086SOL     OW40662   7.056   2.535   1.879
10086SOL    HW240663   6.984   2.511   1.821
10086SOL    HW340664   7.122   2.572   1.821
10086SOL    MW440665   7.055   2.537   1.864
10087SOL     OW40666   6.190   3.267   2.559
10087SOL    HW240667   6.255   3.200   2.580
10087SOL    HW340668   6.242   3.344   2.536
10087SOL    MW440669   6.205   3.269   2.558
10088SOL     OW40670   6.451   2.432   2.689
10088SOL    HW240671   6.391   2.450   2.761
10088SOL    HW340672   6.485   2.344   2.708
10088SOL    MW440673   6.447   2.422   2.702
10089SOL     OW40674   7.392   1.931   3.358
10089SOL    HW240675   7.313   1.977   3.386
10089SOL    HW340676   7.427   1.985   3.287
10089SOL    MW440677   7.386   1.944   3.352
10090SOL     OW40678   6.676   3.015   2.708
10090SOL    HW240679   6.768   2.996   2.726
10090SOL    HW340680   6.649   2.945   2.648
10090SOL    MW440681   6.684   3.003   2.702
10091SOL     OW40682   6.469   2.835   2.063
10091SOL    HW240683   6.455   2.747   2.028
10091SOL    HW340684   6.420   2.892   2.004
10091SOL    MW440685   6.461   2.830   2.051
10092SOL     OW40686   6.950   3.253   2.804
10092SOL    HW240687   6.923   3.337   2.769
10092SOL    HW340688   6.910   3.248   2.891
10092SOL    MW440689   6.943   3.262   2.810
10093SOL     OW40690   6.869   3.201   3.072
10093SOL    HW240691   6.880   3.168   3.161
10093SOL    HW340692   6.788   3.160   3.041
10093SOL    MW440693   6.859   3.193   3.078
10094SOL     OW40694   5.882   2.559   2.842
10094SOL    HW240695   5.832   2.558   2.923
10094SOL    HW340696   5.902   2.651   2.826
10094SOL    MW440697   5.878   2.571   2.850
10095SOL     OW40698   6.949   3.323   3.604
10095SOL    HW240699   6.949   3.417   3.620
10095SOL    HW340700   6.994   3.313   3.520
10095SOL    MW440701   6.955   3.333   3.595
10096SOL     OW40702   7.188   2.041   2.165
10096SOL    HW240703   7.181   2.045   2.260
10096SOL    HW340704   7.200   2.132   2.138
10096SOL    MW440705   7.189   2.054   2.173
10097SOL     OW40706   6.477   2.604   2.279
10097SOL    HW240707   6.457   2.590   2.186
10097SOL    HW340708   6.570   2.583   2.286
10097SOL    MW440709   6.487   2.599   2.268
10098SOL     OW40710   5.804   2.227   3.583
10098SOL    HW240711   5.761   2.286   3.520
10098SOL    HW340712   5.872   2.282   3.623
10098SOL    MW440713   5.808   2.242   3.580
10099SOL     OW40714   6.916   2.847   3.128
10099SOL    HW240715   6.979   2.844   3.201
10099SOL    HW340716   6.832   2.865   3.170
10099SOL    MW440717   6.912   2.849   3.143
10100SOL     OW40718   6.460   3.562   2.317
10100SOL    HW240719   6.518   3.633   2.344
10100SOL    HW340720   6.483   3.490   2.375
10100SOL    MW440721   6.471   3.562   2.328
10101SOL     OW40722   7.255   2.024   2.907
10101SOL    HW240723   7.300   1.942   2.926
10101SOL    HW340724   7.275   2.080   2.983
10101SOL    MW440725   7.265   2.020   2.919
10102SOL     OW40726   5.703   1.867   3.006
10102SOL    HW240727   5.694   1.868   2.911
10102SOL    HW340728   5.797   1.879   3.021
10102SOL    MW440729   5.715   1.870   2.997
10103SOL     OW40730   7.340   3.060   2.626
10103SOL    HW240731   7.319   3.006   2.549
10103SOL    HW340732   7.436   3.058   2.630
10103SOL    MW440733   7.349   3.053   2.615
10104SOL     OW40734   6.032   3.205   3.369
10104SOL    HW240735   5.953   3.155   3.392
10104SOL    HW340736   6.102   3.164   3.419
10104SOL    MW440737   6.030   3.193   3.379
10105SOL     OW40738   5.916   1.994   2.052
10105SOL    HW240739   5.845   2.049   2.020
10105SOL    HW340740   5.958   1.960   1.973
10105SOL    MW440741   5.912   1.996   2.038
10106SOL     OW40742   7.040   2.491   2.888
10106SOL    HW240743   6.963   2.537   2.854
10106SOL    HW340744   7.097   2.560   2.922
10106SOL    MW440745   7.037   2.506   2.888
10107SOL     OW40746   5.672   2.093   1.901
10107SOL    HW240747   5.639   2.172   1.945
10107SOL    HW340748   5.727   2.126   1.830
10107SOL    MW440749   5.675   2.107   1.898
10108SOL     OW40750   5.706   3.350   2.090
10108SOL    HW240751   5.723   3.434   2.132
10108SOL    HW340752   5.741   3.359   2.002
10108SOL    MW440753   5.711   3.363   2.084
10109SOL     OW40754   6.978   3.439   2.307
10109SOL    HW240755   7.041   3.429   2.236
10109SOL    HW340756   6.895   3.459   2.262
10109SOL    MW440757   6.975   3.440   2.292
10110SOL     OW40758   7.341   2.707   3.993
10110SOL    HW240759   7.382   2.649   4.058
10110SOL    HW340760   7.248   2.699   4.010
10110SOL    MW440761   7.335   2.699   4.003
10111SOL     OW40762   7.207   2.639   4.988
10111SOL    HW240763   7.162   2.706   5.039
10111SOL    HW340764   7.295   2.675   4.974
10111SOL    MW440765   7.213   2.652   4.992
10112SOL     OW40766   6.135   2.890   4.222
10112SOL    HW240767   6.225   2.865   4.206
10112SOL    HW340768   6.131   2.983   4.199
10112SOL    MW440769   6.147   2.899   4.217
10113SOL     OW40770   7.251   3.593   4.364
10113SOL    HW240771   7.263   3.539   4.442
10113SOL    HW340772   7.288   3.541   4.293
10113SOL    MW440773   7.257   3.578   4.365
10114SOL     OW40774   6.630   3.478   5.365
10114SOL    HW240775   6.671   3.514   5.286
10114SOL    HW340776   6.665   3.389   5.372
10114SOL    MW440777   6.641   3.471   5.356
10115SOL     OW40778   7.187   3.033   4.969
10115SOL    HW240779   7.108   2.998   4.927
10115SOL    HW340780   7.214   3.105   4.913
10115SOL    MW440781   7.180   3.038   4.956
10116SOL     OW40782   6.419   2.346   4.235
10116SOL    HW240783   6.394   2.434   4.263
10116SOL    HW340784   6.416   2.349   4.139
10116SOL    MW440785   6.415   2.358   4.227
10117SOL     OW40786   5.861   2.374   4.163
10117SOL    HW240787   5.893   2.462   4.145
10117SOL    HW340788   5.849   2.372   4.258
10117SOL    MW440789   5.864   2.386   4.175
10118SOL     OW40790   5.939   2.787   5.064
10118SOL    HW240791   6.002   2.734   5.015
10118SOL    HW340792   5.920   2.861   5.007
10118SOL    MW440793   5.945   2.789   5.051
10119SOL     OW40794   6.260   2.129   4.250
10119SOL    HW240795   6.318   2.205   4.252
10119SOL    HW340796   6.195   2.150   4.183
10119SOL    MW440797   6.259   2.141   4.241
10120SOL     OW40798   6.347   3.056   4.425
10120SOL    HW240799   6.427   3.059   4.477
10120SOL    HW340800   6.375   3.023   4.339
10120SOL    MW440801   6.361   3.052   4.420
10121SOL     OW40802   6.372   3.397   5.328
10121SOL    HW240803   6.456   3.423   5.367
10121SOL    HW340804   6.396   3.341   5.254
10121SOL    MW440805   6.386   3.393   5.323
10122SOL     OW40806   6.124   2.560   4.416
10122SOL    HW240807   6.109   2.480   4.467
10122SOL    HW340808   6.206   2.595   4.450
10122SOL    MW440809   6.132   2.552   4.428
10123SOL     OW40810   6.461   3.246   5.101
10123SOL    HW240811   6.425   3.312   5.041
10123SOL    HW340812   6.389   3.184   5.114
10123SOL    MW440813   6.447   3.246   5.095
10124SOL     OW40814   6.266   2.386   4.793
10124SOL    HW240815   6.172   2.382   4.811
10124SOL    HW340816   6.296   2.295   4.802
10124SOL    MW440817   6.257   2.374   4.796
10125SOL     OW40818   6.012   2.800   4.697
10125SOL    HW240819   5.967   2.807   4.613
10125SOL    HW340820   5.992   2.883   4.741
10125SOL    MW440821   6.004   2.812   4.691
10126SOL     OW40822   5.709   3.646   4.572
10126SOL    HW240823   5.798   3.638   4.607
10126SOL    HW340824   5.673   3.558   4.577
10126SOL    MW440825   5.716   3.633   4.577
10127SOL     OW40826   6.974   3.038   3.941
10127SOL    HW240827   6.892   3.074   3.907
10127SOL    HW340828   7.042   3.081   3.890
10127SOL    MW440829   6.972   3.048   3.929
10128SOL     OW40830   5.973   3.173   4.607
10128SOL    HW240831   5.949   3.226   4.683
10128SOL    HW340832   6.029   3.231   4.555
10128SOL    MW440833   5.977   3.188   4.610
10129SOL     OW40834   6.535   2.817   4.417
10129SOL    HW240835   6.449   2.804   4.457
10129SOL    HW340836   6.588   2.744   4.449
10129SOL    MW440837   6.531   2.806   4.426
10130SOL     OW40838   5.943   3.469   5.202
10130SOL    HW240839   5.851   3.445   5.187
10130SOL    HW340840   5.987   3.386   5.219
10130SOL    MW440841   5.937   3.454   5.201
10131SOL     OW40842   6.526   3.179   4.134
10131SOL    HW240843   6.503   3.241   4.202
10131SOL    HW340844   6.483   3.097   4.160
10131SOL    MW440845   6.518   3.175   4.145
10132SOL     OW40846   7.399   2.180   4.590
10132SOL    HW240847   7.336   2.160   4.659
10132SOL    HW340848   7.389   2.109   4.527
10132SOL    MW440849   7.389   2.167   4.591
10133SOL     OW40850   6.023   2.152   4.102
10133SOL    HW240851   5.997   2.114   4.018
10133SOL    HW340852   5.960   2.222   4.118
10133SOL    MW440853   6.012   2.155   4.093
10134SOL     OW40854   5.858   3.113   4.139
10134SOL    HW240855   5.806   3.181   4.095
10134SOL    HW340856   5.855   3.039   4.079
10134SOL    MW440857   5.850   3.112   4.126
10135SOL     OW40858   6.520   3.576   3.917
10135SOL    HW240859   6.475   3.592   4.000
10135SOL    HW340860   6.451   3.541   3.859
10135SOL    MW440861   6.506   3.573   3.919
10136SOL     OW40862   7.455   2.349   3.892
10136SOL    HW240863   7.364   2.351   3.920
10136SOL    HW340864   7.500   2.411   3.950
10136SOL    MW440865   7.448   2.357   3.902
10137SOL     OW40866   7.200   2.952   4.242
10137SOL    HW240867   7.110   2.952   4.277
10137SOL    HW340868   7.193   2.998   4.159
10137SOL    MW440869   7.187   2.958   4.236
10138SOL     OW40870   7.000   2.587   5.314
10138SOL    HW240871   7.069   2.525   5.291
10138SOL    HW340872   6.925   2.561   5.261
10138SOL    MW440873   7.000   2.574   5.305
10139SOL     OW40874   5.741   3.467   4.866
10139SOL    HW240875   5.724   3.413   4.943
10139SOL    HW340876   5.729   3.557   4.896
10139SOL    MW440877   5.738   3.471   4.880
10140SOL     OW40878   6.736   2.974   5.306
10140SOL    HW240879   6.721   3.067   5.291
10140SOL    HW340880   6.831   2.964   5.306
10140SOL    MW440881   6.745   2.984   5.303
10141SOL     OW40882   6.532   2.398   5.507
10141SOL    HW240883   6.622   2.399   5.474
10141SOL    HW340884   6.491   2.323   5.465
10141SOL    MW440885   6.538   2.388   5.498
10142SOL     OW40886   7.107   2.930   4.634
10142SOL    HW240887   7.110   2.864   4.565
10142SOL    HW340888   7.192   2.973   4.630
10142SOL    MW440889   7.119   2.926   4.625
10143SOL     OW40890   6.727   2.533   4.203
10143SOL    HW240891   6.753   2.557   4.114
10143SOL    HW340892   6.709   2.440   4.199
10143SOL    MW440893   6.729   2.525   4.190
10144SOL     OW40894   7.392   3.153   4.054
10144SOL    HW240895   7.348   3.194   4.129
10144SOL    HW340896   7.449   3.221   4.019
10144SOL    MW440897   7.394   3.167   4.059
10145SOL     OW40898   6.312   2.202   5.457
10145SOL    HW240899   6.322   2.128   5.397
10145SOL    HW340900   6.348   2.171   5.540
10145SOL    MW440901   6.318   2.188   5.459
10146SOL     OW40902   6.048   3.569   4.372
10146SOL    HW240903   6.080   3.657   4.350
10146SOL    HW340904   6.001   3.541   4.294
10146SOL    MW440905   6.047   3.577   4.359
10147SOL     OW40906   7.432   1.931   4.421
10147SOL    HW240907   7.486   1.882   4.483
10147SOL    HW340908   7.375   1.865   4.382
10147SOL    MW440909   7.432   1.915   4.423
10148SOL     OW40910   5.764   3.629   3.949
10148SOL    HW240911   5.793   3.719   3.941
10148SOL    HW340912   5.714   3.612   3.870
10148SOL    MW440913   5.762   3.637   3.938
10149SOL     OW40914   6.551   1.884   4.834
10149SOL    HW240915   6.510   1.962   4.796
10149SOL    HW340916   6.645   1.902   4.829
10149SOL    MW440917   6.557   1.896   4.829
10150SOL     OW40918   7.168   3.437   3.920
10150SOL    HW240919   7.216   3.506   3.966
10150SOL    HW340920   7.089   3.481   3.889
10150SOL    MW440921   7.163   3.451   3.923
10151SOL     OW40922   6.566   2.562   3.864
10151SOL    HW240923   6.568   2.509   3.785
10151SOL    HW340924   6.654   2.599   3.870
10151SOL    MW440925   6.578   2.561   3.853
10152SOL     OW40926   7.180   2.488   4.200
10152SOL    HW240927   7.219   2.488   4.287
10152SOL    HW340928   7.121   2.564   4.200
10152SOL    MW440929   7.177   2.499   4.211
10153SOL     OW40930   6.497   2.855   5.329
10153SOL    HW240931   6.474   2.835   5.419
10153SOL    HW340932   6.582   2.899   5.334
10153SOL    MW440933   6.504   2.858   5.341
10154SOL     OW40934   6.577   1.992   5.089
10154SOL    HW240935   6.583   1.954   5.002
10154SOL    HW340936   6.566   2.086   5.074
10154SOL    MW440937   6.578   2.000   5.077
10155SOL     OW40938   6.666   2.481   4.923
10155SOL    HW240939   6.741   2.510   4.870
10155SOL    HW340940   6.598   2.546   4.907
10155SOL    MW440941   6.667   2.493   4.913
10156SOL     OW40942   7.216   2.449   5.200
10156SOL    HW240943   7.197   2.358   5.179
10156SOL    HW340944   7.194   2.498   5.121
10156SOL    MW440945   7.211   2.442   5.187
10157SOL     OW40946   7.358   3.543   5.104
10157SOL    HW240947   7.286   3.505   5.155
10157SOL    HW340948   7.375   3.628   5.145
10157SOL    MW440949   7.352   3.548   5.116
10158SOL     OW40950   6.663   2.187   5.306
10158SOL    HW240951   6.629   2.226   5.225
10158SOL    HW340952   6.641   2.095   5.299
10158SOL    MW440953   6.656   2.180   5.296
10159SOL     OW40954   7.072   3.001   5.382
10159SOL    HW240955   7.154   3.042   5.412
10159SOL    HW340956   7.035   2.963   5.462
10159SOL    MW440957   7.078   3.002   5.397
10160SOL     OW40958   7.367   2.374   4.366
10160SOL    HW240959   7.456   2.343   4.383
10160SOL    HW340960   7.310   2.314   4.414
10160SOL    MW440961   7.370   2.362   4.375
10161SOL     OW40962   5.793   2.088   4.395
10161SOL    HW240963   5.784   2.028   4.321
10161SOL    HW340964   5.726   2.059   4.458
10161SOL    MW440965   5.783   2.075   4.393
10162SOL     OW40966   6.736   3.181   3.956
10162SOL    HW240967   6.686   3.183   4.038
10162SOL    HW340968   6.670   3.199   3.888
10162SOL    MW440969   6.722   3.183   3.958
10163SOL     OW40970   5.740   2.261   4.758
10163SOL    HW240971   5.712   2.352   4.767
10163SOL    HW340972   5.677   2.222   4.697
10163SOL    MW440973   5.727   2.267   4.752
10164SOL     OW40974   6.199   3.599   4.064
10164SOL    HW240975   6.120   3.557   4.097
10164SOL    HW340976   6.265   3.582   4.131
10164SOL    MW440977   6.198   3.591   4.077
10165SOL     OW40978   7.327   3.119   5.461
10165SOL    HW240979   7.377   3.045   5.493
10165SOL    HW340980   7.273   3.146   5.536
10165SOL    MW440981   7.327   3.113   5.474
10166SOL     OW40982   6.335   3.014   3.771
10166SOL    HW240983   6.257   2.960   3.758
10166SOL    HW340984   6.306   3.087   3.824
10166SOL    MW440985   6.321   3.016   3.776
10167SOL     OW40986   7.461   2.754   4.963
10167SOL    HW240987   7.477   2.792   4.876
10167SOL    HW340988   7.495   2.820   5.024
10167SOL    MW440989   7.468   2.767   4.959
10168SOL     OW40990   7.253   3.463   4.632
10168SOL    HW240991   7.282   3.530   4.693
10168SOL    HW340992   7.234   3.387   4.687
10168SOL    MW440993   7.255   3.463   4.647
10169SOL     OW40994   6.916   3.530   3.839
10169SOL    HW240995   6.842   3.493   3.889
10169SOL    HW340996   6.924   3.620   3.872
10169SOL    MW440997   6.907   3.537   3.851
10170SOL     OW40998   5.724   2.536   4.928
10170SOL    HW240999   5.786   2.566   4.994
10170SOL    HW341000   5.658   2.605   4.922
10170SOL    MW441001   5.723   2.549   4.935
10171SOL     OW41002   7.140   3.204   3.781
10171SOL    HW241003   7.087   3.253   3.717
10171SOL    HW341004   7.171   3.270   3.842
10171SOL    MW441005   7.138   3.218   3.779
10172SOL     OW41006   6.365   2.093   3.836
10172SOL    HW241007   6.313   2.013   3.824
10172SOL    HW341008   6.452   2.070   3.804
10172SOL    MW441009   6.368   2.079   3.830
10173SOL     OW41010   5.819   3.645   5.380
10173SOL    HW241011   5.793   3.713   5.318
10173SOL    HW341012   5.867   3.582   5.328
10173SOL    MW441013   5.821   3.645   5.366
10174SOL     OW41014   5.871   2.964   4.887
10174SOL    HW241015   5.924   3.039   4.912
10174SOL    HW341016   5.790   3.002   4.853
10174SOL    MW441017   5.867   2.979   4.887
10175SOL     OW41018   6.411   2.868   4.875
10175SOL    HW241019   6.439   2.777   4.887
10175SOL    HW341020   6.340   2.862   4.811
10175SOL    MW441021   6.404   2.856   4.870
10176SOL     OW41022   5.726   2.733   4.293
10176SOL    HW241023   5.817   2.748   4.320
10176SOL    HW341024   5.729   2.654   4.239
10176SOL    MW441025   5.738   2.725   4.291
10177SOL     OW41026   5.962   2.441   5.547
10177SOL    HW241027   5.909   2.521   5.554
10177SOL    HW341028   6.032   2.453   5.612
10177SOL    MW441029   5.964   2.454   5.555
10178SOL     OW41030   6.348   1.991   5.254
10178SOL    HW241031   6.325   1.899   5.256
10178SOL    HW341032   6.434   1.993   5.211
10178SOL    MW441033   6.355   1.981   5.250
10179SOL     OW41034   6.032   2.515   5.293
10179SOL    HW241035   6.112   2.565   5.279
10179SOL    HW341036   6.023   2.509   5.388
10179SOL    MW441037   6.041   2.521   5.303
10180SOL     OW41038   6.353   3.665   4.667
10180SOL    HW241039   6.442   3.680   4.697
10180SOL    HW341040   6.348   3.712   4.583
10180SOL    MW441041   6.363   3.673   4.660
10181SOL     OW41042   7.009   2.040   5.564
10181SOL    HW241043   7.065   1.967   5.590
10181SOL    HW341044   6.979   2.078   5.646
10181SOL    MW441045   7.013   2.035   5.577
10182SOL     OW41046   5.734   3.345   4.332
10182SOL    HW241047   5.706   3.384   4.414
10182SOL    HW341048   5.754   3.254   4.354
10182SOL    MW441049   5.732   3.337   4.345
10183SOL     OW41050   6.567   3.388   4.367
10183SOL    HW241051   6.650   3.342   4.351
10183SOL    HW341052   6.557   3.387   4.463
10183SOL    MW441053   6.577   3.381   4.377
10184SOL     OW41054   7.399   2.533   4.681
10184SOL    HW241055   7.488   2.563   4.663
10184SOL    HW341056   7.379   2.473   4.610
10184SOL    MW441057   7.408   2.530   4.670
10185SOL     OW41058   7.250   2.712   5.561
10185SOL    HW241059   7.305   2.636   5.542
10185SOL    HW341060   7.252   2.720   5.656
10185SOL    MW441061   7.258   2.703   5.569
10186SOL     OW41062   6.300   3.445   3.772
10186SOL    HW241063   6.240   3.514   3.742
10186SOL    HW341064   6.245   3.387   3.825
10186SOL    MW441065   6.284   3.447   3.774
10187SOL     OW41066   6.738   2.090   3.995
10187SOL    HW241067   6.671   2.066   3.932
10187SOL    HW341068   6.803   2.139   3.944
10187SOL    MW441069   6.738   2.092   3.980
10188SOL     OW41070   6.545   2.274   5.080
10188SOL    HW241071   6.464   2.315   5.108
10188SOL    HW341072   6.592   2.342   5.032
10188SOL    MW441073   6.540   2.289   5.078
10189SOL     OW41074   6.805   2.612   4.703
10189SOL    HW241075   6.818   2.706   4.713
10189SOL    HW341076   6.766   2.602   4.617
10189SOL    MW441077   6.801   2.623   4.693
10190SOL     OW41078   6.257   2.807   4.507
10190SOL    HW241079   6.168   2.798   4.540
10190SOL    HW341080   6.261   2.897   4.475
10190SOL    MW441081   6.246   2.818   4.507
10191SOL     OW41082   7.056   2.390   4.502
10191SOL    HW241083   7.001   2.311   4.501
10191SOL    HW341084   7.038   2.431   4.586
10191SOL    MW441085   7.046   2.385   4.511
10192SOL     OW41086   6.027   2.077   5.319
10192SOL    HW241087   5.948   2.095   5.371
10192SOL    HW341088   6.022   2.139   5.246
10192SOL    MW441089   6.017   2.087   5.316
10193SOL     OW41090   6.675   2.594   4.459
10193SOL    HW241091   6.612   2.526   4.483
10193SOL    HW341092   6.695   2.575   4.367
10193SOL    MW441093   6.669   2.581   4.451
10194SOL     OW41094   5.931   3.489   4.161
10194SOL    HW241095   5.892   3.536   4.087
10194SOL    HW341096   5.865   3.424   4.186
10194SOL    MW441097   5.918   3.487   4.155
10195SOL     OW41098   6.423   2.898   4.185
10195SOL    HW241099   6.425   2.872   4.092
10195SOL    HW341100   6.481   2.835   4.228
10195SOL    MW441101   6.431   2.887   4.179
10196SOL     OW41102   6.976   3.458   4.957
10196SOL    HW241103   6.901   3.504   4.995
10196SOL    HW341104   6.958   3.365   4.974
10196SOL    MW441105   6.965   3.452   4.965
10197SOL     OW41106   6.980   3.666   4.387
10197SOL    HW241107   6.923   3.619   4.326
10197SOL    HW341108   7.066   3.627   4.374
10197SOL    MW441109   6.983   3.657   4.377
10198SOL     OW41110   6.933   2.142   4.518
10198SOL    HW241111   6.961   2.074   4.579
10198SOL    HW341112   6.847   2.113   4.488
10198SOL    MW441113   6.926   2.129   4.522
10199SOL     OW41114   5.738   3.076   4.452
10199SOL    HW241115   5.802   3.108   4.515
10199SOL    HW341116   5.787   3.012   4.400
10199SOL    MW441117   5.753   3.072   4.453
10200SOL     OW41118   6.238   3.152   5.434
10200SOL    HW241119   6.286   3.235   5.421
10200SOL    HW341120   6.295   3.100   5.490
10200SOL    MW441121   6.252   3.156   5.440
10201SOL     OW41122   5.814   3.394   5.574
10201SOL    HW241123   5.870   3.318   5.589
10201SOL    HW341124   5.763   3.372   5.496
10201SOL    MW441125   5.814   3.381   5.565
10202SOL     OW41126   6.913   2.246   3.853
10202SOL    HW241127   6.886   2.312   3.789
10202SOL    HW341128   6.983   2.289   3.903
10202SOL    MW441129   6.918   2.259   3.850
10203SOL     OW41130   6.581   1.951   3.790
10203SOL    HW241131   6.637   1.943   3.712
10203SOL    HW341132   6.558   1.861   3.812
10203SOL    MW441133   6.586   1.938   3.783
10204SOL     OW41134   7.086   2.802   3.995
10204SOL    HW241135   7.053   2.891   3.985
10204SOL    HW341136   7.051   2.773   4.080
10204SOL    MW441137   7.076   2.811   4.006
10205SOL     OW41138   6.699   3.231   5.183
10205SOL    HW241139   6.610   3.237   5.151
10205SOL    HW341140   6.743   3.310   5.151
10205SOL    MW441141   6.694   3.241   5.175
10206SOL     OW41142   5.992   1.899   5.525
10206SOL    HW241143   5.920   1.864   5.473
10206SOL    HW341144   6.050   1.940   5.460
10206SOL    MW441145   5.990   1.900   5.510
10207SOL     OW41146   6.016   3.389   4.824
10207SOL    HW241147   6.061   3.451   4.881
10207SOL    HW341148   5.923   3.408   4.837
10207SOL    MW441149   6.009   3.399   4.831
10208SOL     OW41150   7.456   2.918   5.178
10208SOL    HW241151   7.371   2.931   5.137
10208SOL    HW341152   7.436   2.882   5.265
10208SOL    MW441153   7.443   2.914   5.183
10209SOL     OW41154   6.438   3.457   4.932
10209SOL    HW241155   6.462   3.446   4.841
10209SOL    HW341156   6.361   3.514   4.930
10209SOL    MW441157   6.430   3.462   4.921
10210SOL     OW41158   6.080   2.840   3.787
10210SOL    HW241159   6.003   2.853   3.843
10210SOL    HW341160   6.044   2.804   3.706
10210SOL    MW441161   6.066   2.836   3.784
10211SOL     OW41162   6.733   2.813   4.030
10211SOL    HW241163   6.643   2.834   4.005
10211SOL    HW341164   6.760   2.886   4.086
10211SOL    MW441165   6.725   2.825   4.033
10212SOL     OW41166   6.233   3.162   4.722
10212SOL    HW241167   6.226   3.141   4.816
10212SOL    HW341168   6.151   3.130   4.685
10212SOL    MW441169   6.221   3.156   4.729
10213SOL     OW41170   7.097   2.172   5.124
10213SOL    HW241171   7.044   2.174   5.204
10213SOL    HW341172   7.082   2.085   5.087
10213SOL    MW441173   7.089   2.162   5.129
10214SOL     OW41174   7.433   2.096   4.997
10214SOL    HW241175   7.414   2.163   4.932
10214SOL    HW341176   7.490   2.034   4.952
10214SOL    MW441177   7.437   2.097   4.983
10215SOL     OW41178   5.679   3.254   5.385
10215SOL    HW241179   5.723   3.187   5.331
10215SOL    HW341180   5.594   3.216   5.405
10215SOL    MW441181   5.674   3.240   5.381
10216SOL     OW41182   6.362   1.929   4.437
10216SOL    HW241183   6.291   1.990   4.419
10216SOL    HW341184   6.413   1.926   4.356
10216SOL    MW441185   6.358   1.935   4.424
10217SOL     OW41186   6.120   3.169   4.186
10217SOL    HW241187   6.113   3.201   4.276
10217SOL    HW341188   6.030   3.153   4.158
10217SOL    MW441189   6.108   3.171   4.193
10218SOL     OW41190   6.715   3.562   5.095
10218SOL    HW241191   6.635   3.547   5.045
10218SOL    HW341192   6.722   3.657   5.102
10218SOL    MW441193   6.706   3.573   5.089
10219SOL     OW41194   6.829   3.527   4.585
10219SOL    HW241195   6.876   3.600   4.544
10219SOL    HW341196   6.750   3.566   4.621
10219SOL    MW441197   6.824   3.542   4.584
10220SOL     OW41198   7.237   3.622   4.860
10220SOL    HW241199   7.280   3.592   4.940
10220SOL    HW341200   7.156   3.570   4.857
10220SOL    MW441201   7.232   3.611   4.870
10221SOL     OW41202   6.322   2.586   5.567
10221SOL    HW241203   6.392   2.528   5.539
10221SOL    HW341204   6.265   2.531   5.622
10221SOL    MW441205   6.324   2.573   5.571
10222SOL     OW41206   7.109   2.798   5.200
10222SOL    HW241207   7.114   2.851   5.280
10222SOL    HW341208   7.071   2.715   5.228
10222SOL    MW441209   7.105   2.793   5.215
10223SOL     OW41210   6.749   1.933   5.446
10223SOL    HW241211   6.744   1.840   5.427
10223SOL    HW341212   6.832   1.944   5.492
10223SOL    MW441213   6.757   1.922   5.450
10224SOL     OW41214   6.123   2.453   3.900
10224SOL    HW241215   6.089   2.509   3.970
10224SOL    HW341216   6.194   2.403   3.940
10224SOL    MW441217   6.129   2.454   3.914
10225SOL     OW41218   7.219   3.204   4.722
10225SOL    HW241219   7.254   3.186   4.635
10225SOL    HW341220   7.124   3.205   4.709
10225SOL    MW441221   7.211   3.201   4.709
10226SOL     OW41222   6.648   2.852   5.091
10226SOL    HW241223   6.691   2.887   5.169
10226SOL    HW341224   6.631   2.929   5.037
10226SOL    MW441225   6.651   2.867   5.094
10227SOL     OW41226   7.179   2.339   3.964
10227SOL    HW241227   7.171   2.410   3.901
10227SOL    HW341228   7.197   2.383   4.047
10227SOL    MW441229   7.180   2.353   3.966
10228SOL     OW41230   6.039   1.994   4.393
10228SOL    HW241231   6.089   2.037   4.324
10228SOL    HW341232   5.954   2.038   4.393
10228SOL    MW441233   6.036   2.007   4.384
10229SOL     OW41234   5.798   3.056   5.253
10229SOL    HW241235   5.826   3.009   5.331
10229SOL    HW341236   5.719   3.011   5.224
10229SOL    MW441237   5.791   3.045   5.259
10230SOL     OW41238   6.306   2.383   5.220
10230SOL    HW241239   6.278   2.471   5.244
10230SOL    HW341240   6.275   2.327   5.291
10230SOL    MW441241   6.298   2.386   5.232
10231SOL     OW41242   6.848   2.601   3.939
10231SOL    HW241243   6.895   2.619   3.858
10231SOL    HW341244   6.814   2.685   3.967
10231SOL    MW441245   6.850   2.615   3.932
10232SOL     OW41246   5.961   2.779   4.433
10232SOL    HW241247   6.019   2.835   4.381
10232SOL    HW341248   6.005   2.694   4.435
10232SOL    MW441249   5.974   2.776   4.426
10233SOL     OW41250   7.101   2.131   4.270
10233SOL    HW241251   7.023   2.081   4.295
10233SOL    HW341252   7.072   2.222   4.270
10233SOL    MW441253   7.087   2.135   4.273
10234SOL     OW41254   6.687   2.093   4.429
10234SOL    HW241255   6.707   2.168   4.373
10234SOL    HW341256   6.667   2.132   4.514
10234SOL    MW441257   6.688   2.109   4.433
10235SOL     OW41258   6.583   3.343   3.761
10235SOL    HW241259   6.610   3.421   3.713
10235SOL    HW341260   6.490   3.358   3.780
10235SOL    MW441261   6.574   3.356   3.757
10236SOL     OW41262   7.447   2.866   5.448
10236SOL    HW241263   7.360   2.846   5.484
10236SOL    HW341264   7.501   2.792   5.473
10236SOL    MW441265   7.442   2.855   5.456
10237SOL     OW41266   5.668   3.379   4.605
10237SOL    HW241267   5.700   3.383   4.696
10237SOL    HW341268   5.573   3.387   4.613
10237SOL    MW441269   5.660   3.382   4.618
10238SOL     OW41270   5.623   2.505   4.152
10238SOL    HW241271   5.563   2.477   4.222
10238SOL    HW341272   5.697   2.445   4.158
10238SOL    MW441273   5.625   2.494   4.161
10239SOL     OW41274   7.191   3.717   5.586
10239SOL    HW241275   7.236   3.641   5.551
10239SOL    HW341276   7.229   3.730   5.673
10239SOL    MW441277   7.201   3.710   5.592
10240SOL     OW41278   6.791   3.236   4.312
10240SOL    HW241279   6.814   3.187   4.390
10240SOL    HW341280   6.872   3.278   4.284
10240SOL    MW441281   6.804   3.236   4.319
10241SOL     OW41282   6.049   2.244   5.041
10241SOL    HW241283   6.082   2.325   5.081
10241SOL    HW341284   6.022   2.270   4.953
10241SOL    MW441285   6.048   2.258   5.035
10242SOL     OW41286   6.003   2.211   4.777
10242SOL    HW241287   6.033   2.125   4.748
10242SOL    HW341288   5.908   2.204   4.780
10242SOL    MW441289   5.995   2.200   4.775
10243SOL     OW41290   6.832   2.420   5.468
10243SOL    HW241291   6.884   2.355   5.421
10243SOL    HW341292   6.790   2.471   5.398
10243SOL    MW441293   6.833   2.417   5.451
10244SOL     OW41294   6.931   2.215   5.329
10244SOL    HW241295   6.838   2.199   5.316
10244SOL    HW341296   6.957   2.153   5.397
10244SOL    MW441297   6.921   2.205   5.336
10245SOL     OW41298   6.146   1.989   4.668
10245SOL    HW241299   6.156   1.898   4.694
10245SOL    HW341300   6.102   1.985   4.583
10245SOL    MW441301   6.142   1.977   4.660
10246SOL     OW41302   6.240   3.604   5.214
10246SOL    HW241303   6.157   3.589   5.259
10246SOL    HW341304   6.299   3.537   5.249
10246SOL    MW441305   6.238   3.594   5.224
10247SOL     OW41306   7.297   2.311   4.839
10247SOL    HW241307   7.230   2.344   4.899
10247SOL    HW341308   7.340   2.389   4.805
10247SOL    MW441309   7.295   2.326   4.843
10248SOL     OW41310   7.475   3.031   4.809
10248SOL    HW241311   7.468   2.971   4.734
10248SOL    HW341312   7.401   3.091   4.798
10248SOL    MW441313   7.465   3.031   4.798
10249SOL     OW41314   6.857   2.893   4.727
10249SOL    HW241315   6.871   2.865   4.818
10249SOL    HW341316   6.943   2.924   4.699
10249SOL    MW441317   6.870   2.894   4.736
10250SOL     OW41318   6.940   2.388   5.006
10250SOL    HW241319   6.961   2.389   4.913
10250SOL    HW341320   6.985   2.310   5.039
10250SOL    MW441321   6.947   2.378   4.998
10251SOL     OW41322   7.433   2.519   5.548
10251SOL    HW241323   7.470   2.464   5.617
10251SOL    HW341324   7.458   2.476   5.466
10251SOL    MW441325   7.440   2.507   5.547
10252SOL     OW41326   6.980   2.817   5.600
10252SOL    HW241327   7.046   2.765   5.554
10252SOL    HW341328   7.000   2.804   5.693
10252SOL    MW441329   6.991   2.808   5.607
10253SOL     OW41330   6.931   1.903   3.948
10253SOL    HW241331   7.005   1.947   3.991
10253SOL    HW341332   6.855   1.957   3.970
10253SOL    MW441333   6.931   1.915   3.956
10254SOL     OW41334   6.991   2.678   4.226
10254SOL    HW241335   6.906   2.648   4.196
10254SOL    HW341336   6.983   2.685   4.321
10254SOL    MW441337   6.979   2.676   4.235
10255SOL     OW41338   6.067   3.141   4.957
10255SOL    HW241339   6.079   3.168   5.048
10255SOL    HW341340   6.048   3.222   4.910
10255SOL    MW441341   6.066   3.156   4.962
10256SOL     OW41342   6.351   2.121   4.780
10256SOL    HW241343   6.324   2.123   4.871
10256SOL    HW341344   6.281   2.073   4.735
10256SOL    MW441345   6.339   2.117   4.787
10257SOL     OW41346   6.205   3.613   4.942
10257SOL    HW241347   6.257   3.690   4.919
10257SOL    HW341348   6.214   3.605   5.037
10257SOL    MW441349   6.214   3.620   4.953
10258SOL     OW41350   7.107   3.198   5.174
10258SOL    HW241351   7.092   3.127   5.237
10258SOL    HW341352   7.153   3.156   5.102
10258SOL    MW441353   7.113   3.182   5.174
10259SOL     OW41354   6.181   2.929   5.291
10259SOL    HW241355   6.218   2.934   5.203
10259SOL    HW341356   6.220   3.002   5.338
10259SOL    MW441357   6.191   2.939   5.286
10260SOL     OW41358   6.361   2.972   5.103
10260SOL    HW241359   6.420   2.918   5.156
10260SOL    HW341360   6.376   2.944   5.013
10260SOL    MW441361   6.371   2.961   5.099
10261SOL     OW41362   6.364   2.344   3.952
10261SOL    HW241363   6.437   2.393   3.915
10261SOL    HW341364   6.380   2.253   3.926
10261SOL    MW441365   6.376   2.339   3.945
10262SOL     OW41366   7.172   3.461   5.275
10262SOL    HW241367   7.214   3.446   5.360
10262SOL    HW341368   7.163   3.374   5.237
10262SOL    MW441369   7.176   3.449   5.282
10263SOL     OW41370   6.832   1.940   4.866
10263SOL    HW241371   6.887   1.949   4.788
10263SOL    HW341372   6.887   1.974   4.937
10263SOL    MW441373   6.846   1.945   4.865
10264SOL     OW41374   5.839   2.853   4.050
10264SOL    HW241375   5.776   2.869   3.979
10264SOL    HW341376   5.786   2.816   4.121
10264SOL    MW441377   5.824   2.850   4.050
10265SOL     OW41378   6.195   3.207   3.909
10265SOL    HW241379   6.210   3.183   4.001
10265SOL    HW341380   6.103   3.185   3.893
10265SOL    MW441381   6.185   3.200   3.919
10266SOL     OW41382   6.734   3.438   4.061
10266SOL    HW241383   6.742   3.356   4.012
10266SOL    HW341384   6.653   3.477   4.028
10266SOL    MW441385   6.724   3.433   4.051
10267SOL     OW41386   5.993   3.596   4.630
10267SOL    HW241387   5.997   3.507   4.665
10267SOL    HW341388   6.019   3.587   4.539
10267SOL    MW441389   5.996   3.584   4.622
10268SOL     OW41390   6.610   3.074   4.873
10268SOL    HW241391   6.542   3.008   4.889
10268SOL    HW341392   6.628   3.068   4.780
10268SOL    MW441393   6.603   3.065   4.864
10269SOL     OW41394   5.699   3.349   5.124
10269SOL    HW241395   5.689   3.307   5.210
10269SOL    HW341396   5.620   3.402   5.114
10269SOL    MW441397   5.688   3.350   5.135
10270SOL     OW41398   6.603   2.213   4.694
10270SOL    HW241399   6.533   2.165   4.739
10270SOL    HW341400   6.635   2.276   4.758
10270SOL    MW441401   6.598   2.215   4.708
10271SOL     OW41402   6.254   2.649   5.314
10271SOL    HW241403   6.247   2.744   5.302
10271SOL    HW341404   6.263   2.638   5.409
10271SOL    MW441405   6.255   2.661   5.324
10272SOL     OW41406   5.975   3.164   5.572
10272SOL    HW241407   6.047   3.166   5.509
10272SOL    HW341408   5.945   3.073   5.571
10272SOL    MW441409   5.980   3.153   5.564
10273SOL     OW41410   7.059   1.927   5.039
10273SOL    HW241411   7.130   1.873   5.003
10273SOL    HW341412   7.058   1.906   5.132
10273SOL    MW441413   7.068   1.918   5.047
10274SOL     OW41414   7.259   3.457   5.523
10274SOL    HW241415   7.232   3.454   5.614
10274SOL    HW341416   7.355   3.461   5.526
10274SOL    MW441417   7.269   3.457   5.535
10275SOL     OW41418   6.070   2.319   4.507
10275SOL    HW241419   6.141   2.267   4.470
10275SOL    HW341420   6.056   2.284   4.594
10275SOL    MW441421   6.078   2.308   4.514
10276SOL     OW41422   5.625   3.654   5.579
10276SOL    HW241423   5.675   3.632   5.501
10276SOL    HW341424   5.633   3.749   5.587
10276SOL    MW441425   5.633   3.663   5.570
10277SOL     OW41426   6.386   3.412   4.583
10277SOL    HW241427   6.314   3.349   4.596
10277SOL    HW341428   6.347   3.497   4.601
10277SOL    MW441429   6.370   3.415   4.586
10278SOL     OW41430   6.706   2.260   4.231
10278SOL    HW241431   6.728   2.197   4.163
10278SOL    HW341432   6.611   2.252   4.242
10278SOL    MW441433   6.696   2.251   4.223
10279SOL     OW41434   5.791   1.950   4.163
10279SOL    HW241435   5.862   1.971   4.102
10279SOL    HW341436   5.745   1.878   4.121
10279SOL    MW441437   5.795   1.944   4.149
10280SOL     OW41438   5.622   2.417   5.306
10280SOL    HW241439   5.686   2.483   5.281
10280SOL    HW341440   5.541   2.444   5.263
10280SOL    MW441441   5.620   2.429   5.298
10281SOL     OW41442   7.360   3.324   4.263
10281SOL    HW241443   7.330   3.257   4.324
10281SOL    HW341444   7.454   3.330   4.277
10281SOL    MW441445   7.368   3.316   4.273
10282SOL     OW41446   6.916   3.001   4.193
10282SOL    HW241447   6.888   3.087   4.226
10282SOL    HW341448   6.944   3.017   4.103
10282SOL    MW441449   6.916   3.015   4.185
10283SOL     OW41450   6.578   1.921   4.246
10283SOL    HW241451   6.615   1.980   4.311
10283SOL    HW341452   6.555   1.977   4.172
10283SOL    MW441453   6.579   1.936   4.245
10284SOL     OW41454   7.431   2.803   4.668
10284SOL    HW241455   7.422   2.835   4.579
10284SOL    HW341456   7.384   2.719   4.668
10284SOL    MW441457   7.424   2.796   4.658
10285SOL     OW41458   5.807   2.643   5.247
10285SOL    HW241459   5.828   2.712   5.185
10285SOL    HW341460   5.887   2.590   5.252
10285SOL    MW441461   5.820   2.644   5.241
10286SOL     OW41462   7.343   2.734   4.369
10286SOL    HW241463   7.437   2.723   4.357
10286SOL    HW341464   7.319   2.806   4.310
10286SOL    MW441465   7.353   2.742   4.360
10287SOL     OW41466   5.792   2.658   5.514
10287SOL    HW241467   5.718   2.602   5.540
10287SOL    HW341468   5.787   2.661   5.419
10287SOL    MW441469   5.781   2.651   5.504
10288SOL     OW41470   5.958   1.945   4.964
10288SOL    HW241471   6.001   2.029   4.984
10288SOL    HW341472   6.031   1.883   4.957
10288SOL    MW441473   5.973   1.948   4.965
10289SOL     OW41474   5.999   2.612   4.142
10289SOL    HW241475   5.999   2.707   4.127
10289SOL    HW341476   6.076   2.596   4.196
10289SOL    MW441477   6.009   2.623   4.147
10290SOL     OW41478   6.775   2.471   5.206
10290SOL    HW241479   6.811   2.444   5.122
10290SOL    HW341480   6.688   2.505   5.185
10290SOL    MW441481   6.769   2.472   5.193
10291SOL     OW41482   5.758   2.343   4.431
10291SOL    HW241483   5.820   2.350   4.504
10291SOL    HW341484   5.758   2.250   4.408
10291SOL    MW441485   5.766   2.332   4.438
10292SOL     OW41486   7.305   3.683   3.963
10292SOL    HW241487   7.372   3.716   3.903
10292SOL    HW341488   7.262   3.762   3.997
10292SOL    MW441489   7.307   3.698   3.959
10293SOL     OW41490   6.440   2.604   4.915
10293SOL    HW241491   6.398   2.522   4.891
10293SOL    HW341492   6.441   2.603   5.011
10293SOL    MW441493   6.433   2.593   4.924
10294SOL     OW41494   7.111   3.737   5.314
10294SOL    HW241495   7.114   3.643   5.297
10294SOL    HW341496   7.134   3.745   5.406
10294SOL    MW441497   7.114   3.725   5.324
10295SOL     OW41498   6.244   2.074   5.020
10295SOL    HW241499   6.175   2.137   5.041
10295SOL    HW341500   6.271   2.038   5.105
10295SOL    MW441501   6.238   2.077   5.033
10296SOL     OW41502   5.627   2.915   3.889
10296SOL    HW241503   5.596   2.980   3.952
10296SOL    HW341504   5.576   2.837   3.908
10296SOL    MW441505   5.617   2.912   3.899
10297SOL     OW41506   7.039   1.927   4.637
10297SOL    HW241507   7.127   1.936   4.674
10297SOL    HW341508   7.049   1.868   4.563
10297SOL    MW441509   7.053   1.921   4.631
10298SOL     OW41510   7.071   2.666   4.481
10298SOL    HW241511   7.151   2.681   4.430
10298SOL    HW341512   7.064   2.571   4.487
10298SOL    MW441513   7.080   2.655   4.476
10299SOL     OW41514   6.211   3.715   3.831
10299SOL    HW241515   6.116   3.715   3.823
10299SOL    HW341516   6.227   3.661   3.909
10299SOL    MW441517   6.201   3.709   3.840
10300SOL     OW41518   6.521   2.592   5.178
10300SOL    HW241519   6.590   2.659   5.175
10300SOL    HW341520   6.454   2.630   5.234
10300SOL    MW441521   6.522   2.605   5.185
10301SOL     OW41522   5.939   2.892   5.426
10301SOL    HW241523   5.893   2.808   5.428
10301SOL    HW341524   5.996   2.886   5.350
10301SOL    MW441525   5.941   2.880   5.418
10302SOL     OW41526   7.056   2.535   3.747
10302SOL    HW241527   6.984   2.511   3.689
10302SOL    HW341528   7.122   2.572   3.689
10302SOL    MW441529   7.055   2.537   3.732
10303SOL     OW41530   6.190   3.267   4.427
10303SOL    HW241531   6.255   3.200   4.448
10303SOL    HW341532   6.242   3.344   4.404
10303SOL    MW441533   6.205   3.269   4.426
10304SOL     OW41534   6.451   2.432   4.557
10304SOL    HW241535   6.391   2.450   4.629
10304SOL    HW341536   6.485   2.344   4.576
10304SOL    MW441537   6.447   2.422   4.570
10305SOL     OW41538   7.392   1.931   5.226
10305SOL    HW241539   7.313   1.977   5.254
10305SOL    HW341540   7.427   1.985   5.155
10305SOL    MW441541   7.386   1.944   5.220
10306SOL     OW41542   6.676   3.015   4.576
10306SOL    HW241543   6.768   2.996   4.594
10306SOL    HW341544   6.649   2.945   4.516
10306SOL    MW441545   6.684   3.003   4.570
10307SOL     OW41546   6.469   2.835   3.931
10307SOL    HW241547   6.455   2.747   3.896
10307SOL    HW341548   6.420   2.892   3.872
10307SOL    MW441549   6.461   2.830   3.919
10308SOL     OW41550   6.950   3.253   4.672
10308SOL    HW241551   6.923   3.337   4.637
10308SOL    HW341552   6.910   3.248   4.759
10308SOL    MW441553   6.943   3.262   4.678
10309SOL     OW41554   6.869   3.201   4.940
10309SOL    HW241555   6.880   3.168   5.029
10309SOL    HW341556   6.788   3.160   4.909
10309SOL    MW441557   6.859   3.193   4.946
10310SOL     OW41558   5.882   2.559   4.710
10310SOL    HW241559   5.832   2.558   4.791
10310SOL    HW341560   5.902   2.651   4.694
10310SOL    MW441561   5.878   2.571   4.718
10311SOL     OW41562   6.949   3.323   5.472
10311SOL    HW241563   6.949   3.417   5.488
10311SOL    HW341564   6.994   3.313   5.388
10311SOL    MW441565   6.955   3.333   5.463
10312SOL     OW41566   7.188   2.041   4.033
10312SOL    HW241567   7.181   2.045   4.128
10312SOL    HW341568   7.200   2.132   4.006
10312SOL    MW441569   7.189   2.054   4.041
10313SOL     OW41570   6.477   2.604   4.147
10313SOL    HW241571   6.457   2.590   4.054
10313SOL    HW341572   6.570   2.583   4.154
10313SOL    MW441573   6.487   2.599   4.136
10314SOL     OW41574   5.804   2.227   5.451
10314SOL    HW241575   5.761   2.286   5.388
10314SOL    HW341576   5.872   2.282   5.491
10314SOL    MW441577   5.808   2.242   5.448
10315SOL     OW41578   6.916   2.847   4.996
10315SOL    HW241579   6.979   2.844   5.069
10315SOL    HW341580   6.832   2.865   5.038
10315SOL    MW441581   6.912   2.849   5.011
10316SOL     OW41582   6.460   3.562   4.185
10316SOL    HW241583   6.518   3.633   4.212
10316SOL    HW341584   6.483   3.490   4.243
10316SOL    MW441585   6.471   3.562   4.196
10317SOL     OW41586   7.255   2.024   4.775
10317SOL    HW241587   7.300   1.942   4.794
10317SOL    HW341588   7.275   2.080   4.851
10317SOL    MW441589   7.265   2.020   4.787
10318SOL     OW41590   5.703   1.867   4.874
10318SOL    HW241591   5.694   1.868   4.779
10318SOL    HW341592   5.797   1.879   4.889
10318SOL    MW441593   5.715   1.870   4.865
10319SOL     OW41594   7.340   3.060   4.494
10319SOL    HW241595   7.319   3.006   4.417
10319SOL    HW341596   7.436   3.058   4.498
10319SOL    MW441597   7.349   3.053   4.483
10320SOL     OW41598   6.032   3.205   5.237
10320SOL    HW241599   5.953   3.155   5.260
10320SOL    HW341600   6.102   3.164   5.287
10320SOL    MW441601   6.030   3.193   5.247
10321SOL     OW41602   5.916   1.994   3.920
10321SOL    HW241603   5.845   2.049   3.888
10321SOL    HW341604   5.958   1.960   3.841
10321SOL    MW441605   5.912   1.996   3.906
10322SOL     OW41606   7.040   2.491   4.756
10322SOL    HW241607   6.963   2.537   4.722
10322SOL    HW341608   7.097   2.560   4.790
10322SOL    MW441609   7.037   2.506   4.756
10323SOL     OW41610   5.672   2.093   3.769
10323SOL    HW241611   5.639   2.172   3.813
10323SOL    HW341612   5.727   2.126   3.698
10323SOL    MW441613   5.675   2.107   3.766
10324SOL     OW41614   5.706   3.350   3.958
10324SOL    HW241615   5.723   3.434   4.000
10324SOL    HW341616   5.741   3.359   3.870
10324SOL    MW441617   5.711   3.363   3.952
10325SOL     OW41618   6.978   3.439   4.175
10325SOL    HW241619   7.041   3.429   4.104
10325SOL    HW341620   6.895   3.459   4.130
10325SOL    MW441621   6.975   3.440   4.160
10326SOL     OW41622   7.341   2.707   5.862
10326SOL    HW241623   7.382   2.649   5.927
10326SOL    HW341624   7.248   2.699   5.879
10326SOL    MW441625   7.335   2.699   5.872
10327SOL     OW41626   6.135   2.890   6.091
10327SOL    HW241627   6.225   2.865   6.075
10327SOL    HW341628   6.131   2.983   6.068
10327SOL    MW441629   6.147   2.899   6.086
10328SOL     OW41630   7.251   3.593   6.233
10328SOL    HW241631   7.263   3.539   6.311
10328SOL    HW341632   7.288   3.541   6.162
10328SOL    MW441633   7.257   3.578   6.234
10329SOL     OW41634   6.419   2.346   6.104
10329SOL    HW241635   6.394   2.434   6.132
10329SOL    HW341636   6.416   2.349   6.008
10329SOL    MW441637   6.415   2.358   6.096
10330SOL     OW41638   5.861   2.374   6.032
10330SOL    HW241639   5.893   2.462   6.014
10330SOL    HW341640   5.849   2.372   6.127
10330SOL    MW441641   5.864   2.386   6.044
10331SOL     OW41642   6.260   2.129   6.119
10331SOL    HW241643   6.318   2.205   6.121
10331SOL    HW341644   6.195   2.150   6.052
10331SOL    MW441645   6.259   2.141   6.110
10332SOL     OW41646   6.347   3.056   6.294
10332SOL    HW241647   6.427   3.059   6.346
10332SOL    HW341648   6.375   3.023   6.208
10332SOL    MW441649   6.361   3.052   6.289
10333SOL     OW41650   6.124   2.560   6.285
10333SOL    HW241651   6.109   2.480   6.336
10333SOL    HW341652   6.206   2.595   6.319
10333SOL    MW441653   6.132   2.552   6.297
10334SOL     OW41654   6.012   2.800   6.566
10334SOL    HW241655   5.967   2.807   6.482
10334SOL    HW341656   5.992   2.883   6.610
10334SOL    MW441657   6.004   2.812   6.560
10335SOL     OW41658   5.709   3.646   6.441
10335SOL    HW241659   5.798   3.638   6.476
10335SOL    HW341660   5.673   3.558   6.446
10335SOL    MW441661   5.716   3.633   6.446
10336SOL     OW41662   6.974   3.038   5.810
10336SOL    HW241663   6.892   3.074   5.776
10336SOL    HW341664   7.042   3.081   5.759
10336SOL    MW441665   6.972   3.048   5.798
10337SOL     OW41666   6.535   2.817   6.286
10337SOL    HW241667   6.449   2.804   6.326
10337SOL    HW341668   6.588   2.744   6.318
10337SOL    MW441669   6.531   2.806   6.295
10338SOL     OW41670   6.526   3.179   6.003
10338SOL    HW241671   6.503   3.241   6.071
10338SOL    HW341672   6.483   3.097   6.029
10338SOL    MW441673   6.518   3.175   6.014
10339SOL     OW41674   7.399   2.180   6.459
10339SOL    HW241675   7.336   2.160   6.528
10339SOL    HW341676   7.389   2.109   6.396
10339SOL    MW441677   7.389   2.167   6.460
10340SOL     OW41678   6.023   2.152   5.971
10340SOL    HW241679   5.997   2.114   5.887
10340SOL    HW341680   5.960   2.222   5.987
10340SOL    MW441681   6.012   2.155   5.962
10341SOL     OW41682   5.858   3.113   6.008
10341SOL    HW241683   5.806   3.181   5.964
10341SOL    HW341684   5.855   3.039   5.948
10341SOL    MW441685   5.850   3.112   5.995
10342SOL     OW41686   6.520   3.576   5.786
10342SOL    HW241687   6.475   3.592   5.869
10342SOL    HW341688   6.451   3.541   5.728
10342SOL    MW441689   6.506   3.573   5.788
10343SOL     OW41690   7.455   2.349   5.761
10343SOL    HW241691   7.364   2.351   5.789
10343SOL    HW341692   7.500   2.411   5.819
10343SOL    MW441693   7.448   2.357   5.771
10344SOL     OW41694   7.200   2.952   6.111
10344SOL    HW241695   7.110   2.952   6.146
10344SOL    HW341696   7.193   2.998   6.028
10344SOL    MW441697   7.187   2.958   6.105
10345SOL     OW41698   6.727   2.533   6.072
10345SOL    HW241699   6.753   2.557   5.983
10345SOL    HW341700   6.709   2.440   6.068
10345SOL    MW441701   6.729   2.525   6.059
10346SOL     OW41702   7.392   3.153   5.923
10346SOL    HW241703   7.348   3.194   5.998
10346SOL    HW341704   7.449   3.221   5.888
10346SOL    MW441705   7.394   3.167   5.928
10347SOL     OW41706   6.048   3.569   6.241
10347SOL    HW241707   6.080   3.657   6.219
10347SOL    HW341708   6.001   3.541   6.163
10347SOL    MW441709   6.047   3.577   6.228
10348SOL     OW41710   7.432   1.931   6.290
10348SOL    HW241711   7.486   1.882   6.352
10348SOL    HW341712   7.375   1.865   6.251
10348SOL    MW441713   7.432   1.915   6.292
10349SOL     OW41714   5.764   3.629   5.818
10349SOL    HW241715   5.793   3.719   5.810
10349SOL    HW341716   5.714   3.612   5.739
10349SOL    MW441717   5.762   3.637   5.807
10350SOL     OW41718   7.168   3.437   5.789
10350SOL    HW241719   7.216   3.506   5.835
10350SOL    HW341720   7.089   3.481   5.758
10350SOL    MW441721   7.163   3.451   5.792
10351SOL     OW41722   6.566   2.562   5.733
10351SOL    HW241723   6.568   2.509   5.654
10351SOL    HW341724   6.654   2.599   5.739
10351SOL    MW441725   6.578   2.561   5.722
10352SOL     OW41726   7.180   2.488   6.069
10352SOL    HW241727   7.219   2.488   6.156
10352SOL    HW341728   7.121   2.564   6.069
10352SOL    MW441729   7.177   2.499   6.080
10353SOL     OW41730   7.367   2.374   6.235
10353SOL    HW241731   7.456   2.343   6.252
10353SOL    HW341732   7.310   2.314   6.283
10353SOL    MW441733   7.370   2.362   6.244
10354SOL     OW41734   5.793   2.088   6.264
10354SOL    HW241735   5.784   2.028   6.190
10354SOL    HW341736   5.726   2.059   6.327
10354SOL    MW441737   5.783   2.075   6.262
10355SOL     OW41738   6.736   3.181   5.825
10355SOL    HW241739   6.686   3.183   5.907
10355SOL    HW341740   6.670   3.199   5.757
10355SOL    MW441741   6.722   3.183   5.827
10356SOL     OW41742   6.199   3.599   5.933
10356SOL    HW241743   6.120   3.557   5.966
10356SOL    HW341744   6.265   3.582   6.000
10356SOL    MW441745   6.198   3.591   5.946
10357SOL     OW41746   6.335   3.014   5.640
10357SOL    HW241747   6.257   2.960   5.627
10357SOL    HW341748   6.306   3.087   5.693
10357SOL    MW441749   6.321   3.016   5.645
10358SOL     OW41750   6.916   3.530   5.708
10358SOL    HW241751   6.842   3.493   5.758
10358SOL    HW341752   6.924   3.620   5.741
10358SOL    MW441753   6.907   3.537   5.720
10359SOL     OW41754   7.140   3.204   5.650
10359SOL    HW241755   7.087   3.253   5.586
10359SOL    HW341756   7.171   3.270   5.711
10359SOL    MW441757   7.138   3.218   5.648
10360SOL     OW41758   6.365   2.093   5.705
10360SOL    HW241759   6.313   2.013   5.693
10360SOL    HW341760   6.452   2.070   5.673
10360SOL    MW441761   6.368   2.079   5.699
10361SOL     OW41762   5.726   2.733   6.162
10361SOL    HW241763   5.817   2.748   6.189
10361SOL    HW341764   5.729   2.654   6.108
10361SOL    MW441765   5.738   2.725   6.160
10362SOL     OW41766   5.734   3.345   6.201
10362SOL    HW241767   5.706   3.384   6.283
10362SOL    HW341768   5.754   3.254   6.223
10362SOL    MW441769   5.732   3.337   6.214
10363SOL     OW41770   6.567   3.388   6.236
10363SOL    HW241771   6.650   3.342   6.220
10363SOL    HW341772   6.557   3.387   6.332
10363SOL    MW441773   6.577   3.381   6.246
10364SOL     OW41774   6.300   3.445   5.641
10364SOL    HW241775   6.240   3.514   5.611
10364SOL    HW341776   6.245   3.387   5.694
10364SOL    MW441777   6.284   3.447   5.643
10365SOL     OW41778   6.738   2.090   5.864
10365SOL    HW241779   6.671   2.066   5.801
10365SOL    HW341780   6.803   2.139   5.813
10365SOL    MW441781   6.738   2.092   5.849
10366SOL     OW41782   6.257   2.807   6.376
10366SOL    HW241783   6.168   2.798   6.409
10366SOL    HW341784   6.261   2.897   6.344
10366SOL    MW441785   6.246   2.818   6.376
10367SOL     OW41786   7.056   2.390   6.371
10367SOL    HW241787   7.001   2.311   6.370
10367SOL    HW341788   7.038   2.431   6.455
10367SOL    MW441789   7.046   2.385   6.380
10368SOL     OW41790   6.675   2.594   6.328
10368SOL    HW241791   6.612   2.526   6.352
10368SOL    HW341792   6.695   2.575   6.236
10368SOL    MW441793   6.669   2.581   6.320
10369SOL     OW41794   5.931   3.489   6.030
10369SOL    HW241795   5.892   3.536   5.956
10369SOL    HW341796   5.865   3.424   6.055
10369SOL    MW441797   5.918   3.487   6.024
10370SOL     OW41798   6.423   2.898   6.054
10370SOL    HW241799   6.425   2.872   5.961
10370SOL    HW341800   6.481   2.835   6.097
10370SOL    MW441801   6.431   2.887   6.048
10371SOL     OW41802   6.980   3.666   6.256
10371SOL    HW241803   6.923   3.619   6.195
10371SOL    HW341804   7.066   3.627   6.243
10371SOL    MW441805   6.983   3.657   6.246
10372SOL     OW41806   6.933   2.142   6.387
10372SOL    HW241807   6.961   2.074   6.448
10372SOL    HW341808   6.847   2.113   6.357
10372SOL    MW441809   6.926   2.129   6.391
10373SOL     OW41810   5.738   3.076   6.321
10373SOL    HW241811   5.802   3.108   6.384
10373SOL    HW341812   5.787   3.012   6.269
10373SOL    MW441813   5.753   3.072   6.322
10374SOL     OW41814   6.913   2.246   5.722
10374SOL    HW241815   6.886   2.312   5.658
10374SOL    HW341816   6.983   2.289   5.772
10374SOL    MW441817   6.918   2.259   5.719
10375SOL     OW41818   6.581   1.951   5.659
10375SOL    HW241819   6.637   1.943   5.581
10375SOL    HW341820   6.558   1.861   5.681
10375SOL    MW441821   6.586   1.938   5.652
10376SOL     OW41822   7.086   2.802   5.864
10376SOL    HW241823   7.053   2.891   5.854
10376SOL    HW341824   7.051   2.773   5.949
10376SOL    MW441825   7.076   2.811   5.875
10377SOL     OW41826   6.080   2.840   5.656
10377SOL    HW241827   6.003   2.853   5.712
10377SOL    HW341828   6.044   2.804   5.575
10377SOL    MW441829   6.066   2.836   5.653
10378SOL     OW41830   6.733   2.813   5.899
10378SOL    HW241831   6.643   2.834   5.874
10378SOL    HW341832   6.760   2.886   5.955
10378SOL    MW441833   6.725   2.825   5.902
10379SOL     OW41834   6.362   1.929   6.306
10379SOL    HW241835   6.291   1.990   6.288
10379SOL    HW341836   6.413   1.926   6.225
10379SOL    MW441837   6.358   1.935   6.293
10380SOL     OW41838   6.120   3.169   6.055
10380SOL    HW241839   6.113   3.201   6.145
10380SOL    HW341840   6.030   3.153   6.027
10380SOL    MW441841   6.108   3.171   6.062
10381SOL     OW41842   6.829   3.527   6.454
10381SOL    HW241843   6.876   3.600   6.413
10381SOL    HW341844   6.750   3.566   6.490
10381SOL    MW441845   6.824   3.542   6.453
10382SOL     OW41846   6.123   2.453   5.769
10382SOL    HW241847   6.089   2.509   5.839
10382SOL    HW341848   6.194   2.403   5.809
10382SOL    MW441849   6.129   2.454   5.783
10383SOL     OW41850   7.179   2.339   5.833
10383SOL    HW241851   7.171   2.410   5.770
10383SOL    HW341852   7.197   2.383   5.916
10383SOL    MW441853   7.180   2.353   5.835
10384SOL     OW41854   6.039   1.994   6.262
10384SOL    HW241855   6.089   2.037   6.193
10384SOL    HW341856   5.954   2.038   6.262
10384SOL    MW441857   6.036   2.007   6.253
10385SOL     OW41858   6.848   2.601   5.808
10385SOL    HW241859   6.895   2.619   5.727
10385SOL    HW341860   6.814   2.685   5.836
10385SOL    MW441861   6.850   2.615   5.801
10386SOL     OW41862   5.961   2.779   6.302
10386SOL    HW241863   6.019   2.835   6.250
10386SOL    HW341864   6.005   2.694   6.304
10386SOL    MW441865   5.974   2.776   6.295
10387SOL     OW41866   7.101   2.131   6.139
10387SOL    HW241867   7.023   2.081   6.164
10387SOL    HW341868   7.072   2.222   6.139
10387SOL    MW441869   7.087   2.135   6.142
10388SOL     OW41870   6.687   2.093   6.298
10388SOL    HW241871   6.707   2.168   6.242
10388SOL    HW341872   6.667   2.132   6.383
10388SOL    MW441873   6.688   2.109   6.302
10389SOL     OW41874   6.583   3.343   5.630
10389SOL    HW241875   6.610   3.421   5.582
10389SOL    HW341876   6.490   3.358   5.649
10389SOL    MW441877   6.574   3.356   5.626
10390SOL     OW41878   5.623   2.505   6.021
10390SOL    HW241879   5.563   2.477   6.091
10390SOL    HW341880   5.697   2.445   6.027
10390SOL    MW441881   5.625   2.494   6.030
10391SOL     OW41882   6.791   3.236   6.181
10391SOL    HW241883   6.814   3.187   6.259
10391SOL    HW341884   6.872   3.278   6.153
10391SOL    MW441885   6.804   3.236   6.188
10392SOL     OW41886   6.146   1.989   6.537
10392SOL    HW241887   6.156   1.898   6.563
10392SOL    HW341888   6.102   1.985   6.452
10392SOL    MW441889   6.142   1.977   6.529
10393SOL     OW41890   6.931   1.903   5.817
10393SOL    HW241891   7.005   1.947   5.860
10393SOL    HW341892   6.855   1.957   5.839
10393SOL    MW441893   6.931   1.915   5.825
10394SOL     OW41894   6.991   2.678   6.095
10394SOL    HW241895   6.906   2.648   6.065
10394SOL    HW341896   6.983   2.685   6.190
10394SOL    MW441897   6.979   2.676   6.104
10395SOL     OW41898   6.364   2.344   5.821
10395SOL    HW241899   6.437   2.393   5.784
10395SOL    HW341900   6.380   2.253   5.795
10395SOL    MW441901   6.376   2.339   5.814
10396SOL     OW41902   5.839   2.853   5.919
10396SOL    HW241903   5.776   2.869   5.848
10396SOL    HW341904   5.786   2.816   5.990
10396SOL    MW441905   5.824   2.850   5.919
10397SOL     OW41906   6.195   3.207   5.778
10397SOL    HW241907   6.210   3.183   5.870
10397SOL    HW341908   6.103   3.185   5.762
10397SOL    MW441909   6.185   3.200   5.788
10398SOL     OW41910   6.734   3.438   5.930
10398SOL    HW241911   6.742   3.356   5.881
10398SOL    HW341912   6.653   3.477   5.897
10398SOL    MW441913   6.724   3.433   5.920
10399SOL     OW41914   5.993   3.596   6.499
10399SOL    HW241915   5.997   3.507   6.534
10399SOL    HW341916   6.019   3.587   6.408
10399SOL    MW441917   5.996   3.584   6.491
10400SOL     OW41918   6.070   2.319   6.376
10400SOL    HW241919   6.141   2.267   6.339
10400SOL    HW341920   6.056   2.284   6.463
10400SOL    MW441921   6.078   2.308   6.383
10401SOL     OW41922   6.386   3.412   6.452
10401SOL    HW241923   6.314   3.349   6.465
10401SOL    HW341924   6.347   3.497   6.470
10401SOL    MW441925   6.370   3.415   6.455
10402SOL     OW41926   6.706   2.260   6.100
10402SOL    HW241927   6.728   2.197   6.032
10402SOL    HW341928   6.611   2.252   6.111
10402SOL    MW441929   6.696   2.251   6.092
10403SOL     OW41930   5.791   1.950   6.032
10403SOL    HW241931   5.862   1.971   5.971
10403SOL    HW341932   5.745   1.878   5.990
10403SOL    MW441933   5.795   1.944   6.018
10404SOL     OW41934   7.360   3.324   6.132
10404SOL    HW241935   7.330   3.257   6.193
10404SOL    HW341936   7.454   3.330   6.146
10404SOL    MW441937   7.368   3.316   6.142
10405SOL     OW41938   6.916   3.001   6.062
10405SOL    HW241939   6.888   3.087   6.095
10405SOL    HW341940   6.944   3.017   5.972
10405SOL    MW441941   6.916   3.015   6.054
10406SOL     OW41942   6.578   1.921   6.115
10406SOL    HW241943   6.615   1.980   6.180
10406SOL    HW341944   6.555   1.977   6.041
10406SOL    MW441945   6.579   1.936   6.114
10407SOL     OW41946   7.431   2.803   6.537
10407SOL    HW241947   7.422   2.835   6.448
10407SOL    HW341948   7.384   2.719   6.537
10407SOL    MW441949   7.424   2.796   6.527
10408SOL     OW41950   7.343   2.734   6.238
10408SOL    HW241951   7.437   2.723   6.226
10408SOL    HW341952   7.319   2.806   6.179
10408SOL    MW441953   7.353   2.742   6.229
10409SOL     OW41954   5.999   2.612   6.011
10409SOL    HW241955   5.999   2.707   5.996
10409SOL    HW341956   6.076   2.596   6.065
10409SOL    MW441957   6.009   2.623   6.016
10410SOL     OW41958   5.758   2.343   6.300
10410SOL    HW241959   5.820   2.350   6.373
10410SOL    HW341960   5.758   2.250   6.277
10410SOL    MW441961   5.766   2.332   6.307
10411SOL     OW41962   7.305   3.683   5.832
10411SOL    HW241963   7.372   3.716   5.772
10411SOL    HW341964   7.262   3.762   5.866
10411SOL    MW441965   7.307   3.698   5.828
10412SOL     OW41966   5.627   2.915   5.758
10412SOL    HW241967   5.596   2.980   5.821
10412SOL    HW341968   5.576   2.837   5.777
10412SOL    MW441969   5.617   2.912   5.768
10413SOL     OW41970   7.071   2.666   6.350
10413SOL    HW241971   7.151   2.681   6.299
10413SOL    HW341972   7.064   2.571   6.356
10413SOL    MW441973   7.080   2.655   6.345
10414SOL     OW41974   6.211   3.715   5.700
10414SOL    HW241975   6.116   3.715   5.692
10414SOL    HW341976   6.227   3.661   5.778
10414SOL    MW441977   6.201   3.709   5.709
10415SOL     OW41978   7.056   2.535   5.615
10415SOL    HW241979   6.984   2.511   5.557
10415SOL    HW341980   7.122   2.572   5.557
10415SOL    MW441981   7.055   2.537   5.600
10416SOL     OW41982   6.190   3.267   6.296
10416SOL    HW241983   6.255   3.200   6.317
10416SOL    HW341984   6.242   3.344   6.273
10416SOL    MW441985   6.205   3.269   6.295
10417SOL     OW41986   6.451   2.432   6.426
10417SOL    HW241987   6.391   2.450   6.498
10417SOL    HW341988   6.485   2.344   6.445
10417SOL    MW441989   6.447   2.422   6.439
10418SOL     OW41990   6.676   3.015   6.445
10418SOL    HW241991   6.768   2.996   6.463
10418SOL    HW341992   6.649   2.945   6.385
10418SOL    MW441993   6.684   3.003   6.439
10419SOL     OW41994   6.469   2.835   5.800
10419SOL    HW241995   6.455   2.747   5.765
10419SOL    HW341996   6.420   2.892   5.741
10419SOL    MW441997   6.461   2.830   5.788
10420SOL     OW41998   7.188   2.041   5.902
10420SOL    HW241999   7.181   2.045   5.997
10420SOL    HW342000   7.200   2.132   5.875
10420SOL    MW442001   7.189   2.054   5.910
10421SOL     OW42002   6.477   2.604   6.016
10421SOL    HW242003   6.457   2.590   5.923
10421SOL    HW342004   6.570   2.583   6.023
10421SOL    MW442005   6.487   2.599   6.005
10422SOL     OW42006   6.460   3.562   6.054
10422SOL    HW242007   6.518   3.633   6.081
10422SOL    HW342008   6.483   3.490   6.112
10422SOL    MW442009   6.471   3.562   6.065
10423SOL     OW42010   7.340   3.060   6.363
10423SOL    HW242011   7.319   3.006   6.286
10423SOL    HW342012   7.436   3.058   6.367
10423SOL    MW442013   7.349   3.053   6.352
10424SOL     OW42014   5.916   1.994   5.789
10424SOL    HW242015   5.845   2.049   5.757
10424SOL    HW342016   5.958   1.960   5.710
10424SOL    MW442017   5.912   1.996   5.775
10425SOL     OW42018   5.672   2.093   5.638
10425SOL    HW242019   5.639   2.172   5.682
10425SOL    HW342020   5.727   2.126   5.567
10425SOL    MW442021   5.675   2.107   5.635
10426SOL     OW42022   5.706   3.350   5.827
10426SOL    HW242023   5.723   3.434   5.869
10426SOL    HW342024   5.741   3.359   5.739
10426SOL    MW442025   5.711   3.363   5.821
10427SOL     OW42026   6.978   3.439   6.044
10427SOL    HW242027   7.041   3.429   5.973
10427SOL    HW342028   6.895   3.459   5.999
10427SOL    MW442029   6.975   3.440   6.029
10428SOL     OW42030   7.207   4.507   1.252
10428SOL    HW242031   7.162   4.574   1.303
10428SOL    HW342032   7.295   4.543   1.238
10428SOL    MW442033   7.213   4.520   1.256
10429SOL     OW42034   6.135   4.758   0.486
10429SOL    HW242035   6.225   4.733   0.470
10429SOL    HW342036   6.131   4.851   0.463
10429SOL    MW442037   6.147   4.767   0.481
10430SOL     OW42038   7.251   5.461   0.628
10430SOL    HW242039   7.263   5.407   0.706
10430SOL    HW342040   7.288   5.409   0.557
10430SOL    MW442041   7.257   5.446   0.629
10431SOL     OW42042   6.630   5.346   1.629
10431SOL    HW242043   6.671   5.382   1.550
10431SOL    HW342044   6.665   5.257   1.636
10431SOL    MW442045   6.641   5.339   1.620
10432SOL     OW42046   7.187   4.901   1.233
10432SOL    HW242047   7.108   4.866   1.191
10432SOL    HW342048   7.214   4.973   1.177
10432SOL    MW442049   7.180   4.906   1.220
10433SOL     OW42050   6.419   4.214   0.499
10433SOL    HW242051   6.394   4.302   0.527
10433SOL    HW342052   6.416   4.217   0.403
10433SOL    MW442053   6.415   4.226   0.491
10434SOL     OW42054   5.861   4.242   0.427
10434SOL    HW242055   5.893   4.330   0.409
10434SOL    HW342056   5.849   4.240   0.522
10434SOL    MW442057   5.864   4.254   0.439
10435SOL     OW42058   5.939   4.655   1.328
10435SOL    HW242059   6.002   4.602   1.279
10435SOL    HW342060   5.920   4.729   1.271
10435SOL    MW442061   5.945   4.657   1.315
10436SOL     OW42062   6.260   3.997   0.514
10436SOL    HW242063   6.318   4.073   0.516
10436SOL    HW342064   6.195   4.018   0.447
10436SOL    MW442065   6.259   4.009   0.505
10437SOL     OW42066   6.347   4.924   0.689
10437SOL    HW242067   6.427   4.927   0.741
10437SOL    HW342068   6.375   4.891   0.603
10437SOL    MW442069   6.361   4.920   0.684
10438SOL     OW42070   6.372   5.265   1.592
10438SOL    HW242071   6.456   5.291   1.631
10438SOL    HW342072   6.396   5.209   1.518
10438SOL    MW442073   6.386   5.261   1.587
10439SOL     OW42074   6.124   4.428   0.680
10439SOL    HW242075   6.109   4.348   0.731
10439SOL    HW342076   6.206   4.463   0.714
10439SOL    MW442077   6.132   4.420   0.692
10440SOL     OW42078   6.461   5.114   1.365
10440SOL    HW242079   6.425   5.180   1.305
10440SOL    HW342080   6.389   5.052   1.378
10440SOL    MW442081   6.447   5.114   1.359
10441SOL     OW42082   6.266   4.254   1.057
10441SOL    HW242083   6.172   4.250   1.075
10441SOL    HW342084   6.296   4.163   1.066
10441SOL    MW442085   6.257   4.242   1.060
10442SOL     OW42086   6.012   4.668   0.961
10442SOL    HW242087   5.967   4.675   0.877
10442SOL    HW342088   5.992   4.751   1.005
10442SOL    MW442089   6.004   4.680   0.955
10443SOL     OW42090   5.709   5.514   0.836
10443SOL    HW242091   5.798   5.506   0.871
10443SOL    HW342092   5.673   5.426   0.841
10443SOL    MW442093   5.716   5.501   0.841
10444SOL     OW42094   5.973   5.041   0.871
10444SOL    HW242095   5.949   5.094   0.947
10444SOL    HW342096   6.029   5.099   0.819
10444SOL    MW442097   5.977   5.056   0.874
10445SOL     OW42098   6.535   4.685   0.681
10445SOL    HW242099   6.449   4.672   0.721
10445SOL    HW342100   6.588   4.612   0.713
10445SOL    MW442101   6.531   4.674   0.690
10446SOL     OW42102   5.943   5.337   1.466
10446SOL    HW242103   5.851   5.313   1.451
10446SOL    HW342104   5.987   5.254   1.483
10446SOL    MW442105   5.937   5.322   1.465
10447SOL     OW42106   6.526   5.047   0.398
10447SOL    HW242107   6.503   5.109   0.466
10447SOL    HW342108   6.483   4.965   0.424
10447SOL    MW442109   6.518   5.043   0.409
10448SOL     OW42110   7.399   4.048   0.854
10448SOL    HW242111   7.336   4.028   0.923
10448SOL    HW342112   7.389   3.977   0.791
10448SOL    MW442113   7.389   4.035   0.855
10449SOL     OW42114   5.858   4.981   0.403
10449SOL    HW242115   5.806   5.049   0.359
10449SOL    HW342116   5.855   4.907   0.343
10449SOL    MW442117   5.850   4.980   0.390
10450SOL     OW42118   6.520   5.444   0.181
10450SOL    HW242119   6.475   5.460   0.264
10450SOL    HW342120   6.451   5.409   0.123
10450SOL    MW442121   6.506   5.441   0.183
10451SOL     OW42122   7.200   4.820   0.506
10451SOL    HW242123   7.110   4.820   0.541
10451SOL    HW342124   7.193   4.866   0.423
10451SOL    MW442125   7.187   4.826   0.500
10452SOL     OW42126   7.000   4.455   1.578
10452SOL    HW242127   7.069   4.393   1.555
10452SOL    HW342128   6.925   4.429   1.525
10452SOL    MW442129   7.000   4.442   1.569
10453SOL     OW42130   5.741   5.335   1.130
10453SOL    HW242131   5.724   5.281   1.207
10453SOL    HW342132   5.729   5.425   1.160
10453SOL    MW442133   5.738   5.339   1.144
10454SOL     OW42134   6.736   4.842   1.570
10454SOL    HW242135   6.721   4.935   1.555
10454SOL    HW342136   6.831   4.832   1.570
10454SOL    MW442137   6.745   4.852   1.567
10455SOL     OW42138   6.532   4.266   1.771
10455SOL    HW242139   6.622   4.267   1.738
10455SOL    HW342140   6.491   4.191   1.729
10455SOL    MW442141   6.538   4.256   1.762
10456SOL     OW42142   7.107   4.798   0.898
10456SOL    HW242143   7.110   4.732   0.829
10456SOL    HW342144   7.192   4.841   0.894
10456SOL    MW442145   7.119   4.794   0.889
10457SOL     OW42146   6.727   4.401   0.467
10457SOL    HW242147   6.753   4.425   0.378
10457SOL    HW342148   6.709   4.308   0.463
10457SOL    MW442149   6.729   4.393   0.454
10458SOL     OW42150   7.392   5.021   0.318
10458SOL    HW242151   7.348   5.062   0.393
10458SOL    HW342152   7.449   5.089   0.283
10458SOL    MW442153   7.394   5.035   0.323
10459SOL     OW42154   6.312   4.070   1.721
10459SOL    HW242155   6.322   3.996   1.661
10459SOL    HW342156   6.348   4.039   1.804
10459SOL    MW442157   6.318   4.056   1.723
10460SOL     OW42158   6.048   5.437   0.636
10460SOL    HW242159   6.080   5.525   0.614
10460SOL    HW342160   6.001   5.409   0.558
10460SOL    MW442161   6.047   5.445   0.623
10461SOL     OW42162   7.432   3.799   0.685
10461SOL    HW242163   7.486   3.750   0.747
10461SOL    HW342164   7.375   3.733   0.646
10461SOL    MW442165   7.432   3.783   0.687
10462SOL     OW42166   6.551   3.752   1.098
10462SOL    HW242167   6.510   3.830   1.060
10462SOL    HW342168   6.645   3.770   1.093
10462SOL    MW442169   6.557   3.764   1.093
10463SOL     OW42170   7.180   4.356   0.464
10463SOL    HW242171   7.219   4.356   0.551
10463SOL    HW342172   7.121   4.432   0.464
10463SOL    MW442173   7.177   4.367   0.475
10464SOL     OW42174   6.497   4.723   1.593
10464SOL    HW242175   6.474   4.703   1.683
10464SOL    HW342176   6.582   4.767   1.598
10464SOL    MW442177   6.504   4.726   1.605
10465SOL     OW42178   6.577   3.860   1.353
10465SOL    HW242179   6.583   3.822   1.266
10465SOL    HW342180   6.566   3.954   1.338
10465SOL    MW442181   6.578   3.868   1.341
10466SOL     OW42182   6.666   4.349   1.187
10466SOL    HW242183   6.741   4.378   1.134
10466SOL    HW342184   6.598   4.414   1.171
10466SOL    MW442185   6.667   4.361   1.177
10467SOL     OW42186   7.216   4.317   1.464
10467SOL    HW242187   7.197   4.226   1.443
10467SOL    HW342188   7.194   4.366   1.385
10467SOL    MW442189   7.211   4.310   1.451
10468SOL     OW42190   7.358   5.411   1.368
10468SOL    HW242191   7.286   5.373   1.419
10468SOL    HW342192   7.375   5.496   1.409
10468SOL    MW442193   7.352   5.416   1.380
10469SOL     OW42194   6.663   4.055   1.570
10469SOL    HW242195   6.629   4.094   1.489
10469SOL    HW342196   6.641   3.963   1.563
10469SOL    MW442197   6.656   4.048   1.560
10470SOL     OW42198   7.072   4.869   1.646
10470SOL    HW242199   7.154   4.910   1.676
10470SOL    HW342200   7.035   4.831   1.726
10470SOL    MW442201   7.078   4.870   1.661
10471SOL     OW42202   7.367   4.242   0.630
10471SOL    HW242203   7.456   4.211   0.647
10471SOL    HW342204   7.310   4.182   0.678
10471SOL    MW442205   7.370   4.230   0.639
10472SOL     OW42206   5.793   3.956   0.659
10472SOL    HW242207   5.784   3.896   0.585
10472SOL    HW342208   5.726   3.927   0.722
10472SOL    MW442209   5.783   3.943   0.657
10473SOL     OW42210   5.740   4.129   1.022
10473SOL    HW242211   5.712   4.220   1.031
10473SOL    HW342212   5.677   4.090   0.961
10473SOL    MW442213   5.727   4.135   1.016
10474SOL     OW42214   7.327   4.987   1.725
10474SOL    HW242215   7.377   4.913   1.757
10474SOL    HW342216   7.273   5.014   1.800
10474SOL    MW442217   7.327   4.981   1.738
10475SOL     OW42218   7.461   4.622   1.227
10475SOL    HW242219   7.477   4.660   1.140
10475SOL    HW342220   7.495   4.688   1.288
10475SOL    MW442221   7.468   4.635   1.223
10476SOL     OW42222   7.253   5.331   0.896
10476SOL    HW242223   7.282   5.398   0.957
10476SOL    HW342224   7.234   5.255   0.951
10476SOL    MW442225   7.255   5.331   0.911
10477SOL     OW42226   5.724   4.404   1.192
10477SOL    HW242227   5.786   4.434   1.258
10477SOL    HW342228   5.658   4.473   1.186
10477SOL    MW442229   5.723   4.417   1.199
10478SOL     OW42230   5.819   5.513   1.644
10478SOL    HW242231   5.793   5.581   1.582
10478SOL    HW342232   5.867   5.450   1.592
10478SOL    MW442233   5.821   5.513   1.630
10479SOL     OW42234   5.871   4.832   1.151
10479SOL    HW242235   5.924   4.907   1.176
10479SOL    HW342236   5.790   4.870   1.117
10479SOL    MW442237   5.867   4.847   1.151
10480SOL     OW42238   6.411   4.736   1.139
10480SOL    HW242239   6.439   4.645   1.151
10480SOL    HW342240   6.340   4.730   1.075
10480SOL    MW442241   6.404   4.724   1.134
10481SOL     OW42242   5.726   4.601   0.557
10481SOL    HW242243   5.817   4.616   0.584
10481SOL    HW342244   5.729   4.522   0.503
10481SOL    MW442245   5.738   4.593   0.555
10482SOL     OW42246   5.962   4.309   1.811
10482SOL    HW242247   5.909   4.389   1.818
10482SOL    HW342248   6.032   4.321   1.876
10482SOL    MW442249   5.964   4.322   1.819
10483SOL     OW42250   6.348   3.859   1.518
10483SOL    HW242251   6.325   3.767   1.520
10483SOL    HW342252   6.434   3.861   1.475
10483SOL    MW442253   6.355   3.849   1.514
10484SOL     OW42254   6.032   4.383   1.557
10484SOL    HW242255   6.112   4.433   1.543
10484SOL    HW342256   6.023   4.377   1.652
10484SOL    MW442257   6.041   4.389   1.567
10485SOL     OW42258   6.353   5.533   0.931
10485SOL    HW242259   6.442   5.548   0.961
10485SOL    HW342260   6.348   5.580   0.847
10485SOL    MW442261   6.363   5.541   0.924
10486SOL     OW42262   7.009   3.908   1.828
10486SOL    HW242263   7.065   3.835   1.854
10486SOL    HW342264   6.979   3.946   1.910
10486SOL    MW442265   7.013   3.903   1.841
10487SOL     OW42266   5.734   5.213   0.596
10487SOL    HW242267   5.706   5.252   0.678
10487SOL    HW342268   5.754   5.122   0.618
10487SOL    MW442269   5.732   5.205   0.609
10488SOL     OW42270   6.567   5.256   0.631
10488SOL    HW242271   6.650   5.210   0.615
10488SOL    HW342272   6.557   5.255   0.727
10488SOL    MW442273   6.577   5.249   0.641
10489SOL     OW42274   7.399   4.401   0.945
10489SOL    HW242275   7.488   4.431   0.927
10489SOL    HW342276   7.379   4.341   0.874
10489SOL    MW442277   7.408   4.398   0.934
10490SOL     OW42278   7.250   4.580   1.825
10490SOL    HW242279   7.305   4.504   1.806
10490SOL    HW342280   7.252   4.588   1.920
10490SOL    MW442281   7.258   4.571   1.833
10491SOL     OW42282   6.300   5.313   0.036
10491SOL    HW242283   6.240   5.382   0.006
10491SOL    HW342284   6.245   5.255   0.089
10491SOL    MW442285   6.284   5.315   0.038
10492SOL     OW42286   6.545   4.142   1.344
10492SOL    HW242287   6.464   4.183   1.372
10492SOL    HW342288   6.592   4.210   1.296
10492SOL    MW442289   6.540   4.157   1.342
10493SOL     OW42290   6.805   4.480   0.967
10493SOL    HW242291   6.818   4.574   0.977
10493SOL    HW342292   6.766   4.470   0.881
10493SOL    MW442293   6.801   4.491   0.957
10494SOL     OW42294   6.257   4.675   0.771
10494SOL    HW242295   6.168   4.666   0.804
10494SOL    HW342296   6.261   4.765   0.739
10494SOL    MW442297   6.246   4.686   0.771
10495SOL     OW42298   7.056   4.258   0.766
10495SOL    HW242299   7.001   4.179   0.765
10495SOL    HW342300   7.038   4.299   0.850
10495SOL    MW442301   7.046   4.253   0.775
10496SOL     OW42302   6.027   3.945   1.583
10496SOL    HW242303   5.948   3.963   1.635
10496SOL    HW342304   6.022   4.007   1.510
10496SOL    MW442305   6.017   3.955   1.580
10497SOL     OW42306   6.675   4.462   0.723
10497SOL    HW242307   6.612   4.394   0.747
10497SOL    HW342308   6.695   4.443   0.631
10497SOL    MW442309   6.669   4.449   0.715
10498SOL     OW42310   5.931   5.357   0.425
10498SOL    HW242311   5.892   5.404   0.351
10498SOL    HW342312   5.865   5.292   0.450
10498SOL    MW442313   5.918   5.355   0.419
10499SOL     OW42314   6.423   4.766   0.449
10499SOL    HW242315   6.425   4.740   0.356
10499SOL    HW342316   6.481   4.703   0.492
10499SOL    MW442317   6.431   4.755   0.443
10500SOL     OW42318   6.976   5.326   1.221
10500SOL    HW242319   6.901   5.372   1.259
10500SOL    HW342320   6.958   5.233   1.238
10500SOL    MW442321   6.965   5.320   1.229
10501SOL     OW42322   6.980   5.534   0.651
10501SOL    HW242323   6.923   5.487   0.590
10501SOL    HW342324   7.066   5.495   0.638
10501SOL    MW442325   6.983   5.525   0.641
10502SOL     OW42326   6.933   4.010   0.782
10502SOL    HW242327   6.961   3.942   0.843
10502SOL    HW342328   6.847   3.981   0.752
10502SOL    MW442329   6.926   3.997   0.786
10503SOL     OW42330   5.738   4.944   0.716
10503SOL    HW242331   5.802   4.976   0.779
10503SOL    HW342332   5.787   4.880   0.664
10503SOL    MW442333   5.753   4.940   0.717
10504SOL     OW42334   6.238   5.020   1.698
10504SOL    HW242335   6.286   5.103   1.685
10504SOL    HW342336   6.295   4.968   1.754
10504SOL    MW442337   6.252   5.024   1.704
10505SOL     OW42338   5.814   5.262   1.838
10505SOL    HW242339   5.870   5.186   1.853
10505SOL    HW342340   5.763   5.240   1.760
10505SOL    MW442341   5.814   5.249   1.829
10506SOL     OW42342   6.699   5.099   1.447
10506SOL    HW242343   6.610   5.105   1.415
10506SOL    HW342344   6.743   5.178   1.415
10506SOL    MW442345   6.694   5.109   1.439
10507SOL     OW42346   5.992   3.767   1.789
10507SOL    HW242347   5.920   3.732   1.737
10507SOL    HW342348   6.050   3.808   1.724
10507SOL    MW442349   5.990   3.768   1.774
10508SOL     OW42350   6.016   5.257   1.088
10508SOL    HW242351   6.061   5.319   1.145
10508SOL    HW342352   5.923   5.276   1.101
10508SOL    MW442353   6.009   5.267   1.095
10509SOL     OW42354   7.456   4.786   1.442
10509SOL    HW242355   7.371   4.799   1.401
10509SOL    HW342356   7.436   4.750   1.529
10509SOL    MW442357   7.443   4.782   1.447
10510SOL     OW42358   6.438   5.325   1.196
10510SOL    HW242359   6.462   5.314   1.105
10510SOL    HW342360   6.361   5.382   1.194
10510SOL    MW442361   6.430   5.330   1.185
10511SOL     OW42362   6.233   5.030   0.986
10511SOL    HW242363   6.226   5.009   1.080
10511SOL    HW342364   6.151   4.998   0.949
10511SOL    MW442365   6.221   5.024   0.993
10512SOL     OW42366   7.097   4.040   1.388
10512SOL    HW242367   7.044   4.042   1.468
10512SOL    HW342368   7.082   3.953   1.351
10512SOL    MW442369   7.089   4.030   1.393
10513SOL     OW42370   7.433   3.964   1.261
10513SOL    HW242371   7.414   4.031   1.196
10513SOL    HW342372   7.490   3.902   1.216
10513SOL    MW442373   7.437   3.965   1.247
10514SOL     OW42374   5.679   5.122   1.649
10514SOL    HW242375   5.723   5.055   1.595
10514SOL    HW342376   5.594   5.084   1.669
10514SOL    MW442377   5.674   5.108   1.645
10515SOL     OW42378   6.362   3.797   0.701
10515SOL    HW242379   6.291   3.858   0.683
10515SOL    HW342380   6.413   3.794   0.620
10515SOL    MW442381   6.358   3.803   0.688
10516SOL     OW42382   6.120   5.037   0.450
10516SOL    HW242383   6.113   5.069   0.540
10516SOL    HW342384   6.030   5.021   0.422
10516SOL    MW442385   6.108   5.039   0.457
10517SOL     OW42386   6.715   5.430   1.359
10517SOL    HW242387   6.635   5.415   1.309
10517SOL    HW342388   6.722   5.525   1.366
10517SOL    MW442389   6.706   5.441   1.353
10518SOL     OW42390   6.829   5.395   0.849
10518SOL    HW242391   6.876   5.468   0.808
10518SOL    HW342392   6.750   5.434   0.885
10518SOL    MW442393   6.824   5.410   0.848
10519SOL     OW42394   7.237   5.490   1.124
10519SOL    HW242395   7.280   5.460   1.204
10519SOL    HW342396   7.156   5.438   1.121
10519SOL    MW442397   7.232   5.479   1.134
10520SOL     OW42398   6.322   4.454   1.831
10520SOL    HW242399   6.392   4.396   1.803
10520SOL    HW342400   6.265   4.399   1.886
10520SOL    MW442401   6.324   4.441   1.835
10521SOL     OW42402   7.109   4.666   1.464
10521SOL    HW242403   7.114   4.719   1.544
10521SOL    HW342404   7.071   4.583   1.492
10521SOL    MW442405   7.105   4.661   1.479
10522SOL     OW42406   6.749   3.801   1.710
10522SOL    HW242407   6.744   3.708   1.691
10522SOL    HW342408   6.832   3.812   1.756
10522SOL    MW442409   6.757   3.790   1.714
10523SOL     OW42410   7.219   5.072   0.986
10523SOL    HW242411   7.254   5.054   0.899
10523SOL    HW342412   7.124   5.073   0.973
10523SOL    MW442413   7.211   5.069   0.973
10524SOL     OW42414   6.648   4.720   1.355
10524SOL    HW242415   6.691   4.755   1.433
10524SOL    HW342416   6.631   4.797   1.301
10524SOL    MW442417   6.651   4.735   1.358
10525SOL     OW42418   6.039   3.862   0.657
10525SOL    HW242419   6.089   3.905   0.588
10525SOL    HW342420   5.954   3.906   0.657
10525SOL    MW442421   6.036   3.875   0.648
10526SOL     OW42422   5.798   4.924   1.517
10526SOL    HW242423   5.826   4.877   1.595
10526SOL    HW342424   5.719   4.879   1.488
10526SOL    MW442425   5.791   4.913   1.523
10527SOL     OW42426   6.306   4.251   1.484
10527SOL    HW242427   6.278   4.339   1.508
10527SOL    HW342428   6.275   4.195   1.555
10527SOL    MW442429   6.298   4.254   1.496
10528SOL     OW42430   5.961   4.647   0.697
10528SOL    HW242431   6.019   4.703   0.645
10528SOL    HW342432   6.005   4.562   0.699
10528SOL    MW442433   5.974   4.644   0.690
10529SOL     OW42434   7.101   3.999   0.534
10529SOL    HW242435   7.023   3.949   0.559
10529SOL    HW342436   7.072   4.090   0.534
10529SOL    MW442437   7.087   4.003   0.537
10530SOL     OW42438   6.687   3.961   0.693
10530SOL    HW242439   6.707   4.036   0.637
10530SOL    HW342440   6.667   4.000   0.778
10530SOL    MW442441   6.688   3.977   0.697
10531SOL     OW42442   7.447   4.734   1.712
10531SOL    HW242443   7.360   4.714   1.748
10531SOL    HW342444   7.501   4.660   1.737
10531SOL    MW442445   7.442   4.723   1.720
10532SOL     OW42446   5.668   5.247   0.869
10532SOL    HW242447   5.700   5.251   0.960
10532SOL    HW342448   5.573   5.255   0.877
10532SOL    MW442449   5.660   5.250   0.882
10533SOL     OW42450   5.623   4.373   0.416
10533SOL    HW242451   5.563   4.345   0.486
10533SOL    HW342452   5.697   4.313   0.422
10533SOL    MW442453   5.625   4.362   0.425
10534SOL     OW42454   7.191   5.585   1.850
10534SOL    HW242455   7.236   5.509   1.815
10534SOL    HW342456   7.229   5.598   1.937
10534SOL    MW442457   7.201   5.578   1.856
10535SOL     OW42458   6.791   5.104   0.576
10535SOL    HW242459   6.814   5.055   0.654
10535SOL    HW342460   6.872   5.146   0.548
10535SOL    MW442461   6.804   5.104   0.583
10536SOL     OW42462   6.049   4.112   1.305
10536SOL    HW242463   6.082   4.193   1.345
10536SOL    HW342464   6.022   4.138   1.217
10536SOL    MW442465   6.048   4.126   1.299
10537SOL     OW42466   6.003   4.079   1.041
10537SOL    HW242467   6.033   3.993   1.012
10537SOL    HW342468   5.908   4.072   1.044
10537SOL    MW442469   5.995   4.068   1.039
10538SOL     OW42470   6.832   4.288   1.732
10538SOL    HW242471   6.884   4.223   1.685
10538SOL    HW342472   6.790   4.339   1.662
10538SOL    MW442473   6.833   4.285   1.715
10539SOL     OW42474   6.931   4.083   1.593
10539SOL    HW242475   6.838   4.067   1.580
10539SOL    HW342476   6.957   4.021   1.661
10539SOL    MW442477   6.921   4.073   1.600
10540SOL     OW42478   6.146   3.857   0.932
10540SOL    HW242479   6.156   3.766   0.958
10540SOL    HW342480   6.102   3.853   0.847
10540SOL    MW442481   6.142   3.845   0.924
10541SOL     OW42482   6.240   5.472   1.478
10541SOL    HW242483   6.157   5.457   1.523
10541SOL    HW342484   6.299   5.405   1.513
10541SOL    MW442485   6.238   5.462   1.488
10542SOL     OW42486   7.297   4.179   1.103
10542SOL    HW242487   7.230   4.212   1.163
10542SOL    HW342488   7.340   4.257   1.069
10542SOL    MW442489   7.295   4.194   1.107
10543SOL     OW42490   7.475   4.899   1.073
10543SOL    HW242491   7.468   4.839   0.998
10543SOL    HW342492   7.401   4.959   1.062
10543SOL    MW442493   7.465   4.899   1.062
10544SOL     OW42494   6.857   4.761   0.991
10544SOL    HW242495   6.871   4.733   1.082
10544SOL    HW342496   6.943   4.792   0.963
10544SOL    MW442497   6.870   4.762   1.000
10545SOL     OW42498   6.940   4.256   1.270
10545SOL    HW242499   6.961   4.257   1.177
10545SOL    HW342500   6.985   4.178   1.303
10545SOL    MW442501   6.947   4.246   1.262
10546SOL     OW42502   7.433   4.387   1.812
10546SOL    HW242503   7.470   4.332   1.881
10546SOL    HW342504   7.458   4.344   1.730
10546SOL    MW442505   7.440   4.375   1.811
10547SOL     OW42506   6.980   4.685   1.863
10547SOL    HW242507   7.046   4.633   1.817
10547SOL    HW342508   7.000   4.672   1.956
10547SOL    MW442509   6.991   4.676   1.870
10548SOL     OW42510   6.991   4.546   0.490
10548SOL    HW242511   6.906   4.516   0.460
10548SOL    HW342512   6.983   4.553   0.585
10548SOL    MW442513   6.979   4.544   0.499
10549SOL     OW42514   6.067   5.009   1.221
10549SOL    HW242515   6.079   5.036   1.312
10549SOL    HW342516   6.048   5.090   1.174
10549SOL    MW442517   6.066   5.024   1.226
10550SOL     OW42518   6.351   3.989   1.044
10550SOL    HW242519   6.324   3.991   1.135
10550SOL    HW342520   6.281   3.941   0.999
10550SOL    MW442521   6.339   3.985   1.051
10551SOL     OW42522   6.205   5.481   1.206
10551SOL    HW242523   6.257   5.558   1.183
10551SOL    HW342524   6.214   5.473   1.301
10551SOL    MW442525   6.214   5.488   1.217
10552SOL     OW42526   7.107   5.066   1.438
10552SOL    HW242527   7.092   4.995   1.501
10552SOL    HW342528   7.153   5.024   1.366
10552SOL    MW442529   7.113   5.050   1.438
10553SOL     OW42530   6.181   4.797   1.555
10553SOL    HW242531   6.218   4.802   1.467
10553SOL    HW342532   6.220   4.870   1.602
10553SOL    MW442533   6.191   4.807   1.550
10554SOL     OW42534   6.361   4.840   1.367
10554SOL    HW242535   6.420   4.786   1.420
10554SOL    HW342536   6.376   4.812   1.277
10554SOL    MW442537   6.371   4.829   1.363
10555SOL     OW42538   7.172   5.329   1.539
10555SOL    HW242539   7.214   5.314   1.624
10555SOL    HW342540   7.163   5.242   1.501
10555SOL    MW442541   7.176   5.317   1.546
10556SOL     OW42542   6.832   3.808   1.130
10556SOL    HW242543   6.887   3.817   1.052
10556SOL    HW342544   6.887   3.842   1.201
10556SOL    MW442545   6.846   3.813   1.129
10557SOL     OW42546   5.839   4.721   0.314
10557SOL    HW242547   5.776   4.737   0.243
10557SOL    HW342548   5.786   4.684   0.385
10557SOL    MW442549   5.824   4.718   0.314
10558SOL     OW42550   6.734   5.306   0.325
10558SOL    HW242551   6.742   5.224   0.276
10558SOL    HW342552   6.653   5.345   0.292
10558SOL    MW442553   6.724   5.301   0.315
10559SOL     OW42554   5.993   5.464   0.894
10559SOL    HW242555   5.997   5.375   0.929
10559SOL    HW342556   6.019   5.455   0.803
10559SOL    MW442557   5.996   5.452   0.886
10560SOL     OW42558   6.610   4.942   1.137
10560SOL    HW242559   6.542   4.876   1.153
10560SOL    HW342560   6.628   4.936   1.044
10560SOL    MW442561   6.603   4.933   1.128
10561SOL     OW42562   5.699   5.217   1.388
10561SOL    HW242563   5.689   5.175   1.474
10561SOL    HW342564   5.620   5.270   1.378
10561SOL    MW442565   5.688   5.218   1.399
10562SOL     OW42566   6.603   4.081   0.958
10562SOL    HW242567   6.533   4.033   1.003
10562SOL    HW342568   6.635   4.144   1.022
10562SOL    MW442569   6.598   4.083   0.972
10563SOL     OW42570   6.254   4.517   1.578
10563SOL    HW242571   6.247   4.612   1.566
10563SOL    HW342572   6.263   4.506   1.673
10563SOL    MW442573   6.255   4.529   1.588
10564SOL     OW42574   5.975   5.032   1.836
10564SOL    HW242575   6.047   5.034   1.773
10564SOL    HW342576   5.945   4.941   1.835
10564SOL    MW442577   5.980   5.021   1.828
10565SOL     OW42578   7.059   3.795   1.303
10565SOL    HW242579   7.130   3.741   1.267
10565SOL    HW342580   7.058   3.774   1.396
10565SOL    MW442581   7.068   3.786   1.311
10566SOL     OW42582   7.259   5.325   1.787
10566SOL    HW242583   7.232   5.322   1.878
10566SOL    HW342584   7.355   5.329   1.790
10566SOL    MW442585   7.269   5.325   1.799
10567SOL     OW42586   6.070   4.187   0.771
10567SOL    HW242587   6.141   4.135   0.734
10567SOL    HW342588   6.056   4.152   0.858
10567SOL    MW442589   6.078   4.176   0.778
10568SOL     OW42590   5.625   5.522   1.843
10568SOL    HW242591   5.675   5.500   1.765
10568SOL    HW342592   5.633   5.617   1.851
10568SOL    MW442593   5.633   5.531   1.834
10569SOL     OW42594   6.386   5.280   0.847
10569SOL    HW242595   6.314   5.217   0.860
10569SOL    HW342596   6.347   5.365   0.865
10569SOL    MW442597   6.370   5.283   0.850
10570SOL     OW42598   6.706   4.128   0.495
10570SOL    HW242599   6.728   4.065   0.427
10570SOL    HW342600   6.611   4.120   0.506
10570SOL    MW442601   6.696   4.119   0.487
10571SOL     OW42602   5.791   3.818   0.427
10571SOL    HW242603   5.862   3.839   0.366
10571SOL    HW342604   5.745   3.746   0.385
10571SOL    MW442605   5.795   3.812   0.413
10572SOL     OW42606   5.622   4.285   1.570
10572SOL    HW242607   5.686   4.351   1.545
10572SOL    HW342608   5.541   4.312   1.527
10572SOL    MW442609   5.620   4.297   1.562
10573SOL     OW42610   7.360   5.192   0.527
10573SOL    HW242611   7.330   5.125   0.588
10573SOL    HW342612   7.454   5.198   0.541
10573SOL    MW442613   7.368   5.184   0.537
10574SOL     OW42614   6.916   4.869   0.457
10574SOL    HW242615   6.888   4.955   0.490
10574SOL    HW342616   6.944   4.885   0.367
10574SOL    MW442617   6.916   4.883   0.449
10575SOL     OW42618   6.578   3.789   0.510
10575SOL    HW242619   6.615   3.848   0.575
10575SOL    HW342620   6.555   3.845   0.436
10575SOL    MW442621   6.579   3.804   0.509
10576SOL     OW42622   7.431   4.671   0.932
10576SOL    HW242623   7.422   4.703   0.843
10576SOL    HW342624   7.384   4.587   0.932
10576SOL    MW442625   7.424   4.664   0.922
10577SOL     OW42626   5.807   4.511   1.511
10577SOL    HW242627   5.828   4.580   1.449
10577SOL    HW342628   5.887   4.458   1.516
10577SOL    MW442629   5.820   4.512   1.505
10578SOL     OW42630   7.343   4.602   0.633
10578SOL    HW242631   7.437   4.591   0.621
10578SOL    HW342632   7.319   4.674   0.574
10578SOL    MW442633   7.353   4.610   0.624
10579SOL     OW42634   5.792   4.526   1.778
10579SOL    HW242635   5.718   4.470   1.804
10579SOL    HW342636   5.787   4.529   1.683
10579SOL    MW442637   5.781   4.519   1.768
10580SOL     OW42638   5.958   3.813   1.228
10580SOL    HW242639   6.001   3.897   1.248
10580SOL    HW342640   6.031   3.751   1.221
10580SOL    MW442641   5.973   3.816   1.229
10581SOL     OW42642   6.775   4.339   1.470
10581SOL    HW242643   6.811   4.312   1.386
10581SOL    HW342644   6.688   4.373   1.449
10581SOL    MW442645   6.769   4.340   1.457
10582SOL     OW42646   5.758   4.211   0.695
10582SOL    HW242647   5.820   4.218   0.768
10582SOL    HW342648   5.758   4.118   0.672
10582SOL    MW442649   5.766   4.200   0.702
10583SOL     OW42650   6.440   4.472   1.179
10583SOL    HW242651   6.398   4.390   1.155
10583SOL    HW342652   6.441   4.471   1.275
10583SOL    MW442653   6.433   4.461   1.188
10584SOL     OW42654   7.111   5.605   1.578
10584SOL    HW242655   7.114   5.511   1.561
10584SOL    HW342656   7.134   5.613   1.670
10584SOL    MW442657   7.114   5.593   1.588
10585SOL     OW42658   6.244   3.942   1.284
10585SOL    HW242659   6.175   4.005   1.305
10585SOL    HW342660   6.271   3.906   1.369
10585SOL    MW442661   6.238   3.945   1.297
10586SOL     OW42662   7.039   3.795   0.901
10586SOL    HW242663   7.127   3.804   0.938
10586SOL    HW342664   7.049   3.736   0.827
10586SOL    MW442665   7.053   3.789   0.895
10587SOL     OW42666   7.071   4.534   0.745
10587SOL    HW242667   7.151   4.549   0.694
10587SOL    HW342668   7.064   4.439   0.751
10587SOL    MW442669   7.080   4.523   0.740
10588SOL     OW42670   6.521   4.460   1.442
10588SOL    HW242671   6.590   4.527   1.439
10588SOL    HW342672   6.454   4.498   1.498
10588SOL    MW442673   6.522   4.473   1.449
10589SOL     OW42674   5.939   4.760   1.690
10589SOL    HW242675   5.893   4.676   1.692
10589SOL    HW342676   5.996   4.754   1.614
10589SOL    MW442677   5.941   4.748   1.682
10590SOL     OW42678   6.190   5.135   0.691
10590SOL    HW242679   6.255   5.068   0.712
10590SOL    HW342680   6.242   5.212   0.668
10590SOL    MW442681   6.205   5.137   0.690
10591SOL     OW42682   6.451   4.300   0.821
10591SOL    HW242683   6.391   4.318   0.893
10591SOL    HW342684   6.485   4.212   0.840
10591SOL    MW442685   6.447   4.290   0.834
10592SOL     OW42686   7.392   3.799   1.490
10592SOL    HW242687   7.313   3.845   1.518
10592SOL    HW342688   7.427   3.853   1.419
10592SOL    MW442689   7.386   3.812   1.484
10593SOL     OW42690   6.676   4.883   0.840
10593SOL    HW242691   6.768   4.864   0.858
10593SOL    HW342692   6.649   4.813   0.780
10593SOL    MW442693   6.684   4.871   0.834
10594SOL     OW42694   6.950   5.121   0.936
10594SOL    HW242695   6.923   5.205   0.901
10594SOL    HW342696   6.910   5.116   1.023
10594SOL    MW442697   6.943   5.130   0.942
10595SOL     OW42698   6.869   5.069   1.204
10595SOL    HW242699   6.880   5.036   1.293
10595SOL    HW342700   6.788   5.028   1.173
10595SOL    MW442701   6.859   5.061   1.210
10596SOL     OW42702   5.882   4.427   0.974
10596SOL    HW242703   5.832   4.426   1.055
10596SOL    HW342704   5.902   4.519   0.958
10596SOL    MW442705   5.878   4.439   0.982
10597SOL     OW42706   6.949   5.191   1.736
10597SOL    HW242707   6.949   5.285   1.752
10597SOL    HW342708   6.994   5.181   1.652
10597SOL    MW442709   6.955   5.201   1.727
10598SOL     OW42710   7.188   3.909   0.297
10598SOL    HW242711   7.181   3.913   0.392
10598SOL    HW342712   7.200   4.000   0.270
10598SOL    MW442713   7.189   3.922   0.305
10599SOL     OW42714   5.804   4.095   1.715
10599SOL    HW242715   5.761   4.154   1.652
10599SOL    HW342716   5.872   4.150   1.755
10599SOL    MW442717   5.808   4.110   1.712
10600SOL     OW42718   6.916   4.715   1.260
10600SOL    HW242719   6.979   4.712   1.333
10600SOL    HW342720   6.832   4.733   1.302
10600SOL    MW442721   6.912   4.717   1.275
10601SOL     OW42722   6.460   5.430   0.449
10601SOL    HW242723   6.518   5.501   0.476
10601SOL    HW342724   6.483   5.358   0.507
10601SOL    MW442725   6.471   5.430   0.460
10602SOL     OW42726   7.255   3.892   1.039
10602SOL    HW242727   7.300   3.810   1.058
10602SOL    HW342728   7.275   3.948   1.115
10602SOL    MW442729   7.265   3.888   1.051
10603SOL     OW42730   5.703   3.735   1.138
10603SOL    HW242731   5.694   3.736   1.043
10603SOL    HW342732   5.797   3.747   1.153
10603SOL    MW442733   5.715   3.738   1.129
10604SOL     OW42734   7.340   4.928   0.758
10604SOL    HW242735   7.319   4.874   0.681
10604SOL    HW342736   7.436   4.926   0.762
10604SOL    MW442737   7.349   4.921   0.747
10605SOL     OW42738   6.032   5.073   1.501
10605SOL    HW242739   5.953   5.023   1.524
10605SOL    HW342740   6.102   5.032   1.551
10605SOL    MW442741   6.030   5.061   1.511
10606SOL     OW42742   7.040   4.359   1.020
10606SOL    HW242743   6.963   4.405   0.986
10606SOL    HW342744   7.097   4.428   1.054
10606SOL    MW442745   7.037   4.374   1.020
10607SOL     OW42746   6.978   5.307   0.439
10607SOL    HW242747   7.041   5.297   0.368
10607SOL    HW342748   6.895   5.327   0.394
10607SOL    MW442749   6.975   5.308   0.424
10608SOL     OW42750   7.341   4.575   2.125
10608SOL    HW242751   7.382   4.517   2.190
10608SOL    HW342752   7.248   4.567   2.142
10608SOL    MW442753   7.335   4.567   2.135
10609SOL     OW42754   7.207   4.507   3.120
10609SOL    HW242755   7.162   4.574   3.171
10609SOL    HW342756   7.295   4.543   3.106
10609SOL    MW442757   7.213   4.520   3.124
10610SOL     OW42758   6.135   4.758   2.354
10610SOL    HW242759   6.225   4.733   2.338
10610SOL    HW342760   6.131   4.851   2.331
10610SOL    MW442761   6.147   4.767   2.349
10611SOL     OW42762   7.251   5.461   2.496
10611SOL    HW242763   7.263   5.407   2.574
10611SOL    HW342764   7.288   5.409   2.425
10611SOL    MW442765   7.257   5.446   2.497
10612SOL     OW42766   6.630   5.346   3.497
10612SOL    HW242767   6.671   5.382   3.418
10612SOL    HW342768   6.665   5.257   3.504
10612SOL    MW442769   6.641   5.339   3.488
10613SOL     OW42770   7.187   4.901   3.101
10613SOL    HW242771   7.108   4.866   3.059
10613SOL    HW342772   7.214   4.973   3.045
10613SOL    MW442773   7.180   4.906   3.088
10614SOL     OW42774   6.419   4.214   2.367
10614SOL    HW242775   6.394   4.302   2.395
10614SOL    HW342776   6.416   4.217   2.271
10614SOL    MW442777   6.415   4.226   2.359
10615SOL     OW42778   5.861   4.242   2.295
10615SOL    HW242779   5.893   4.330   2.277
10615SOL    HW342780   5.849   4.240   2.390
10615SOL    MW442781   5.864   4.254   2.307
10616SOL     OW42782   5.939   4.655   3.196
10616SOL    HW242783   6.002   4.602   3.147
10616SOL    HW342784   5.920   4.729   3.139
10616SOL    MW442785   5.945   4.657   3.183
10617SOL     OW42786   6.260   3.997   2.382
10617SOL    HW242787   6.318   4.073   2.384
10617SOL    HW342788   6.195   4.018   2.315
10617SOL    MW442789   6.259   4.009   2.373
10618SOL     OW42790   6.347   4.924   2.557
10618SOL    HW242791   6.427   4.927   2.609
10618SOL    HW342792   6.375   4.891   2.471
10618SOL    MW442793   6.361   4.920   2.552
10619SOL     OW42794   6.372   5.265   3.460
10619SOL    HW242795   6.456   5.291   3.499
10619SOL    HW342796   6.396   5.209   3.386
10619SOL    MW442797   6.386   5.261   3.455
10620SOL     OW42798   6.124   4.428   2.548
10620SOL    HW242799   6.109   4.348   2.599
10620SOL    HW342800   6.206   4.463   2.582
10620SOL    MW442801   6.132   4.420   2.560
10621SOL     OW42802   6.461   5.114   3.233
10621SOL    HW242803   6.425   5.180   3.173
10621SOL    HW342804   6.389   5.052   3.246
10621SOL    MW442805   6.447   5.114   3.227
10622SOL     OW42806   6.266   4.254   2.925
10622SOL    HW242807   6.172   4.250   2.943
10622SOL    HW342808   6.296   4.163   2.934
10622SOL    MW442809   6.257   4.242   2.928
10623SOL     OW42810   6.012   4.668   2.829
10623SOL    HW242811   5.967   4.675   2.745
10623SOL    HW342812   5.992   4.751   2.873
10623SOL    MW442813   6.004   4.680   2.823
10624SOL     OW42814   5.709   5.514   2.704
10624SOL    HW242815   5.798   5.506   2.739
10624SOL    HW342816   5.673   5.426   2.709
10624SOL    MW442817   5.716   5.501   2.709
10625SOL     OW42818   6.974   4.906   2.073
10625SOL    HW242819   6.892   4.942   2.039
10625SOL    HW342820   7.042   4.949   2.022
10625SOL    MW442821   6.972   4.916   2.061
10626SOL     OW42822   5.973   5.041   2.739
10626SOL    HW242823   5.949   5.094   2.815
10626SOL    HW342824   6.029   5.099   2.687
10626SOL    MW442825   5.977   5.056   2.742
10627SOL     OW42826   6.535   4.685   2.549
10627SOL    HW242827   6.449   4.672   2.589
10627SOL    HW342828   6.588   4.612   2.581
10627SOL    MW442829   6.531   4.674   2.558
10628SOL     OW42830   5.943   5.337   3.334
10628SOL    HW242831   5.851   5.313   3.319
10628SOL    HW342832   5.987   5.254   3.351
10628SOL    MW442833   5.937   5.322   3.333
10629SOL     OW42834   6.526   5.047   2.266
10629SOL    HW242835   6.503   5.109   2.334
10629SOL    HW342836   6.483   4.965   2.292
10629SOL    MW442837   6.518   5.043   2.277
10630SOL     OW42838   7.399   4.048   2.722
10630SOL    HW242839   7.336   4.028   2.791
10630SOL    HW342840   7.389   3.977   2.659
10630SOL    MW442841   7.389   4.035   2.723
10631SOL     OW42842   6.023   4.020   2.234
10631SOL    HW242843   5.997   3.982   2.150
10631SOL    HW342844   5.960   4.090   2.250
10631SOL    MW442845   6.012   4.023   2.225
10632SOL     OW42846   5.858   4.981   2.271
10632SOL    HW242847   5.806   5.049   2.227
10632SOL    HW342848   5.855   4.907   2.211
10632SOL    MW442849   5.850   4.980   2.258
10633SOL     OW42850   6.520   5.444   2.049
10633SOL    HW242851   6.475   5.460   2.132
10633SOL    HW342852   6.451   5.409   1.991
10633SOL    MW442853   6.506   5.441   2.051
10634SOL     OW42854   7.455   4.217   2.024
10634SOL    HW242855   7.364   4.219   2.052
10634SOL    HW342856   7.500   4.279   2.082
10634SOL    MW442857   7.448   4.225   2.034
10635SOL     OW42858   7.200   4.820   2.374
10635SOL    HW242859   7.110   4.820   2.409
10635SOL    HW342860   7.193   4.866   2.291
10635SOL    MW442861   7.187   4.826   2.368
10636SOL     OW42862   7.000   4.455   3.446
10636SOL    HW242863   7.069   4.393   3.423
10636SOL    HW342864   6.925   4.429   3.393
10636SOL    MW442865   7.000   4.442   3.437
10637SOL     OW42866   5.741   5.335   2.998
10637SOL    HW242867   5.724   5.281   3.075
10637SOL    HW342868   5.729   5.425   3.028
10637SOL    MW442869   5.738   5.339   3.012
10638SOL     OW42870   6.736   4.842   3.438
10638SOL    HW242871   6.721   4.935   3.423
10638SOL    HW342872   6.831   4.832   3.438
10638SOL    MW442873   6.745   4.852   3.435
10639SOL     OW42874   6.532   4.266   3.639
10639SOL    HW242875   6.622   4.267   3.606
10639SOL    HW342876   6.491   4.191   3.597
10639SOL    MW442877   6.538   4.256   3.630
10640SOL     OW42878   7.107   4.798   2.766
10640SOL    HW242879   7.110   4.732   2.697
10640SOL    HW342880   7.192   4.841   2.762
10640SOL    MW442881   7.119   4.794   2.757
10641SOL     OW42882   6.727   4.401   2.335
10641SOL    HW242883   6.753   4.425   2.246
10641SOL    HW342884   6.709   4.308   2.331
10641SOL    MW442885   6.729   4.393   2.322
10642SOL     OW42886   7.392   5.021   2.186
10642SOL    HW242887   7.348   5.062   2.261
10642SOL    HW342888   7.449   5.089   2.151
10642SOL    MW442889   7.394   5.035   2.191
10643SOL     OW42890   6.312   4.070   3.589
10643SOL    HW242891   6.322   3.996   3.529
10643SOL    HW342892   6.348   4.039   3.672
10643SOL    MW442893   6.318   4.056   3.591
10644SOL     OW42894   6.048   5.437   2.504
10644SOL    HW242895   6.080   5.525   2.482
10644SOL    HW342896   6.001   5.409   2.426
10644SOL    MW442897   6.047   5.445   2.491
10645SOL     OW42898   7.432   3.799   2.553
10645SOL    HW242899   7.486   3.750   2.615
10645SOL    HW342900   7.375   3.733   2.514
10645SOL    MW442901   7.432   3.783   2.555
10646SOL     OW42902   5.764   5.497   2.081
10646SOL    HW242903   5.793   5.587   2.073
10646SOL    HW342904   5.714   5.480   2.002
10646SOL    MW442905   5.762   5.505   2.070
10647SOL     OW42906   6.551   3.752   2.966
10647SOL    HW242907   6.510   3.830   2.928
10647SOL    HW342908   6.645   3.770   2.961
10647SOL    MW442909   6.557   3.764   2.961
10648SOL     OW42910   7.168   5.305   2.052
10648SOL    HW242911   7.216   5.374   2.098
10648SOL    HW342912   7.089   5.349   2.021
10648SOL    MW442913   7.163   5.319   2.055
10649SOL     OW42914   6.566   4.430   1.996
10649SOL    HW242915   6.568   4.377   1.917
10649SOL    HW342916   6.654   4.467   2.002
10649SOL    MW442917   6.578   4.429   1.985
10650SOL     OW42918   7.180   4.356   2.332
10650SOL    HW242919   7.219   4.356   2.419
10650SOL    HW342920   7.121   4.432   2.332
10650SOL    MW442921   7.177   4.367   2.343
10651SOL     OW42922   6.497   4.723   3.461
10651SOL    HW242923   6.474   4.703   3.551
10651SOL    HW342924   6.582   4.767   3.466
10651SOL    MW442925   6.504   4.726   3.473
10652SOL     OW42926   6.577   3.860   3.221
10652SOL    HW242927   6.583   3.822   3.134
10652SOL    HW342928   6.566   3.954   3.206
10652SOL    MW442929   6.578   3.868   3.209
10653SOL     OW42930   6.666   4.349   3.055
10653SOL    HW242931   6.741   4.378   3.002
10653SOL    HW342932   6.598   4.414   3.039
10653SOL    MW442933   6.667   4.361   3.045
10654SOL     OW42934   7.216   4.317   3.332
10654SOL    HW242935   7.197   4.226   3.311
10654SOL    HW342936   7.194   4.366   3.253
10654SOL    MW442937   7.211   4.310   3.319
10655SOL     OW42938   7.358   5.411   3.236
10655SOL    HW242939   7.286   5.373   3.287
10655SOL    HW342940   7.375   5.496   3.277
10655SOL    MW442941   7.352   5.416   3.248
10656SOL     OW42942   6.663   4.055   3.438
10656SOL    HW242943   6.629   4.094   3.357
10656SOL    HW342944   6.641   3.963   3.431
10656SOL    MW442945   6.656   4.048   3.428
10657SOL     OW42946   7.072   4.869   3.514
10657SOL    HW242947   7.154   4.910   3.544
10657SOL    HW342948   7.035   4.831   3.594
10657SOL    MW442949   7.078   4.870   3.529
10658SOL     OW42950   7.367   4.242   2.498
10658SOL    HW242951   7.456   4.211   2.515
10658SOL    HW342952   7.310   4.182   2.546
10658SOL    MW442953   7.370   4.230   2.507
10659SOL     OW42954   5.793   3.956   2.527
10659SOL    HW242955   5.784   3.896   2.453
10659SOL    HW342956   5.726   3.927   2.590
10659SOL    MW442957   5.783   3.943   2.525
10660SOL     OW42958   6.736   5.049   2.088
10660SOL    HW242959   6.686   5.051   2.170
10660SOL    HW342960   6.670   5.067   2.020
10660SOL    MW442961   6.722   5.051   2.090
10661SOL     OW42962   5.740   4.129   2.890
10661SOL    HW242963   5.712   4.220   2.899
10661SOL    HW342964   5.677   4.090   2.829
10661SOL    MW442965   5.727   4.135   2.884
10662SOL     OW42966   6.199   5.467   2.196
10662SOL    HW242967   6.120   5.425   2.229
10662SOL    HW342968   6.265   5.450   2.263
10662SOL    MW442969   6.198   5.459   2.209
10663SOL     OW42970   7.327   4.987   3.593
10663SOL    HW242971   7.377   4.913   3.625
10663SOL    HW342972   7.273   5.014   3.668
10663SOL    MW442973   7.327   4.981   3.606
10664SOL     OW42974   6.335   4.882   1.903
10664SOL    HW242975   6.257   4.828   1.890
10664SOL    HW342976   6.306   4.955   1.956
10664SOL    MW442977   6.321   4.884   1.908
10665SOL     OW42978   7.461   4.622   3.095
10665SOL    HW242979   7.477   4.660   3.008
10665SOL    HW342980   7.495   4.688   3.156
10665SOL    MW442981   7.468   4.635   3.091
10666SOL     OW42982   7.253   5.331   2.764
10666SOL    HW242983   7.282   5.398   2.825
10666SOL    HW342984   7.234   5.255   2.819
10666SOL    MW442985   7.255   5.331   2.779
10667SOL     OW42986   6.916   5.398   1.971
10667SOL    HW242987   6.842   5.361   2.021
10667SOL    HW342988   6.924   5.488   2.004
10667SOL    MW442989   6.907   5.405   1.983
10668SOL     OW42990   5.724   4.404   3.060
10668SOL    HW242991   5.786   4.434   3.126
10668SOL    HW342992   5.658   4.473   3.054
10668SOL    MW442993   5.723   4.417   3.067
10669SOL     OW42994   7.140   5.072   1.913
10669SOL    HW242995   7.087   5.121   1.849
10669SOL    HW342996   7.171   5.138   1.974
10669SOL    MW442997   7.138   5.086   1.911
10670SOL     OW42998   6.365   3.961   1.968
10670SOL    HW242999   6.313   3.881   1.956
10670SOL    HW343000   6.452   3.938   1.936
10670SOL    MW443001   6.368   3.947   1.962
10671SOL     OW43002   5.819   5.513   3.512
10671SOL    HW243003   5.793   5.581   3.450
10671SOL    HW343004   5.867   5.450   3.460
10671SOL    MW443005   5.821   5.513   3.498
10672SOL     OW43006   5.871   4.832   3.019
10672SOL    HW243007   5.924   4.907   3.044
10672SOL    HW343008   5.790   4.870   2.985
10672SOL    MW443009   5.867   4.847   3.019
10673SOL     OW43010   6.411   4.736   3.007
10673SOL    HW243011   6.439   4.645   3.019
10673SOL    HW343012   6.340   4.730   2.943
10673SOL    MW443013   6.404   4.724   3.002
10674SOL     OW43014   5.726   4.601   2.425
10674SOL    HW243015   5.817   4.616   2.452
10674SOL    HW343016   5.729   4.522   2.371
10674SOL    MW443017   5.738   4.593   2.423
10675SOL     OW43018   5.962   4.309   3.679
10675SOL    HW243019   5.909   4.389   3.686
10675SOL    HW343020   6.032   4.321   3.744
10675SOL    MW443021   5.964   4.322   3.687
10676SOL     OW43022   6.348   3.859   3.386
10676SOL    HW243023   6.325   3.767   3.388
10676SOL    HW343024   6.434   3.861   3.343
10676SOL    MW443025   6.355   3.849   3.382
10677SOL     OW43026   6.032   4.383   3.425
10677SOL    HW243027   6.112   4.433   3.411
10677SOL    HW343028   6.023   4.377   3.520
10677SOL    MW443029   6.041   4.389   3.435
10678SOL     OW43030   6.353   5.533   2.799
10678SOL    HW243031   6.442   5.548   2.829
10678SOL    HW343032   6.348   5.580   2.715
10678SOL    MW443033   6.363   5.541   2.792
10679SOL     OW43034   7.009   3.908   3.696
10679SOL    HW243035   7.065   3.835   3.722
10679SOL    HW343036   6.979   3.946   3.778
10679SOL    MW443037   7.013   3.903   3.709
10680SOL     OW43038   5.734   5.213   2.464
10680SOL    HW243039   5.706   5.252   2.546
10680SOL    HW343040   5.754   5.122   2.486
10680SOL    MW443041   5.732   5.205   2.477
10681SOL     OW43042   6.567   5.256   2.499
10681SOL    HW243043   6.650   5.210   2.483
10681SOL    HW343044   6.557   5.255   2.595
10681SOL    MW443045   6.577   5.249   2.509
10682SOL     OW43046   7.399   4.401   2.813
10682SOL    HW243047   7.488   4.431   2.795
10682SOL    HW343048   7.379   4.341   2.742
10682SOL    MW443049   7.408   4.398   2.802
10683SOL     OW43050   7.250   4.580   3.693
10683SOL    HW243051   7.305   4.504   3.674
10683SOL    HW343052   7.252   4.588   3.788
10683SOL    MW443053   7.258   4.571   3.701
10684SOL     OW43054   6.300   5.313   1.904
10684SOL    HW243055   6.240   5.382   1.874
10684SOL    HW343056   6.245   5.255   1.957
10684SOL    MW443057   6.284   5.315   1.906
10685SOL     OW43058   6.738   3.958   2.127
10685SOL    HW243059   6.671   3.934   2.064
10685SOL    HW343060   6.803   4.007   2.076
10685SOL    MW443061   6.738   3.960   2.112
10686SOL     OW43062   6.545   4.142   3.212
10686SOL    HW243063   6.464   4.183   3.240
10686SOL    HW343064   6.592   4.210   3.164
10686SOL    MW443065   6.540   4.157   3.210
10687SOL     OW43066   6.805   4.480   2.835
10687SOL    HW243067   6.818   4.574   2.845
10687SOL    HW343068   6.766   4.470   2.749
10687SOL    MW443069   6.801   4.491   2.825
10688SOL     OW43070   6.257   4.675   2.639
10688SOL    HW243071   6.168   4.666   2.672
10688SOL    HW343072   6.261   4.765   2.607
10688SOL    MW443073   6.246   4.686   2.639
10689SOL     OW43074   7.056   4.258   2.634
10689SOL    HW243075   7.001   4.179   2.633
10689SOL    HW343076   7.038   4.299   2.718
10689SOL    MW443077   7.046   4.253   2.643
10690SOL     OW43078   6.027   3.945   3.451
10690SOL    HW243079   5.948   3.963   3.503
10690SOL    HW343080   6.022   4.007   3.378
10690SOL    MW443081   6.017   3.955   3.448
10691SOL     OW43082   6.675   4.462   2.591
10691SOL    HW243083   6.612   4.394   2.615
10691SOL    HW343084   6.695   4.443   2.499
10691SOL    MW443085   6.669   4.449   2.583
10692SOL     OW43086   5.931   5.357   2.293
10692SOL    HW243087   5.892   5.404   2.219
10692SOL    HW343088   5.865   5.292   2.318
10692SOL    MW443089   5.918   5.355   2.287
10693SOL     OW43090   6.423   4.766   2.317
10693SOL    HW243091   6.425   4.740   2.224
10693SOL    HW343092   6.481   4.703   2.360
10693SOL    MW443093   6.431   4.755   2.311
10694SOL     OW43094   6.976   5.326   3.089
10694SOL    HW243095   6.901   5.372   3.127
10694SOL    HW343096   6.958   5.233   3.106
10694SOL    MW443097   6.965   5.320   3.097
10695SOL     OW43098   6.980   5.534   2.519
10695SOL    HW243099   6.923   5.487   2.458
10695SOL    HW343100   7.066   5.495   2.506
10695SOL    MW443101   6.983   5.525   2.509
10696SOL     OW43102   6.933   4.010   2.650
10696SOL    HW243103   6.961   3.942   2.711
10696SOL    HW343104   6.847   3.981   2.620
10696SOL    MW443105   6.926   3.997   2.654
10697SOL     OW43106   5.738   4.944   2.584
10697SOL    HW243107   5.802   4.976   2.647
10697SOL    HW343108   5.787   4.880   2.532
10697SOL    MW443109   5.753   4.940   2.585
10698SOL     OW43110   6.238   5.020   3.566
10698SOL    HW243111   6.286   5.103   3.553
10698SOL    HW343112   6.295   4.968   3.622
10698SOL    MW443113   6.252   5.024   3.572
10699SOL     OW43114   5.814   5.262   3.706
10699SOL    HW243115   5.870   5.186   3.721
10699SOL    HW343116   5.763   5.240   3.628
10699SOL    MW443117   5.814   5.249   3.697
10700SOL     OW43118   6.913   4.114   1.985
10700SOL    HW243119   6.886   4.180   1.921
10700SOL    HW343120   6.983   4.157   2.035
10700SOL    MW443121   6.918   4.127   1.982
10701SOL     OW43122   6.581   3.819   1.922
10701SOL    HW243123   6.637   3.811   1.844
10701SOL    HW343124   6.558   3.729   1.944
10701SOL    MW443125   6.586   3.806   1.915
10702SOL     OW43126   7.086   4.670   2.127
10702SOL    HW243127   7.053   4.759   2.117
10702SOL    HW343128   7.051   4.641   2.212
10702SOL    MW443129   7.076   4.679   2.138
10703SOL     OW43130   6.699   5.099   3.315
10703SOL    HW243131   6.610   5.105   3.283
10703SOL    HW343132   6.743   5.178   3.283
10703SOL    MW443133   6.694   5.109   3.307
10704SOL     OW43134   5.992   3.767   3.657
10704SOL    HW243135   5.920   3.732   3.605
10704SOL    HW343136   6.050   3.808   3.592
10704SOL    MW443137   5.990   3.768   3.642
10705SOL     OW43138   6.016   5.257   2.956
10705SOL    HW243139   6.061   5.319   3.013
10705SOL    HW343140   5.923   5.276   2.969
10705SOL    MW443141   6.009   5.267   2.963
10706SOL     OW43142   7.456   4.786   3.310
10706SOL    HW243143   7.371   4.799   3.269
10706SOL    HW343144   7.436   4.750   3.397
10706SOL    MW443145   7.443   4.782   3.315
10707SOL     OW43146   6.438   5.325   3.064
10707SOL    HW243147   6.462   5.314   2.973
10707SOL    HW343148   6.361   5.382   3.062
10707SOL    MW443149   6.430   5.330   3.053
10708SOL     OW43150   6.080   4.708   1.919
10708SOL    HW243151   6.003   4.721   1.975
10708SOL    HW343152   6.044   4.672   1.838
10708SOL    MW443153   6.066   4.704   1.916
10709SOL     OW43154   6.733   4.681   2.162
10709SOL    HW243155   6.643   4.702   2.137
10709SOL    HW343156   6.760   4.754   2.218
10709SOL    MW443157   6.725   4.693   2.165
10710SOL     OW43158   6.233   5.030   2.854
10710SOL    HW243159   6.226   5.009   2.948
10710SOL    HW343160   6.151   4.998   2.817
10710SOL    MW443161   6.221   5.024   2.861
10711SOL     OW43162   7.097   4.040   3.256
10711SOL    HW243163   7.044   4.042   3.336
10711SOL    HW343164   7.082   3.953   3.219
10711SOL    MW443165   7.089   4.030   3.261
10712SOL     OW43166   7.433   3.964   3.129
10712SOL    HW243167   7.414   4.031   3.064
10712SOL    HW343168   7.490   3.902   3.084
10712SOL    MW443169   7.437   3.965   3.115
10713SOL     OW43170   5.679   5.122   3.517
10713SOL    HW243171   5.723   5.055   3.463
10713SOL    HW343172   5.594   5.084   3.537
10713SOL    MW443173   5.674   5.108   3.513
10714SOL     OW43174   6.362   3.797   2.569
10714SOL    HW243175   6.291   3.858   2.551
10714SOL    HW343176   6.413   3.794   2.488
10714SOL    MW443177   6.358   3.803   2.556
10715SOL     OW43178   6.120   5.037   2.318
10715SOL    HW243179   6.113   5.069   2.408
10715SOL    HW343180   6.030   5.021   2.290
10715SOL    MW443181   6.108   5.039   2.325
10716SOL     OW43182   6.715   5.430   3.227
10716SOL    HW243183   6.635   5.415   3.177
10716SOL    HW343184   6.722   5.525   3.234
10716SOL    MW443185   6.706   5.441   3.221
10717SOL     OW43186   6.829   5.395   2.717
10717SOL    HW243187   6.876   5.468   2.676
10717SOL    HW343188   6.750   5.434   2.753
10717SOL    MW443189   6.824   5.410   2.716
10718SOL     OW43190   7.237   5.490   2.992
10718SOL    HW243191   7.280   5.460   3.072
10718SOL    HW343192   7.156   5.438   2.989
10718SOL    MW443193   7.232   5.479   3.002
10719SOL     OW43194   6.322   4.454   3.699
10719SOL    HW243195   6.392   4.396   3.671
10719SOL    HW343196   6.265   4.399   3.754
10719SOL    MW443197   6.324   4.441   3.703
10720SOL     OW43198   7.109   4.666   3.332
10720SOL    HW243199   7.114   4.719   3.412
10720SOL    HW343200   7.071   4.583   3.360
10720SOL    MW443201   7.105   4.661   3.347
10721SOL     OW43202   6.749   3.801   3.578
10721SOL    HW243203   6.744   3.708   3.559
10721SOL    HW343204   6.832   3.812   3.624
10721SOL    MW443205   6.757   3.790   3.582
10722SOL     OW43206   6.123   4.321   2.032
10722SOL    HW243207   6.089   4.377   2.102
10722SOL    HW343208   6.194   4.271   2.072
10722SOL    MW443209   6.129   4.322   2.046
10723SOL     OW43210   7.219   5.072   2.854
10723SOL    HW243211   7.254   5.054   2.767
10723SOL    HW343212   7.124   5.073   2.841
10723SOL    MW443213   7.211   5.069   2.841
10724SOL     OW43214   6.648   4.720   3.223
10724SOL    HW243215   6.691   4.755   3.301
10724SOL    HW343216   6.631   4.797   3.169
10724SOL    MW443217   6.651   4.735   3.226
10725SOL     OW43218   7.179   4.207   2.096
10725SOL    HW243219   7.171   4.278   2.033
10725SOL    HW343220   7.197   4.251   2.179
10725SOL    MW443221   7.180   4.221   2.098
10726SOL     OW43222   6.039   3.862   2.525
10726SOL    HW243223   6.089   3.905   2.456
10726SOL    HW343224   5.954   3.906   2.525
10726SOL    MW443225   6.036   3.875   2.516
10727SOL     OW43226   5.798   4.924   3.385
10727SOL    HW243227   5.826   4.877   3.463
10727SOL    HW343228   5.719   4.879   3.356
10727SOL    MW443229   5.791   4.913   3.391
10728SOL     OW43230   6.306   4.251   3.352
10728SOL    HW243231   6.278   4.339   3.376
10728SOL    HW343232   6.275   4.195   3.423
10728SOL    MW443233   6.298   4.254   3.364
10729SOL     OW43234   6.848   4.469   2.071
10729SOL    HW243235   6.895   4.487   1.990
10729SOL    HW343236   6.814   4.553   2.099
10729SOL    MW443237   6.850   4.483   2.064
10730SOL     OW43238   5.961   4.647   2.565
10730SOL    HW243239   6.019   4.703   2.513
10730SOL    HW343240   6.005   4.562   2.567
10730SOL    MW443241   5.974   4.644   2.558
10731SOL     OW43242   7.101   3.999   2.402
10731SOL    HW243243   7.023   3.949   2.427
10731SOL    HW343244   7.072   4.090   2.402
10731SOL    MW443245   7.087   4.003   2.405
10732SOL     OW43246   6.687   3.961   2.561
10732SOL    HW243247   6.707   4.036   2.505
10732SOL    HW343248   6.667   4.000   2.646
10732SOL    MW443249   6.688   3.977   2.565
10733SOL     OW43250   6.583   5.211   1.893
10733SOL    HW243251   6.610   5.289   1.845
10733SOL    HW343252   6.490   5.226   1.912
10733SOL    MW443253   6.574   5.224   1.889
10734SOL     OW43254   7.447   4.734   3.580
10734SOL    HW243255   7.360   4.714   3.616
10734SOL    HW343256   7.501   4.660   3.605
10734SOL    MW443257   7.442   4.723   3.588
10735SOL     OW43258   5.668   5.247   2.737
10735SOL    HW243259   5.700   5.251   2.828
10735SOL    HW343260   5.573   5.255   2.745
10735SOL    MW443261   5.660   5.250   2.750
10736SOL     OW43262   5.623   4.373   2.284
10736SOL    HW243263   5.563   4.345   2.354
10736SOL    HW343264   5.697   4.313   2.290
10736SOL    MW443265   5.625   4.362   2.293
10737SOL     OW43266   7.191   5.585   3.718
10737SOL    HW243267   7.236   5.509   3.683
10737SOL    HW343268   7.229   5.598   3.805
10737SOL    MW443269   7.201   5.578   3.724
10738SOL     OW43270   6.791   5.104   2.444
10738SOL    HW243271   6.814   5.055   2.522
10738SOL    HW343272   6.872   5.146   2.416
10738SOL    MW443273   6.804   5.104   2.451
10739SOL     OW43274   6.049   4.112   3.173
10739SOL    HW243275   6.082   4.193   3.213
10739SOL    HW343276   6.022   4.138   3.085
10739SOL    MW443277   6.048   4.126   3.167
10740SOL     OW43278   6.003   4.079   2.909
10740SOL    HW243279   6.033   3.993   2.880
10740SOL    HW343280   5.908   4.072   2.912
10740SOL    MW443281   5.995   4.068   2.907
10741SOL     OW43282   6.832   4.288   3.600
10741SOL    HW243283   6.884   4.223   3.553
10741SOL    HW343284   6.790   4.339   3.530
10741SOL    MW443285   6.833   4.285   3.583
10742SOL     OW43286   6.931   4.083   3.461
10742SOL    HW243287   6.838   4.067   3.448
10742SOL    HW343288   6.957   4.021   3.529
10742SOL    MW443289   6.921   4.073   3.468
10743SOL     OW43290   6.146   3.857   2.800
10743SOL    HW243291   6.156   3.766   2.826
10743SOL    HW343292   6.102   3.853   2.715
10743SOL    MW443293   6.142   3.845   2.792
10744SOL     OW43294   6.240   5.472   3.346
10744SOL    HW243295   6.157   5.457   3.391
10744SOL    HW343296   6.299   5.405   3.381
10744SOL    MW443297   6.238   5.462   3.356
10745SOL     OW43298   7.297   4.179   2.971
10745SOL    HW243299   7.230   4.212   3.031
10745SOL    HW343300   7.340   4.257   2.937
10745SOL    MW443301   7.295   4.194   2.975
10746SOL     OW43302   7.475   4.899   2.941
10746SOL    HW243303   7.468   4.839   2.866
10746SOL    HW343304   7.401   4.959   2.930
10746SOL    MW443305   7.465   4.899   2.930
10747SOL     OW43306   6.857   4.761   2.859
10747SOL    HW243307   6.871   4.733   2.950
10747SOL    HW343308   6.943   4.792   2.831
10747SOL    MW443309   6.870   4.762   2.868
10748SOL     OW43310   6.940   4.256   3.138
10748SOL    HW243311   6.961   4.257   3.045
10748SOL    HW343312   6.985   4.178   3.171
10748SOL    MW443313   6.947   4.246   3.130
10749SOL     OW43314   7.433   4.387   3.680
10749SOL    HW243315   7.470   4.332   3.749
10749SOL    HW343316   7.458   4.344   3.598
10749SOL    MW443317   7.440   4.375   3.679
10750SOL     OW43318   6.980   4.685   3.731
10750SOL    HW243319   7.046   4.633   3.685
10750SOL    HW343320   7.000   4.672   3.824
10750SOL    MW443321   6.991   4.676   3.738
10751SOL     OW43322   6.931   3.771   2.080
10751SOL    HW243323   7.005   3.815   2.123
10751SOL    HW343324   6.855   3.825   2.102
10751SOL    MW443325   6.931   3.783   2.088
10752SOL     OW43326   6.991   4.546   2.358
10752SOL    HW243327   6.906   4.516   2.328
10752SOL    HW343328   6.983   4.553   2.453
10752SOL    MW443329   6.979   4.544   2.367
10753SOL     OW43330   6.067   5.009   3.089
10753SOL    HW243331   6.079   5.036   3.180
10753SOL    HW343332   6.048   5.090   3.042
10753SOL    MW443333   6.066   5.024   3.094
10754SOL     OW43334   6.351   3.989   2.912
10754SOL    HW243335   6.324   3.991   3.003
10754SOL    HW343336   6.281   3.941   2.867
10754SOL    MW443337   6.339   3.985   2.919
10755SOL     OW43338   6.205   5.481   3.074
10755SOL    HW243339   6.257   5.558   3.051
10755SOL    HW343340   6.214   5.473   3.169
10755SOL    MW443341   6.214   5.488   3.085
10756SOL     OW43342   7.107   5.066   3.306
10756SOL    HW243343   7.092   4.995   3.369
10756SOL    HW343344   7.153   5.024   3.234
10756SOL    MW443345   7.113   5.050   3.306
10757SOL     OW43346   6.181   4.797   3.423
10757SOL    HW243347   6.218   4.802   3.335
10757SOL    HW343348   6.220   4.870   3.470
10757SOL    MW443349   6.191   4.807   3.418
10758SOL     OW43350   6.361   4.840   3.235
10758SOL    HW243351   6.420   4.786   3.288
10758SOL    HW343352   6.376   4.812   3.145
10758SOL    MW443353   6.371   4.829   3.231
10759SOL     OW43354   6.364   4.212   2.084
10759SOL    HW243355   6.437   4.261   2.047
10759SOL    HW343356   6.380   4.121   2.058
10759SOL    MW443357   6.376   4.207   2.077
10760SOL     OW43358   7.172   5.329   3.407
10760SOL    HW243359   7.214   5.314   3.492
10760SOL    HW343360   7.163   5.242   3.369
10760SOL    MW443361   7.176   5.317   3.414
10761SOL     OW43362   6.832   3.808   2.998
10761SOL    HW243363   6.887   3.817   2.920
10761SOL    HW343364   6.887   3.842   3.069
10761SOL    MW443365   6.846   3.813   2.997
10762SOL     OW43366   5.839   4.721   2.182
10762SOL    HW243367   5.776   4.737   2.111
10762SOL    HW343368   5.786   4.684   2.253
10762SOL    MW443369   5.824   4.718   2.182
10763SOL     OW43370   6.195   5.075   2.041
10763SOL    HW243371   6.210   5.051   2.133
10763SOL    HW343372   6.103   5.053   2.025
10763SOL    MW443373   6.185   5.068   2.051
10764SOL     OW43374   6.734   5.306   2.193
10764SOL    HW243375   6.742   5.224   2.144
10764SOL    HW343376   6.653   5.345   2.160
10764SOL    MW443377   6.724   5.301   2.183
10765SOL     OW43378   5.993   5.464   2.762
10765SOL    HW243379   5.997   5.375   2.797
10765SOL    HW343380   6.019   5.455   2.671
10765SOL    MW443381   5.996   5.452   2.754
10766SOL     OW43382   6.610   4.942   3.005
10766SOL    HW243383   6.542   4.876   3.021
10766SOL    HW343384   6.628   4.936   2.912
10766SOL    MW443385   6.603   4.933   2.996
10767SOL     OW43386   5.699   5.217   3.256
10767SOL    HW243387   5.689   5.175   3.342
10767SOL    HW343388   5.620   5.270   3.246
10767SOL    MW443389   5.688   5.218   3.267
10768SOL     OW43390   6.603   4.081   2.826
10768SOL    HW243391   6.533   4.033   2.871
10768SOL    HW343392   6.635   4.144   2.890
10768SOL    MW443393   6.598   4.083   2.840
10769SOL     OW43394   6.254   4.517   3.446
10769SOL    HW243395   6.247   4.612   3.434
10769SOL    HW343396   6.263   4.506   3.541
10769SOL    MW443397   6.255   4.529   3.456
10770SOL     OW43398   5.975   5.032   3.704
10770SOL    HW243399   6.047   5.034   3.641
10770SOL    HW343400   5.945   4.941   3.703
10770SOL    MW443401   5.980   5.021   3.696
10771SOL     OW43402   7.059   3.795   3.171
10771SOL    HW243403   7.130   3.741   3.135
10771SOL    HW343404   7.058   3.774   3.264
10771SOL    MW443405   7.068   3.786   3.179
10772SOL     OW43406   7.259   5.325   3.655
10772SOL    HW243407   7.232   5.322   3.746
10772SOL    HW343408   7.355   5.329   3.658
10772SOL    MW443409   7.269   5.325   3.667
10773SOL     OW43410   6.070   4.187   2.639
10773SOL    HW243411   6.141   4.135   2.602
10773SOL    HW343412   6.056   4.152   2.726
10773SOL    MW443413   6.078   4.176   2.646
10774SOL     OW43414   5.625   5.522   3.711
10774SOL    HW243415   5.675   5.500   3.633
10774SOL    HW343416   5.633   5.617   3.719
10774SOL    MW443417   5.633   5.531   3.702
10775SOL     OW43418   6.386   5.280   2.715
10775SOL    HW243419   6.314   5.217   2.728
10775SOL    HW343420   6.347   5.365   2.733
10775SOL    MW443421   6.370   5.283   2.718
10776SOL     OW43422   6.706   4.128   2.363
10776SOL    HW243423   6.728   4.065   2.295
10776SOL    HW343424   6.611   4.120   2.374
10776SOL    MW443425   6.696   4.119   2.355
10777SOL     OW43426   5.791   3.818   2.295
10777SOL    HW243427   5.862   3.839   2.234
10777SOL    HW343428   5.745   3.746   2.253
10777SOL    MW443429   5.795   3.812   2.281
10778SOL     OW43430   5.622   4.285   3.438
10778SOL    HW243431   5.686   4.351   3.413
10778SOL    HW343432   5.541   4.312   3.395
10778SOL    MW443433   5.620   4.297   3.430
10779SOL     OW43434   7.360   5.192   2.395
10779SOL    HW243435   7.330   5.125   2.456
10779SOL    HW343436   7.454   5.198   2.409
10779SOL    MW443437   7.368   5.184   2.405
10780SOL     OW43438   6.916   4.869   2.325
10780SOL    HW243439   6.888   4.955   2.358
10780SOL    HW343440   6.944   4.885   2.235
10780SOL    MW443441   6.916   4.883   2.317
10781SOL     OW43442   6.578   3.789   2.378
10781SOL    HW243443   6.615   3.848   2.443
10781SOL    HW343444   6.555   3.845   2.304
10781SOL    MW443445   6.579   3.804   2.377
10782SOL     OW43446   7.431   4.671   2.800
10782SOL    HW243447   7.422   4.703   2.711
10782SOL    HW343448   7.384   4.587   2.800
10782SOL    MW443449   7.424   4.664   2.790
10783SOL     OW43450   5.807   4.511   3.379
10783SOL    HW243451   5.828   4.580   3.317
10783SOL    HW343452   5.887   4.458   3.384
10783SOL    MW443453   5.820   4.512   3.373
10784SOL     OW43454   7.343   4.602   2.501
10784SOL    HW243455   7.437   4.591   2.489
10784SOL    HW343456   7.319   4.674   2.442
10784SOL    MW443457   7.353   4.610   2.492
10785SOL     OW43458   5.792   4.526   3.646
10785SOL    HW243459   5.718   4.470   3.672
10785SOL    HW343460   5.787   4.529   3.551
10785SOL    MW443461   5.781   4.519   3.636
10786SOL     OW43462   5.958   3.813   3.096
10786SOL    HW243463   6.001   3.897   3.116
10786SOL    HW343464   6.031   3.751   3.089
10786SOL    MW443465   5.973   3.816   3.097
10787SOL     OW43466   5.999   4.480   2.274
10787SOL    HW243467   5.999   4.575   2.259
10787SOL    HW343468   6.076   4.464   2.328
10787SOL    MW443469   6.009   4.491   2.279
10788SOL     OW43470   6.775   4.339   3.338
10788SOL    HW243471   6.811   4.312   3.254
10788SOL    HW343472   6.688   4.373   3.317
10788SOL    MW443473   6.769   4.340   3.325
10789SOL     OW43474   5.758   4.211   2.563
10789SOL    HW243475   5.820   4.218   2.636
10789SOL    HW343476   5.758   4.118   2.540
10789SOL    MW443477   5.766   4.200   2.570
10790SOL     OW43478   7.305   5.551   2.095
10790SOL    HW243479   7.372   5.584   2.035
10790SOL    HW343480   7.262   5.630   2.129
10790SOL    MW443481   7.307   5.566   2.091
10791SOL     OW43482   6.440   4.472   3.047
10791SOL    HW243483   6.398   4.390   3.023
10791SOL    HW343484   6.441   4.471   3.143
10791SOL    MW443485   6.433   4.461   3.056
10792SOL     OW43486   7.111   5.605   3.446
10792SOL    HW243487   7.114   5.511   3.429
10792SOL    HW343488   7.134   5.613   3.538
10792SOL    MW443489   7.114   5.593   3.456
10793SOL     OW43490   6.244   3.942   3.152
10793SOL    HW243491   6.175   4.005   3.173
10793SOL    HW343492   6.271   3.906   3.237
10793SOL    MW443493   6.238   3.945   3.165
10794SOL     OW43494   5.627   4.783   2.021
10794SOL    HW243495   5.596   4.848   2.084
10794SOL    HW343496   5.576   4.705   2.040
10794SOL    MW443497   5.617   4.780   2.031
10795SOL     OW43498   7.039   3.795   2.769
10795SOL    HW243499   7.127   3.804   2.806
10795SOL    HW343500   7.049   3.736   2.695
10795SOL    MW443501   7.053   3.789   2.763
10796SOL     OW43502   7.071   4.534   2.613
10796SOL    HW243503   7.151   4.549   2.562
10796SOL    HW343504   7.064   4.439   2.619
10796SOL    MW443505   7.080   4.523   2.608
10797SOL     OW43506   6.211   5.583   1.963
10797SOL    HW243507   6.116   5.583   1.955
10797SOL    HW343508   6.227   5.529   2.041
10797SOL    MW443509   6.201   5.577   1.972
10798SOL     OW43510   6.521   4.460   3.310
10798SOL    HW243511   6.590   4.527   3.307
10798SOL    HW343512   6.454   4.498   3.366
10798SOL    MW443513   6.522   4.473   3.317
10799SOL     OW43514   5.939   4.760   3.558
10799SOL    HW243515   5.893   4.676   3.560
10799SOL    HW343516   5.996   4.754   3.482
10799SOL    MW443517   5.941   4.748   3.550
10800SOL     OW43518   7.056   4.403   1.879
10800SOL    HW243519   6.984   4.379   1.821
10800SOL    HW343520   7.122   4.440   1.821
10800SOL    MW443521   7.055   4.405   1.864
10801SOL     OW43522   6.190   5.135   2.559
10801SOL    HW243523   6.255   5.068   2.580
10801SOL    HW343524   6.242   5.212   2.536
10801SOL    MW443525   6.205   5.137   2.558
10802SOL     OW43526   6.451   4.300   2.689
10802SOL    HW243527   6.391   4.318   2.761
10802SOL    HW343528   6.485   4.212   2.708
10802SOL    MW443529   6.447   4.290   2.702
10803SOL     OW43530   7.392   3.799   3.358
10803SOL    HW243531   7.313   3.845   3.386
10803SOL    HW343532   7.427   3.853   3.287
10803SOL    MW443533   7.386   3.812   3.352
10804SOL     OW43534   6.676   4.883   2.708
10804SOL    HW243535   6.768   4.864   2.726
10804SOL    HW343536   6.649   4.813   2.648
10804SOL    MW443537   6.684   4.871   2.702
10805SOL     OW43538   6.469   4.703   2.063
10805SOL    HW243539   6.455   4.615   2.028
10805SOL    HW343540   6.420   4.760   2.004
10805SOL    MW443541   6.461   4.698   2.051
10806SOL     OW43542   6.950   5.121   2.804
10806SOL    HW243543   6.923   5.205   2.769
10806SOL    HW343544   6.910   5.116   2.891
10806SOL    MW443545   6.943   5.130   2.810
10807SOL     OW43546   6.869   5.069   3.072
10807SOL    HW243547   6.880   5.036   3.161
10807SOL    HW343548   6.788   5.028   3.041
10807SOL    MW443549   6.859   5.061   3.078
10808SOL     OW43550   5.882   4.427   2.842
10808SOL    HW243551   5.832   4.426   2.923
10808SOL    HW343552   5.902   4.519   2.826
10808SOL    MW443553   5.878   4.439   2.850
10809SOL     OW43554   6.949   5.191   3.604
10809SOL    HW243555   6.949   5.285   3.620
10809SOL    HW343556   6.994   5.181   3.520
10809SOL    MW443557   6.955   5.201   3.595
10810SOL     OW43558   7.188   3.909   2.165
10810SOL    HW243559   7.181   3.913   2.260
10810SOL    HW343560   7.200   4.000   2.138
10810SOL    MW443561   7.189   3.922   2.173
10811SOL     OW43562   6.477   4.472   2.279
10811SOL    HW243563   6.457   4.458   2.186
10811SOL    HW343564   6.570   4.451   2.286
10811SOL    MW443565   6.487   4.467   2.268
10812SOL     OW43566   5.804   4.095   3.583
10812SOL    HW243567   5.761   4.154   3.520
10812SOL    HW343568   5.872   4.150   3.623
10812SOL    MW443569   5.808   4.110   3.580
10813SOL     OW43570   6.916   4.715   3.128
10813SOL    HW243571   6.979   4.712   3.201
10813SOL    HW343572   6.832   4.733   3.170
10813SOL    MW443573   6.912   4.717   3.143
10814SOL     OW43574   6.460   5.430   2.317
10814SOL    HW243575   6.518   5.501   2.344
10814SOL    HW343576   6.483   5.358   2.375
10814SOL    MW443577   6.471   5.430   2.328
10815SOL     OW43578   7.255   3.892   2.907
10815SOL    HW243579   7.300   3.810   2.926
10815SOL    HW343580   7.275   3.948   2.983
10815SOL    MW443581   7.265   3.888   2.919
10816SOL     OW43582   5.703   3.735   3.006
10816SOL    HW243583   5.694   3.736   2.911
10816SOL    HW343584   5.797   3.747   3.021
10816SOL    MW443585   5.715   3.738   2.997
10817SOL     OW43586   7.340   4.928   2.626
10817SOL    HW243587   7.319   4.874   2.549
10817SOL    HW343588   7.436   4.926   2.630
10817SOL    MW443589   7.349   4.921   2.615
10818SOL     OW43590   6.032   5.073   3.369
10818SOL    HW243591   5.953   5.023   3.392
10818SOL    HW343592   6.102   5.032   3.419
10818SOL    MW443593   6.030   5.061   3.379
10819SOL     OW43594   5.916   3.862   2.052
10819SOL    HW243595   5.845   3.917   2.020
10819SOL    HW343596   5.958   3.828   1.973
10819SOL    MW443597   5.912   3.864   2.038
10820SOL     OW43598   7.040   4.359   2.888
10820SOL    HW243599   6.963   4.405   2.854
10820SOL    HW343600   7.097   4.428   2.922
10820SOL    MW443601   7.037   4.374   2.888
10821SOL     OW43602   5.672   3.961   1.901
10821SOL    HW243603   5.639   4.040   1.945
10821SOL    HW343604   5.727   3.994   1.830
10821SOL    MW443605   5.675   3.975   1.898
10822SOL     OW43606   5.706   5.218   2.090
10822SOL    HW243607   5.723   5.302   2.132
10822SOL    HW343608   5.741   5.227   2.002
10822SOL    MW443609   5.711   5.231   2.084
10823SOL     OW43610   6.978   5.307   2.307
10823SOL    HW243611   7.041   5.297   2.236
10823SOL    HW343612   6.895   5.327   2.262
10823SOL    MW443613   6.975   5.308   2.292
10824SOL     OW43614   7.341   4.575   3.993
10824SOL    HW243615   7.382   4.517   4.058
10824SOL    HW343616   7.248   4.567   4.010
10824SOL    MW443617   7.335   4.567   4.003
10825SOL     OW43618   7.207   4.507   4.988
10825SOL    HW243619   7.162   4.574   5.039
10825SOL    HW343620   7.295   4.543   4.974
10825SOL    MW443621   7.213   4.520   4.992
10826SOL     OW43622   6.135   4.758   4.222
10826SOL    HW243623   6.225   4.733   4.206
10826SOL    HW343624   6.131   4.851   4.199
10826SOL    MW443625   6.147   4.767   4.217
10827SOL     OW43626   7.251   5.461   4.364
10827SOL    HW243627   7.263   5.407   4.442
10827SOL    HW343628   7.288   5.409   4.293
10827SOL    MW443629   7.257   5.446   4.365
10828SOL     OW43630   6.630   5.346   5.365
10828SOL    HW243631   6.671   5.382   5.286
10828SOL    HW343632   6.665   5.257   5.372
10828SOL    MW443633   6.641   5.339   5.356
10829SOL     OW43634   7.187   4.901   4.969
10829SOL    HW243635   7.108   4.866   4.927
10829SOL    HW343636   7.214   4.973   4.913
10829SOL    MW443637   7.180   4.906   4.956
10830SOL     OW43638   6.419   4.214   4.235
10830SOL    HW243639   6.394   4.302   4.263
10830SOL    HW343640   6.416   4.217   4.139
10830SOL    MW443641   6.415   4.226   4.227
10831SOL     OW43642   5.861   4.242   4.163
10831SOL    HW243643   5.893   4.330   4.145
10831SOL    HW343644   5.849   4.240   4.258
10831SOL    MW443645   5.864   4.254   4.175
10832SOL     OW43646   5.939   4.655   5.064
10832SOL    HW243647   6.002   4.602   5.015
10832SOL    HW343648   5.920   4.729   5.007
10832SOL    MW443649   5.945   4.657   5.051
10833SOL     OW43650   6.260   3.997   4.250
10833SOL    HW243651   6.318   4.073   4.252
10833SOL    HW343652   6.195   4.018   4.183
10833SOL    MW443653   6.259   4.009   4.241
10834SOL     OW43654   6.347   4.924   4.425
10834SOL    HW243655   6.427   4.927   4.477
10834SOL    HW343656   6.375   4.891   4.339
10834SOL    MW443657   6.361   4.920   4.420
10835SOL     OW43658   6.372   5.265   5.328
10835SOL    HW243659   6.456   5.291   5.367
10835SOL    HW343660   6.396   5.209   5.254
10835SOL    MW443661   6.386   5.261   5.323
10836SOL     OW43662   6.124   4.428   4.416
10836SOL    HW243663   6.109   4.348   4.467
10836SOL    HW343664   6.206   4.463   4.450
10836SOL    MW443665   6.132   4.420   4.428
10837SOL     OW43666   6.461   5.114   5.101
10837SOL    HW243667   6.425   5.180   5.041
10837SOL    HW343668   6.389   5.052   5.114
10837SOL    MW443669   6.447   5.114   5.095
10838SOL     OW43670   6.266   4.254   4.793
10838SOL    HW243671   6.172   4.250   4.811
10838SOL    HW343672   6.296   4.163   4.802
10838SOL    MW443673   6.257   4.242   4.796
10839SOL     OW43674   6.012   4.668   4.697
10839SOL    HW243675   5.967   4.675   4.613
10839SOL    HW343676   5.992   4.751   4.741
10839SOL    MW443677   6.004   4.680   4.691
10840SOL     OW43678   5.709   5.514   4.572
10840SOL    HW243679   5.798   5.506   4.607
10840SOL    HW343680   5.673   5.426   4.577
10840SOL    MW443681   5.716   5.501   4.577
10841SOL     OW43682   6.974   4.906   3.941
10841SOL    HW243683   6.892   4.942   3.907
10841SOL    HW343684   7.042   4.949   3.890
10841SOL    MW443685   6.972   4.916   3.929
10842SOL     OW43686   5.973   5.041   4.607
10842SOL    HW243687   5.949   5.094   4.683
10842SOL    HW343688   6.029   5.099   4.555
10842SOL    MW443689   5.977   5.056   4.610
10843SOL     OW43690   6.535   4.685   4.417
10843SOL    HW243691   6.449   4.672   4.457
10843SOL    HW343692   6.588   4.612   4.449
10843SOL    MW443693   6.531   4.674   4.426
10844SOL     OW43694   5.943   5.337   5.202
10844SOL    HW243695   5.851   5.313   5.187
10844SOL    HW343696   5.987   5.254   5.219
10844SOL    MW443697   5.937   5.322   5.201
10845SOL     OW43698   6.526   5.047   4.134
10845SOL    HW243699   6.503   5.109   4.202
10845SOL    HW343700   6.483   4.965   4.160
10845SOL    MW443701   6.518   5.043   4.145
10846SOL     OW43702   7.399   4.048   4.590
10846SOL    HW243703   7.336   4.028   4.659
10846SOL    HW343704   7.389   3.977   4.527
10846SOL    MW443705   7.389   4.035   4.591
10847SOL     OW43706   6.023   4.020   4.102
10847SOL    HW243707   5.997   3.982   4.018
10847SOL    HW343708   5.960   4.090   4.118
10847SOL    MW443709   6.012   4.023   4.093
10848SOL     OW43710   5.858   4.981   4.139
10848SOL    HW243711   5.806   5.049   4.095
10848SOL    HW343712   5.855   4.907   4.079
10848SOL    MW443713   5.850   4.980   4.126
10849SOL     OW43714   6.520   5.444   3.917
10849SOL    HW243715   6.475   5.460   4.000
10849SOL    HW343716   6.451   5.409   3.859
10849SOL    MW443717   6.506   5.441   3.919
10850SOL     OW43718   7.455   4.217   3.892
10850SOL    HW243719   7.364   4.219   3.920
10850SOL    HW343720   7.500   4.279   3.950
10850SOL    MW443721   7.448   4.225   3.902
10851SOL     OW43722   7.200   4.820   4.242
10851SOL    HW243723   7.110   4.820   4.277
10851SOL    HW343724   7.193   4.866   4.159
10851SOL    MW443725   7.187   4.826   4.236
10852SOL     OW43726   7.000   4.455   5.314
10852SOL    HW243727   7.069   4.393   5.291
10852SOL    HW343728   6.925   4.429   5.261
10852SOL    MW443729   7.000   4.442   5.305
10853SOL     OW43730   5.741   5.335   4.866
10853SOL    HW243731   5.724   5.281   4.943
10853SOL    HW343732   5.729   5.425   4.896
10853SOL    MW443733   5.738   5.339   4.880
10854SOL     OW43734   6.736   4.842   5.306
10854SOL    HW243735   6.721   4.935   5.291
10854SOL    HW343736   6.831   4.832   5.306
10854SOL    MW443737   6.745   4.852   5.303
10855SOL     OW43738   6.532   4.266   5.507
10855SOL    HW243739   6.622   4.267   5.474
10855SOL    HW343740   6.491   4.191   5.465
10855SOL    MW443741   6.538   4.256   5.498
10856SOL     OW43742   7.107   4.798   4.634
10856SOL    HW243743   7.110   4.732   4.565
10856SOL    HW343744   7.192   4.841   4.630
10856SOL    MW443745   7.119   4.794   4.625
10857SOL     OW43746   6.727   4.401   4.203
10857SOL    HW243747   6.753   4.425   4.114
10857SOL    HW343748   6.709   4.308   4.199
10857SOL    MW443749   6.729   4.393   4.190
10858SOL     OW43750   7.392   5.021   4.054
10858SOL    HW243751   7.348   5.062   4.129
10858SOL    HW343752   7.449   5.089   4.019
10858SOL    MW443753   7.394   5.035   4.059
10859SOL     OW43754   6.312   4.070   5.457
10859SOL    HW243755   6.322   3.996   5.397
10859SOL    HW343756   6.348   4.039   5.540
10859SOL    MW443757   6.318   4.056   5.459
10860SOL     OW43758   6.048   5.437   4.372
10860SOL    HW243759   6.080   5.525   4.350
10860SOL    HW343760   6.001   5.409   4.294
10860SOL    MW443761   6.047   5.445   4.359
10861SOL     OW43762   7.432   3.799   4.421
10861SOL    HW243763   7.486   3.750   4.483
10861SOL    HW343764   7.375   3.733   4.382
10861SOL    MW443765   7.432   3.783   4.423
10862SOL     OW43766   5.764   5.497   3.949
10862SOL    HW243767   5.793   5.587   3.941
10862SOL    HW343768   5.714   5.480   3.870
10862SOL    MW443769   5.762   5.505   3.938
10863SOL     OW43770   6.551   3.752   4.834
10863SOL    HW243771   6.510   3.830   4.796
10863SOL    HW343772   6.645   3.770   4.829
10863SOL    MW443773   6.557   3.764   4.829
10864SOL     OW43774   7.168   5.305   3.920
10864SOL    HW243775   7.216   5.374   3.966
10864SOL    HW343776   7.089   5.349   3.889
10864SOL    MW443777   7.163   5.319   3.923
10865SOL     OW43778   6.566   4.430   3.864
10865SOL    HW243779   6.568   4.377   3.785
10865SOL    HW343780   6.654   4.467   3.870
10865SOL    MW443781   6.578   4.429   3.853
10866SOL     OW43782   7.180   4.356   4.200
10866SOL    HW243783   7.219   4.356   4.287
10866SOL    HW343784   7.121   4.432   4.200
10866SOL    MW443785   7.177   4.367   4.211
10867SOL     OW43786   6.497   4.723   5.329
10867SOL    HW243787   6.474   4.703   5.419
10867SOL    HW343788   6.582   4.767   5.334
10867SOL    MW443789   6.504   4.726   5.341
10868SOL     OW43790   6.577   3.860   5.089
10868SOL    HW243791   6.583   3.822   5.002
10868SOL    HW343792   6.566   3.954   5.074
10868SOL    MW443793   6.578   3.868   5.077
10869SOL     OW43794   6.666   4.349   4.923
10869SOL    HW243795   6.741   4.378   4.870
10869SOL    HW343796   6.598   4.414   4.907
10869SOL    MW443797   6.667   4.361   4.913
10870SOL     OW43798   7.216   4.317   5.200
10870SOL    HW243799   7.197   4.226   5.179
10870SOL    HW343800   7.194   4.366   5.121
10870SOL    MW443801   7.211   4.310   5.187
10871SOL     OW43802   7.358   5.411   5.104
10871SOL    HW243803   7.286   5.373   5.155
10871SOL    HW343804   7.375   5.496   5.145
10871SOL    MW443805   7.352   5.416   5.116
10872SOL     OW43806   6.663   4.055   5.306
10872SOL    HW243807   6.629   4.094   5.225
10872SOL    HW343808   6.641   3.963   5.299
10872SOL    MW443809   6.656   4.048   5.296
10873SOL     OW43810   7.072   4.869   5.382
10873SOL    HW243811   7.154   4.910   5.412
10873SOL    HW343812   7.035   4.831   5.462
10873SOL    MW443813   7.078   4.870   5.397
10874SOL     OW43814   7.367   4.242   4.366
10874SOL    HW243815   7.456   4.211   4.383
10874SOL    HW343816   7.310   4.182   4.414
10874SOL    MW443817   7.370   4.230   4.375
10875SOL     OW43818   5.793   3.956   4.395
10875SOL    HW243819   5.784   3.896   4.321
10875SOL    HW343820   5.726   3.927   4.458
10875SOL    MW443821   5.783   3.943   4.393
10876SOL     OW43822   6.736   5.049   3.956
10876SOL    HW243823   6.686   5.051   4.038
10876SOL    HW343824   6.670   5.067   3.888
10876SOL    MW443825   6.722   5.051   3.958
10877SOL     OW43826   5.740   4.129   4.758
10877SOL    HW243827   5.712   4.220   4.767
10877SOL    HW343828   5.677   4.090   4.697
10877SOL    MW443829   5.727   4.135   4.752
10878SOL     OW43830   6.199   5.467   4.064
10878SOL    HW243831   6.120   5.425   4.097
10878SOL    HW343832   6.265   5.450   4.131
10878SOL    MW443833   6.198   5.459   4.077
10879SOL     OW43834   7.327   4.987   5.461
10879SOL    HW243835   7.377   4.913   5.493
10879SOL    HW343836   7.273   5.014   5.536
10879SOL    MW443837   7.327   4.981   5.474
10880SOL     OW43838   6.335   4.882   3.771
10880SOL    HW243839   6.257   4.828   3.758
10880SOL    HW343840   6.306   4.955   3.824
10880SOL    MW443841   6.321   4.884   3.776
10881SOL     OW43842   7.461   4.622   4.963
10881SOL    HW243843   7.477   4.660   4.876
10881SOL    HW343844   7.495   4.688   5.024
10881SOL    MW443845   7.468   4.635   4.959
10882SOL     OW43846   7.253   5.331   4.632
10882SOL    HW243847   7.282   5.398   4.693
10882SOL    HW343848   7.234   5.255   4.687
10882SOL    MW443849   7.255   5.331   4.647
10883SOL     OW43850   6.916   5.398   3.839
10883SOL    HW243851   6.842   5.361   3.889
10883SOL    HW343852   6.924   5.488   3.872
10883SOL    MW443853   6.907   5.405   3.851
10884SOL     OW43854   5.724   4.404   4.928
10884SOL    HW243855   5.786   4.434   4.994
10884SOL    HW343856   5.658   4.473   4.922
10884SOL    MW443857   5.723   4.417   4.935
10885SOL     OW43858   7.140   5.072   3.781
10885SOL    HW243859   7.087   5.121   3.717
10885SOL    HW343860   7.171   5.138   3.842
10885SOL    MW443861   7.138   5.086   3.779
10886SOL     OW43862   6.365   3.961   3.836
10886SOL    HW243863   6.313   3.881   3.824
10886SOL    HW343864   6.452   3.938   3.804
10886SOL    MW443865   6.368   3.947   3.830
10887SOL     OW43866   5.819   5.513   5.380
10887SOL    HW243867   5.793   5.581   5.318
10887SOL    HW343868   5.867   5.450   5.328
10887SOL    MW443869   5.821   5.513   5.366
10888SOL     OW43870   5.871   4.832   4.887
10888SOL    HW243871   5.924   4.907   4.912
10888SOL    HW343872   5.790   4.870   4.853
10888SOL    MW443873   5.867   4.847   4.887
10889SOL     OW43874   6.411   4.736   4.875
10889SOL    HW243875   6.439   4.645   4.887
10889SOL    HW343876   6.340   4.730   4.811
10889SOL    MW443877   6.404   4.724   4.870
10890SOL     OW43878   5.726   4.601   4.293
10890SOL    HW243879   5.817   4.616   4.320
10890SOL    HW343880   5.729   4.522   4.239
10890SOL    MW443881   5.738   4.593   4.291
10891SOL     OW43882   5.962   4.309   5.547
10891SOL    HW243883   5.909   4.389   5.554
10891SOL    HW343884   6.032   4.321   5.612
10891SOL    MW443885   5.964   4.322   5.555
10892SOL     OW43886   6.348   3.859   5.254
10892SOL    HW243887   6.325   3.767   5.256
10892SOL    HW343888   6.434   3.861   5.211
10892SOL    MW443889   6.355   3.849   5.250
10893SOL     OW43890   6.032   4.383   5.293
10893SOL    HW243891   6.112   4.433   5.279
10893SOL    HW343892   6.023   4.377   5.388
10893SOL    MW443893   6.041   4.389   5.303
10894SOL     OW43894   6.353   5.533   4.667
10894SOL    HW243895   6.442   5.548   4.697
10894SOL    HW343896   6.348   5.580   4.583
10894SOL    MW443897   6.363   5.541   4.660
10895SOL     OW43898   7.009   3.908   5.564
10895SOL    HW243899   7.065   3.835   5.590
10895SOL    HW343900   6.979   3.946   5.646
10895SOL    MW443901   7.013   3.903   5.577
10896SOL     OW43902   5.734   5.213   4.332
10896SOL    HW243903   5.706   5.252   4.414
10896SOL    HW343904   5.754   5.122   4.354
10896SOL    MW443905   5.732   5.205   4.345
10897SOL     OW43906   6.567   5.256   4.367
10897SOL    HW243907   6.650   5.210   4.351
10897SOL    HW343908   6.557   5.255   4.463
10897SOL    MW443909   6.577   5.249   4.377
10898SOL     OW43910   7.399   4.401   4.681
10898SOL    HW243911   7.488   4.431   4.663
10898SOL    HW343912   7.379   4.341   4.610
10898SOL    MW443913   7.408   4.398   4.670
10899SOL     OW43914   7.250   4.580   5.561
10899SOL    HW243915   7.305   4.504   5.542
10899SOL    HW343916   7.252   4.588   5.656
10899SOL    MW443917   7.258   4.571   5.569
10900SOL     OW43918   6.300   5.313   3.772
10900SOL    HW243919   6.240   5.382   3.742
10900SOL    HW343920   6.245   5.255   3.825
10900SOL    MW443921   6.284   5.315   3.774
10901SOL     OW43922   6.738   3.958   3.995
10901SOL    HW243923   6.671   3.934   3.932
10901SOL    HW343924   6.803   4.007   3.944
10901SOL    MW443925   6.738   3.960   3.980
10902SOL     OW43926   6.545   4.142   5.080
10902SOL    HW243927   6.464   4.183   5.108
10902SOL    HW343928   6.592   4.210   5.032
10902SOL    MW443929   6.540   4.157   5.078
10903SOL     OW43930   6.805   4.480   4.703
10903SOL    HW243931   6.818   4.574   4.713
10903SOL    HW343932   6.766   4.470   4.617
10903SOL    MW443933   6.801   4.491   4.693
10904SOL     OW43934   6.257   4.675   4.507
10904SOL    HW243935   6.168   4.666   4.540
10904SOL    HW343936   6.261   4.765   4.475
10904SOL    MW443937   6.246   4.686   4.507
10905SOL     OW43938   7.056   4.258   4.502
10905SOL    HW243939   7.001   4.179   4.501
10905SOL    HW343940   7.038   4.299   4.586
10905SOL    MW443941   7.046   4.253   4.511
10906SOL     OW43942   6.027   3.945   5.319
10906SOL    HW243943   5.948   3.963   5.371
10906SOL    HW343944   6.022   4.007   5.246
10906SOL    MW443945   6.017   3.955   5.316
10907SOL     OW43946   6.675   4.462   4.459
10907SOL    HW243947   6.612   4.394   4.483
10907SOL    HW343948   6.695   4.443   4.367
10907SOL    MW443949   6.669   4.449   4.451
10908SOL     OW43950   5.931   5.357   4.161
10908SOL    HW243951   5.892   5.404   4.087
10908SOL    HW343952   5.865   5.292   4.186
10908SOL    MW443953   5.918   5.355   4.155
10909SOL     OW43954   6.423   4.766   4.185
10909SOL    HW243955   6.425   4.740   4.092
10909SOL    HW343956   6.481   4.703   4.228
10909SOL    MW443957   6.431   4.755   4.179
10910SOL     OW43958   6.976   5.326   4.957
10910SOL    HW243959   6.901   5.372   4.995
10910SOL    HW343960   6.958   5.233   4.974
10910SOL    MW443961   6.965   5.320   4.965
10911SOL     OW43962   6.980   5.534   4.387
10911SOL    HW243963   6.923   5.487   4.326
10911SOL    HW343964   7.066   5.495   4.374
10911SOL    MW443965   6.983   5.525   4.377
10912SOL     OW43966   6.933   4.010   4.518
10912SOL    HW243967   6.961   3.942   4.579
10912SOL    HW343968   6.847   3.981   4.488
10912SOL    MW443969   6.926   3.997   4.522
10913SOL     OW43970   5.738   4.944   4.452
10913SOL    HW243971   5.802   4.976   4.515
10913SOL    HW343972   5.787   4.880   4.400
10913SOL    MW443973   5.753   4.940   4.453
10914SOL     OW43974   6.238   5.020   5.434
10914SOL    HW243975   6.286   5.103   5.421
10914SOL    HW343976   6.295   4.968   5.490
10914SOL    MW443977   6.252   5.024   5.440
10915SOL     OW43978   5.814   5.262   5.574
10915SOL    HW243979   5.870   5.186   5.589
10915SOL    HW343980   5.763   5.240   5.496
10915SOL    MW443981   5.814   5.249   5.565
10916SOL     OW43982   6.913   4.114   3.853
10916SOL    HW243983   6.886   4.180   3.789
10916SOL    HW343984   6.983   4.157   3.903
10916SOL    MW443985   6.918   4.127   3.850
10917SOL     OW43986   6.581   3.819   3.790
10917SOL    HW243987   6.637   3.811   3.712
10917SOL    HW343988   6.558   3.729   3.812
10917SOL    MW443989   6.586   3.806   3.783
10918SOL     OW43990   7.086   4.670   3.995
10918SOL    HW243991   7.053   4.759   3.985
10918SOL    HW343992   7.051   4.641   4.080
10918SOL    MW443993   7.076   4.679   4.006
10919SOL     OW43994   6.699   5.099   5.183
10919SOL    HW243995   6.610   5.105   5.151
10919SOL    HW343996   6.743   5.178   5.151
10919SOL    MW443997   6.694   5.109   5.175
10920SOL     OW43998   5.992   3.767   5.525
10920SOL    HW243999   5.920   3.732   5.473
10920SOL    HW344000   6.050   3.808   5.460
10920SOL    MW444001   5.990   3.768   5.510
10921SOL     OW44002   6.016   5.257   4.824
10921SOL    HW244003   6.061   5.319   4.881
10921SOL    HW344004   5.923   5.276   4.837
10921SOL    MW444005   6.009   5.267   4.831
10922SOL     OW44006   7.456   4.786   5.178
10922SOL    HW244007   7.371   4.799   5.137
10922SOL    HW344008   7.436   4.750   5.265
10922SOL    MW444009   7.443   4.782   5.183
10923SOL     OW44010   6.438   5.325   4.932
10923SOL    HW244011   6.462   5.314   4.841
10923SOL    HW344012   6.361   5.382   4.930
10923SOL    MW444013   6.430   5.330   4.921
10924SOL     OW44014   6.080   4.708   3.787
10924SOL    HW244015   6.003   4.721   3.843
10924SOL    HW344016   6.044   4.672   3.706
10924SOL    MW444017   6.066   4.704   3.784
10925SOL     OW44018   6.733   4.681   4.030
10925SOL    HW244019   6.643   4.702   4.005
10925SOL    HW344020   6.760   4.754   4.086
10925SOL    MW444021   6.725   4.693   4.033
10926SOL     OW44022   6.233   5.030   4.722
10926SOL    HW244023   6.226   5.009   4.816
10926SOL    HW344024   6.151   4.998   4.685
10926SOL    MW444025   6.221   5.024   4.729
10927SOL     OW44026   7.097   4.040   5.124
10927SOL    HW244027   7.044   4.042   5.204
10927SOL    HW344028   7.082   3.953   5.087
10927SOL    MW444029   7.089   4.030   5.129
10928SOL     OW44030   7.433   3.964   4.997
10928SOL    HW244031   7.414   4.031   4.932
10928SOL    HW344032   7.490   3.902   4.952
10928SOL    MW444033   7.437   3.965   4.983
10929SOL     OW44034   5.679   5.122   5.385
10929SOL    HW244035   5.723   5.055   5.331
10929SOL    HW344036   5.594   5.084   5.405
10929SOL    MW444037   5.674   5.108   5.381
10930SOL     OW44038   6.362   3.797   4.437
10930SOL    HW244039   6.291   3.858   4.419
10930SOL    HW344040   6.413   3.794   4.356
10930SOL    MW444041   6.358   3.803   4.424
10931SOL     OW44042   6.120   5.037   4.186
10931SOL    HW244043   6.113   5.069   4.276
10931SOL    HW344044   6.030   5.021   4.158
10931SOL    MW444045   6.108   5.039   4.193
10932SOL     OW44046   6.715   5.430   5.095
10932SOL    HW244047   6.635   5.415   5.045
10932SOL    HW344048   6.722   5.525   5.102
10932SOL    MW444049   6.706   5.441   5.089
10933SOL     OW44050   6.829   5.395   4.585
10933SOL    HW244051   6.876   5.468   4.544
10933SOL    HW344052   6.750   5.434   4.621
10933SOL    MW444053   6.824   5.410   4.584
10934SOL     OW44054   7.237   5.490   4.860
10934SOL    HW244055   7.280   5.460   4.940
10934SOL    HW344056   7.156   5.438   4.857
10934SOL    MW444057   7.232   5.479   4.870
10935SOL     OW44058   6.322   4.454   5.567
10935SOL    HW244059   6.392   4.396   5.539
10935SOL    HW344060   6.265   4.399   5.622
10935SOL    MW444061   6.324   4.441   5.571
10936SOL     OW44062   7.109   4.666   5.200
10936SOL    HW244063   7.114   4.719   5.280
10936SOL    HW344064   7.071   4.583   5.228
10936SOL    MW444065   7.105   4.661   5.215
10937SOL     OW44066   6.749   3.801   5.446
10937SOL    HW244067   6.744   3.708   5.427
10937SOL    HW344068   6.832   3.812   5.492
10937SOL    MW444069   6.757   3.790   5.450
10938SOL     OW44070   6.123   4.321   3.900
10938SOL    HW244071   6.089   4.377   3.970
10938SOL    HW344072   6.194   4.271   3.940
10938SOL    MW444073   6.129   4.322   3.914
10939SOL     OW44074   7.219   5.072   4.722
10939SOL    HW244075   7.254   5.054   4.635
10939SOL    HW344076   7.124   5.073   4.709
10939SOL    MW444077   7.211   5.069   4.709
10940SOL     OW44078   6.648   4.720   5.091
10940SOL    HW244079   6.691   4.755   5.169
10940SOL    HW344080   6.631   4.797   5.037
10940SOL    MW444081   6.651   4.735   5.094
10941SOL     OW44082   7.179   4.207   3.964
10941SOL    HW244083   7.171   4.278   3.901
10941SOL    HW344084   7.197   4.251   4.047
10941SOL    MW444085   7.180   4.221   3.966
10942SOL     OW44086   6.039   3.862   4.393
10942SOL    HW244087   6.089   3.905   4.324
10942SOL    HW344088   5.954   3.906   4.393
10942SOL    MW444089   6.036   3.875   4.384
10943SOL     OW44090   5.798   4.924   5.253
10943SOL    HW244091   5.826   4.877   5.331
10943SOL    HW344092   5.719   4.879   5.224
10943SOL    MW444093   5.791   4.913   5.259
10944SOL     OW44094   6.306   4.251   5.220
10944SOL    HW244095   6.278   4.339   5.244
10944SOL    HW344096   6.275   4.195   5.291
10944SOL    MW444097   6.298   4.254   5.232
10945SOL     OW44098   6.848   4.469   3.939
10945SOL    HW244099   6.895   4.487   3.858
10945SOL    HW344100   6.814   4.553   3.967
10945SOL    MW444101   6.850   4.483   3.932
10946SOL     OW44102   5.961   4.647   4.433
10946SOL    HW244103   6.019   4.703   4.381
10946SOL    HW344104   6.005   4.562   4.435
10946SOL    MW444105   5.974   4.644   4.426
10947SOL     OW44106   7.101   3.999   4.270
10947SOL    HW244107   7.023   3.949   4.295
10947SOL    HW344108   7.072   4.090   4.270
10947SOL    MW444109   7.087   4.003   4.273
10948SOL     OW44110   6.687   3.961   4.429
10948SOL    HW244111   6.707   4.036   4.373
10948SOL    HW344112   6.667   4.000   4.514
10948SOL    MW444113   6.688   3.977   4.433
10949SOL     OW44114   6.583   5.211   3.761
10949SOL    HW244115   6.610   5.289   3.713
10949SOL    HW344116   6.490   5.226   3.780
10949SOL    MW444117   6.574   5.224   3.757
10950SOL     OW44118   7.447   4.734   5.448
10950SOL    HW244119   7.360   4.714   5.484
10950SOL    HW344120   7.501   4.660   5.473
10950SOL    MW444121   7.442   4.723   5.456
10951SOL     OW44122   5.668   5.247   4.605
10951SOL    HW244123   5.700   5.251   4.696
10951SOL    HW344124   5.573   5.255   4.613
10951SOL    MW444125   5.660   5.250   4.618
10952SOL     OW44126   5.623   4.373   4.152
10952SOL    HW244127   5.563   4.345   4.222
10952SOL    HW344128   5.697   4.313   4.158
10952SOL    MW444129   5.625   4.362   4.161
10953SOL     OW44130   7.191   5.585   5.586
10953SOL    HW244131   7.236   5.509   5.551
10953SOL    HW344132   7.229   5.598   5.673
10953SOL    MW444133   7.201   5.578   5.592
10954SOL     OW44134   6.791   5.104   4.312
10954SOL    HW244135   6.814   5.055   4.390
10954SOL    HW344136   6.872   5.146   4.284
10954SOL    MW444137   6.804   5.104   4.319
10955SOL     OW44138   6.049   4.112   5.041
10955SOL    HW244139   6.082   4.193   5.081
10955SOL    HW344140   6.022   4.138   4.953
10955SOL    MW444141   6.048   4.126   5.035
10956SOL     OW44142   6.003   4.079   4.777
10956SOL    HW244143   6.033   3.993   4.748
10956SOL    HW344144   5.908   4.072   4.780
10956SOL    MW444145   5.995   4.068   4.775
10957SOL     OW44146   6.832   4.288   5.468
10957SOL    HW244147   6.884   4.223   5.421
10957SOL    HW344148   6.790   4.339   5.398
10957SOL    MW444149   6.833   4.285   5.451
10958SOL     OW44150   6.931   4.083   5.329
10958SOL    HW244151   6.838   4.067   5.316
10958SOL    HW344152   6.957   4.021   5.397
10958SOL    MW444153   6.921   4.073   5.336
10959SOL     OW44154   6.146   3.857   4.668
10959SOL    HW244155   6.156   3.766   4.694
10959SOL    HW344156   6.102   3.853   4.583
10959SOL    MW444157   6.142   3.845   4.660
10960SOL     OW44158   6.240   5.472   5.214
10960SOL    HW244159   6.157   5.457   5.259
10960SOL    HW344160   6.299   5.405   5.249
10960SOL    MW444161   6.238   5.462   5.224
10961SOL     OW44162   7.297   4.179   4.839
10961SOL    HW244163   7.230   4.212   4.899
10961SOL    HW344164   7.340   4.257   4.805
10961SOL    MW444165   7.295   4.194   4.843
10962SOL     OW44166   7.475   4.899   4.809
10962SOL    HW244167   7.468   4.839   4.734
10962SOL    HW344168   7.401   4.959   4.798
10962SOL    MW444169   7.465   4.899   4.798
10963SOL     OW44170   6.857   4.761   4.727
10963SOL    HW244171   6.871   4.733   4.818
10963SOL    HW344172   6.943   4.792   4.699
10963SOL    MW444173   6.870   4.762   4.736
10964SOL     OW44174   6.940   4.256   5.006
10964SOL    HW244175   6.961   4.257   4.913
10964SOL    HW344176   6.985   4.178   5.039
10964SOL    MW444177   6.947   4.246   4.998
10965SOL     OW44178   7.433   4.387   5.548
10965SOL    HW244179   7.470   4.332   5.617
10965SOL    HW344180   7.458   4.344   5.466
10965SOL    MW444181   7.440   4.375   5.547
10966SOL     OW44182   6.980   4.685   5.600
10966SOL    HW244183   7.046   4.633   5.554
10966SOL    HW344184   7.000   4.672   5.693
10966SOL    MW444185   6.991   4.676   5.607
10967SOL     OW44186   6.931   3.771   3.948
10967SOL    HW244187   7.005   3.815   3.991
10967SOL    HW344188   6.855   3.825   3.970
10967SOL    MW444189   6.931   3.783   3.956
10968SOL     OW44190   6.991   4.546   4.226
10968SOL    HW244191   6.906   4.516   4.196
10968SOL    HW344192   6.983   4.553   4.321
10968SOL    MW444193   6.979   4.544   4.235
10969SOL     OW44194   6.067   5.009   4.957
10969SOL    HW244195   6.079   5.036   5.048
10969SOL    HW344196   6.048   5.090   4.910
10969SOL    MW444197   6.066   5.024   4.962
10970SOL     OW44198   6.351   3.989   4.780
10970SOL    HW244199   6.324   3.991   4.871
10970SOL    HW344200   6.281   3.941   4.735
10970SOL    MW444201   6.339   3.985   4.787
10971SOL     OW44202   6.205   5.481   4.942
10971SOL    HW244203   6.257   5.558   4.919
10971SOL    HW344204   6.214   5.473   5.037
10971SOL    MW444205   6.214   5.488   4.953
10972SOL     OW44206   7.107   5.066   5.174
10972SOL    HW244207   7.092   4.995   5.237
10972SOL    HW344208   7.153   5.024   5.102
10972SOL    MW444209   7.113   5.050   5.174
10973SOL     OW44210   6.181   4.797   5.291
10973SOL    HW244211   6.218   4.802   5.203
10973SOL    HW344212   6.220   4.870   5.338
10973SOL    MW444213   6.191   4.807   5.286
10974SOL     OW44214   6.361   4.840   5.103
10974SOL    HW244215   6.420   4.786   5.156
10974SOL    HW344216   6.376   4.812   5.013
10974SOL    MW444217   6.371   4.829   5.099
10975SOL     OW44218   6.364   4.212   3.952
10975SOL    HW244219   6.437   4.261   3.915
10975SOL    HW344220   6.380   4.121   3.926
10975SOL    MW444221   6.376   4.207   3.945
10976SOL     OW44222   7.172   5.329   5.275
10976SOL    HW244223   7.214   5.314   5.360
10976SOL    HW344224   7.163   5.242   5.237
10976SOL    MW444225   7.176   5.317   5.282
10977SOL     OW44226   6.832   3.808   4.866
10977SOL    HW244227   6.887   3.817   4.788
10977SOL    HW344228   6.887   3.842   4.937
10977SOL    MW444229   6.846   3.813   4.865
10978SOL     OW44230   5.839   4.721   4.050
10978SOL    HW244231   5.776   4.737   3.979
10978SOL    HW344232   5.786   4.684   4.121
10978SOL    MW444233   5.824   4.718   4.050
10979SOL     OW44234   6.195   5.075   3.909
10979SOL    HW244235   6.210   5.051   4.001
10979SOL    HW344236   6.103   5.053   3.893
10979SOL    MW444237   6.185   5.068   3.919
10980SOL     OW44238   6.734   5.306   4.061
10980SOL    HW244239   6.742   5.224   4.012
10980SOL    HW344240   6.653   5.345   4.028
10980SOL    MW444241   6.724   5.301   4.051
10981SOL     OW44242   5.993   5.464   4.630
10981SOL    HW244243   5.997   5.375   4.665
10981SOL    HW344244   6.019   5.455   4.539
10981SOL    MW444245   5.996   5.452   4.622
10982SOL     OW44246   6.610   4.942   4.873
10982SOL    HW244247   6.542   4.876   4.889
10982SOL    HW344248   6.628   4.936   4.780
10982SOL    MW444249   6.603   4.933   4.864
10983SOL     OW44250   5.699   5.217   5.124
10983SOL    HW244251   5.689   5.175   5.210
10983SOL    HW344252   5.620   5.270   5.114
10983SOL    MW444253   5.688   5.218   5.135
10984SOL     OW44254   6.603   4.081   4.694
10984SOL    HW244255   6.533   4.033   4.739
10984SOL    HW344256   6.635   4.144   4.758
10984SOL    MW444257   6.598   4.083   4.708
10985SOL     OW44258   6.254   4.517   5.314
10985SOL    HW244259   6.247   4.612   5.302
10985SOL    HW344260   6.263   4.506   5.409
10985SOL    MW444261   6.255   4.529   5.324
10986SOL     OW44262   5.975   5.032   5.572
10986SOL    HW244263   6.047   5.034   5.509
10986SOL    HW344264   5.945   4.941   5.571
10986SOL    MW444265   5.980   5.021   5.564
10987SOL     OW44266   7.059   3.795   5.039
10987SOL    HW244267   7.130   3.741   5.003
10987SOL    HW344268   7.058   3.774   5.132
10987SOL    MW444269   7.068   3.786   5.047
10988SOL     OW44270   7.259   5.325   5.523
10988SOL    HW244271   7.232   5.322   5.614
10988SOL    HW344272   7.355   5.329   5.526
10988SOL    MW444273   7.269   5.325   5.535
10989SOL     OW44274   6.070   4.187   4.507
10989SOL    HW244275   6.141   4.135   4.470
10989SOL    HW344276   6.056   4.152   4.594
10989SOL    MW444277   6.078   4.176   4.514
10990SOL     OW44278   5.625   5.522   5.579
10990SOL    HW244279   5.675   5.500   5.501
10990SOL    HW344280   5.633   5.617   5.587
10990SOL    MW444281   5.633   5.531   5.570
10991SOL     OW44282   6.386   5.280   4.583
10991SOL    HW244283   6.314   5.217   4.596
10991SOL    HW344284   6.347   5.365   4.601
10991SOL    MW444285   6.370   5.283   4.586
10992SOL     OW44286   6.706   4.128   4.231
10992SOL    HW244287   6.728   4.065   4.163
10992SOL    HW344288   6.611   4.120   4.242
10992SOL    MW444289   6.696   4.119   4.223
10993SOL     OW44290   5.791   3.818   4.163
10993SOL    HW244291   5.862   3.839   4.102
10993SOL    HW344292   5.745   3.746   4.121
10993SOL    MW444293   5.795   3.812   4.149
10994SOL     OW44294   5.622   4.285   5.306
10994SOL    HW244295   5.686   4.351   5.281
10994SOL    HW344296   5.541   4.312   5.263
10994SOL    MW444297   5.620   4.297   5.298
10995SOL     OW44298   7.360   5.192   4.263
10995SOL    HW244299   7.330   5.125   4.324
10995SOL    HW344300   7.454   5.198   4.277
10995SOL    MW444301   7.368   5.184   4.273
10996SOL     OW44302   6.916   4.869   4.193
10996SOL    HW244303   6.888   4.955   4.226
10996SOL    HW344304   6.944   4.885   4.103
10996SOL    MW444305   6.916   4.883   4.185
10997SOL     OW44306   6.578   3.789   4.246
10997SOL    HW244307   6.615   3.848   4.311
10997SOL    HW344308   6.555   3.845   4.172
10997SOL    MW444309   6.579   3.804   4.245
10998SOL     OW44310   7.431   4.671   4.668
10998SOL    HW244311   7.422   4.703   4.579
10998SOL    HW344312   7.384   4.587   4.668
10998SOL    MW444313   7.424   4.664   4.658
10999SOL     OW44314   5.807   4.511   5.247
10999SOL    HW244315   5.828   4.580   5.185
10999SOL    HW344316   5.887   4.458   5.252
10999SOL    MW444317   5.820   4.512   5.241
11000SOL     OW44318   7.343   4.602   4.369
11000SOL    HW244319   7.437   4.591   4.357
11000SOL    HW344320   7.319   4.674   4.310
11000SOL    MW444321   7.353   4.610   4.360
11001SOL     OW44322   5.792   4.526   5.514
11001SOL    HW244323   5.718   4.470   5.540
11001SOL    HW344324   5.787   4.529   5.419
11001SOL    MW444325   5.781   4.519   5.504
11002SOL     OW44326   5.958   3.813   4.964
11002SOL    HW244327   6.001   3.897   4.984
11002SOL    HW344328   6.031   3.751   4.957
11002SOL    MW444329   5.973   3.816   4.965
11003SOL     OW44330   5.999   4.480   4.142
11003SOL    HW244331   5.999   4.575   4.127
11003SOL    HW344332   6.076   4.464   4.196
11003SOL    MW444333   6.009   4.491   4.147
11004SOL     OW44334   6.775   4.339   5.206
11004SOL    HW244335   6.811   4.312   5.122
11004SOL    HW344336   6.688   4.373   5.185
11004SOL    MW444337   6.769   4.340   5.193
11005SOL     OW44338   5.758   4.211   4.431
11005SOL    HW244339   5.820   4.218   4.504
11005SOL    HW344340   5.758   4.118   4.408
11005SOL    MW444341   5.766   4.200   4.438
11006SOL     OW44342   7.305   5.551   3.963
11006SOL    HW244343   7.372   5.584   3.903
11006SOL    HW344344   7.262   5.630   3.997
11006SOL    MW444345   7.307   5.566   3.959
11007SOL     OW44346   6.440   4.472   4.915
11007SOL    HW244347   6.398   4.390   4.891
11007SOL    HW344348   6.441   4.471   5.011
11007SOL    MW444349   6.433   4.461   4.924
11008SOL     OW44350   7.111   5.605   5.314
11008SOL    HW244351   7.114   5.511   5.297
11008SOL    HW344352   7.134   5.613   5.406
11008SOL    MW444353   7.114   5.593   5.324
11009SOL     OW44354   6.244   3.942   5.020
11009SOL    HW244355   6.175   4.005   5.041
11009SOL    HW344356   6.271   3.906   5.105
11009SOL    MW444357   6.238   3.945   5.033
11010SOL     OW44358   5.627   4.783   3.889
11010SOL    HW244359   5.596   4.848   3.952
11010SOL    HW344360   5.576   4.705   3.908
11010SOL    MW444361   5.617   4.780   3.899
11011SOL     OW44362   7.039   3.795   4.637
11011SOL    HW244363   7.127   3.804   4.674
11011SOL    HW344364   7.049   3.736   4.563
11011SOL    MW444365   7.053   3.789   4.631
11012SOL     OW44366   7.071   4.534   4.481
11012SOL    HW244367   7.151   4.549   4.430
11012SOL    HW344368   7.064   4.439   4.487
11012SOL    MW444369   7.080   4.523   4.476
11013SOL     OW44370   6.211   5.583   3.831
11013SOL    HW244371   6.116   5.583   3.823
11013SOL    HW344372   6.227   5.529   3.909
11013SOL    MW444373   6.201   5.577   3.840
11014SOL     OW44374   6.521   4.460   5.178
11014SOL    HW244375   6.590   4.527   5.175
11014SOL    HW344376   6.454   4.498   5.234
11014SOL    MW444377   6.522   4.473   5.185
11015SOL     OW44378   5.939   4.760   5.426
11015SOL    HW244379   5.893   4.676   5.428
11015SOL    HW344380   5.996   4.754   5.350
11015SOL    MW444381   5.941   4.748   5.418
11016SOL     OW44382   7.056   4.403   3.747
11016SOL    HW244383   6.984   4.379   3.689
11016SOL    HW344384   7.122   4.440   3.689
11016SOL    MW444385   7.055   4.405   3.732
11017SOL     OW44386   6.190   5.135   4.427
11017SOL    HW244387   6.255   5.068   4.448
11017SOL    HW344388   6.242   5.212   4.404
11017SOL    MW444389   6.205   5.137   4.426
11018SOL     OW44390   6.451   4.300   4.557
11018SOL    HW244391   6.391   4.318   4.629
11018SOL    HW344392   6.485   4.212   4.576
11018SOL    MW444393   6.447   4.290   4.570
11019SOL     OW44394   7.392   3.799   5.226
11019SOL    HW244395   7.313   3.845   5.254
11019SOL    HW344396   7.427   3.853   5.155
11019SOL    MW444397   7.386   3.812   5.220
11020SOL     OW44398   6.676   4.883   4.576
11020SOL    HW244399   6.768   4.864   4.594
11020SOL    HW344400   6.649   4.813   4.516
11020SOL    MW444401   6.684   4.871   4.570
11021SOL     OW44402   6.469   4.703   3.931
11021SOL    HW244403   6.455   4.615   3.896
11021SOL    HW344404   6.420   4.760   3.872
11021SOL    MW444405   6.461   4.698   3.919
11022SOL     OW44406   6.950   5.121   4.672
11022SOL    HW244407   6.923   5.205   4.637
11022SOL    HW344408   6.910   5.116   4.759
11022SOL    MW444409   6.943   5.130   4.678
11023SOL     OW44410   6.869   5.069   4.940
11023SOL    HW244411   6.880   5.036   5.029
11023SOL    HW344412   6.788   5.028   4.909
11023SOL    MW444413   6.859   5.061   4.946
11024SOL     OW44414   5.882   4.427   4.710
11024SOL    HW244415   5.832   4.426   4.791
11024SOL    HW344416   5.902   4.519   4.694
11024SOL    MW444417   5.878   4.439   4.718
11025SOL     OW44418   6.949   5.191   5.472
11025SOL    HW244419   6.949   5.285   5.488
11025SOL    HW344420   6.994   5.181   5.388
11025SOL    MW444421   6.955   5.201   5.463
11026SOL     OW44422   7.188   3.909   4.033
11026SOL    HW244423   7.181   3.913   4.128
11026SOL    HW344424   7.200   4.000   4.006
11026SOL    MW444425   7.189   3.922   4.041
11027SOL     OW44426   6.477   4.472   4.147
11027SOL    HW244427   6.457   4.458   4.054
11027SOL    HW344428   6.570   4.451   4.154
11027SOL    MW444429   6.487   4.467   4.136
11028SOL     OW44430   5.804   4.095   5.451
11028SOL    HW244431   5.761   4.154   5.388
11028SOL    HW344432   5.872   4.150   5.491
11028SOL    MW444433   5.808   4.110   5.448
11029SOL     OW44434   6.916   4.715   4.996
11029SOL    HW244435   6.979   4.712   5.069
11029SOL    HW344436   6.832   4.733   5.038
11029SOL    MW444437   6.912   4.717   5.011
11030SOL     OW44438   6.460   5.430   4.185
11030SOL    HW244439   6.518   5.501   4.212
11030SOL    HW344440   6.483   5.358   4.243
11030SOL    MW444441   6.471   5.430   4.196
11031SOL     OW44442   7.255   3.892   4.775
11031SOL    HW244443   7.300   3.810   4.794
11031SOL    HW344444   7.275   3.948   4.851
11031SOL    MW444445   7.265   3.888   4.787
11032SOL     OW44446   5.703   3.735   4.874
11032SOL    HW244447   5.694   3.736   4.779
11032SOL    HW344448   5.797   3.747   4.889
11032SOL    MW444449   5.715   3.738   4.865
11033SOL     OW44450   7.340   4.928   4.494
11033SOL    HW244451   7.319   4.874   4.417
11033SOL    HW344452   7.436   4.926   4.498
11033SOL    MW444453   7.349   4.921   4.483
11034SOL     OW44454   6.032   5.073   5.237
11034SOL    HW244455   5.953   5.023   5.260
11034SOL    HW344456   6.102   5.032   5.287
11034SOL    MW444457   6.030   5.061   5.247
11035SOL     OW44458   5.916   3.862   3.920
11035SOL    HW244459   5.845   3.917   3.888
11035SOL    HW344460   5.958   3.828   3.841
11035SOL    MW444461   5.912   3.864   3.906
11036SOL     OW44462   7.040   4.359   4.756
11036SOL    HW244463   6.963   4.405   4.722
11036SOL    HW344464   7.097   4.428   4.790
11036SOL    MW444465   7.037   4.374   4.756
11037SOL     OW44466   5.672   3.961   3.769
11037SOL    HW244467   5.639   4.040   3.813
11037SOL    HW344468   5.727   3.994   3.698
11037SOL    MW444469   5.675   3.975   3.766
11038SOL     OW44470   5.706   5.218   3.958
11038SOL    HW244471   5.723   5.302   4.000
11038SOL    HW344472   5.741   5.227   3.870
11038SOL    MW444473   5.711   5.231   3.952
11039SOL     OW44474   6.978   5.307   4.175
11039SOL    HW244475   7.041   5.297   4.104
11039SOL    HW344476   6.895   5.327   4.130
11039SOL    MW444477   6.975   5.308   4.160
11040SOL     OW44478   7.341   4.575   5.862
11040SOL    HW244479   7.382   4.517   5.927
11040SOL    HW344480   7.248   4.567   5.879
11040SOL    MW444481   7.335   4.567   5.872
11041SOL     OW44482   6.135   4.758   6.091
11041SOL    HW244483   6.225   4.733   6.075
11041SOL    HW344484   6.131   4.851   6.068
11041SOL    MW444485   6.147   4.767   6.086
11042SOL     OW44486   7.251   5.461   6.233
11042SOL    HW244487   7.263   5.407   6.311
11042SOL    HW344488   7.288   5.409   6.162
11042SOL    MW444489   7.257   5.446   6.234
11043SOL     OW44490   6.419   4.214   6.104
11043SOL    HW244491   6.394   4.302   6.132
11043SOL    HW344492   6.416   4.217   6.008
11043SOL    MW444493   6.415   4.226   6.096
11044SOL     OW44494   5.861   4.242   6.032
11044SOL    HW244495   5.893   4.330   6.014
11044SOL    HW344496   5.849   4.240   6.127
11044SOL    MW444497   5.864   4.254   6.044
11045SOL     OW44498   6.260   3.997   6.119
11045SOL    HW244499   6.318   4.073   6.121
11045SOL    HW344500   6.195   4.018   6.052
11045SOL    MW444501   6.259   4.009   6.110
11046SOL     OW44502   6.347   4.924   6.294
11046SOL    HW244503   6.427   4.927   6.346
11046SOL    HW344504   6.375   4.891   6.208
11046SOL    MW444505   6.361   4.920   6.289
11047SOL     OW44506   6.124   4.428   6.285
11047SOL    HW244507   6.109   4.348   6.336
11047SOL    HW344508   6.206   4.463   6.319
11047SOL    MW444509   6.132   4.420   6.297
11048SOL     OW44510   5.709   5.514   6.441
11048SOL    HW244511   5.798   5.506   6.476
11048SOL    HW344512   5.673   5.426   6.446
11048SOL    MW444513   5.716   5.501   6.446
11049SOL     OW44514   6.974   4.906   5.810
11049SOL    HW244515   6.892   4.942   5.776
11049SOL    HW344516   7.042   4.949   5.759
11049SOL    MW444517   6.972   4.916   5.798
11050SOL     OW44518   6.535   4.685   6.286
11050SOL    HW244519   6.449   4.672   6.326
11050SOL    HW344520   6.588   4.612   6.318
11050SOL    MW444521   6.531   4.674   6.295
11051SOL     OW44522   6.526   5.047   6.003
11051SOL    HW244523   6.503   5.109   6.071
11051SOL    HW344524   6.483   4.965   6.029
11051SOL    MW444525   6.518   5.043   6.014
11052SOL     OW44526   6.023   4.020   5.971
11052SOL    HW244527   5.997   3.982   5.887
11052SOL    HW344528   5.960   4.090   5.987
11052SOL    MW444529   6.012   4.023   5.962
11053SOL     OW44530   5.858   4.981   6.008
11053SOL    HW244531   5.806   5.049   5.964
11053SOL    HW344532   5.855   4.907   5.948
11053SOL    MW444533   5.850   4.980   5.995
11054SOL     OW44534   6.520   5.444   5.786
11054SOL    HW244535   6.475   5.460   5.869
11054SOL    HW344536   6.451   5.409   5.728
11054SOL    MW444537   6.506   5.441   5.788
11055SOL     OW44538   7.455   4.217   5.761
11055SOL    HW244539   7.364   4.219   5.789
11055SOL    HW344540   7.500   4.279   5.819
11055SOL    MW444541   7.448   4.225   5.771
11056SOL     OW44542   7.200   4.820   6.111
11056SOL    HW244543   7.110   4.820   6.146
11056SOL    HW344544   7.193   4.866   6.028
11056SOL    MW444545   7.187   4.826   6.105
11057SOL     OW44546   5.741   5.335   6.735
11057SOL    HW244547   5.724   5.281   6.812
11057SOL    HW344548   5.729   5.425   6.765
11057SOL    MW444549   5.738   5.339   6.749
11058SOL     OW44550   7.107   4.798   6.503
11058SOL    HW244551   7.110   4.732   6.434
11058SOL    HW344552   7.192   4.841   6.499
11058SOL    MW444553   7.119   4.794   6.494
11059SOL     OW44554   6.727   4.401   6.072
11059SOL    HW244555   6.753   4.425   5.983
11059SOL    HW344556   6.709   4.308   6.068
11059SOL    MW444557   6.729   4.393   6.059
11060SOL     OW44558   7.392   5.021   5.923
11060SOL    HW244559   7.348   5.062   5.998
11060SOL    HW344560   7.449   5.089   5.888
11060SOL    MW444561   7.394   5.035   5.928
11061SOL     OW44562   6.048   5.437   6.241
11061SOL    HW244563   6.080   5.525   6.219
11061SOL    HW344564   6.001   5.409   6.163
11061SOL    MW444565   6.047   5.445   6.228
11062SOL     OW44566   7.432   3.799   6.290
11062SOL    HW244567   7.486   3.750   6.352
11062SOL    HW344568   7.375   3.733   6.251
11062SOL    MW444569   7.432   3.783   6.292
11063SOL     OW44570   5.764   5.497   5.818
11063SOL    HW244571   5.793   5.587   5.810
11063SOL    HW344572   5.714   5.480   5.739
11063SOL    MW444573   5.762   5.505   5.807
11064SOL     OW44574   7.168   5.305   5.789
11064SOL    HW244575   7.216   5.374   5.835
11064SOL    HW344576   7.089   5.349   5.758
11064SOL    MW444577   7.163   5.319   5.792
11065SOL     OW44578   6.566   4.430   5.733
11065SOL    HW244579   6.568   4.377   5.654
11065SOL    HW344580   6.654   4.467   5.739
11065SOL    MW444581   6.578   4.429   5.722
11066SOL     OW44582   7.180   4.356   6.069
11066SOL    HW244583   7.219   4.356   6.156
11066SOL    HW344584   7.121   4.432   6.069
11066SOL    MW444585   7.177   4.367   6.080
11067SOL     OW44586   7.367   4.242   6.235
11067SOL    HW244587   7.456   4.211   6.252
11067SOL    HW344588   7.310   4.182   6.283
11067SOL    MW444589   7.370   4.230   6.244
11068SOL     OW44590   5.793   3.956   6.264
11068SOL    HW244591   5.784   3.896   6.190
11068SOL    HW344592   5.726   3.927   6.327
11068SOL    MW444593   5.783   3.943   6.262
11069SOL     OW44594   6.736   5.049   5.825
11069SOL    HW244595   6.686   5.051   5.907
11069SOL    HW344596   6.670   5.067   5.757
11069SOL    MW444597   6.722   5.051   5.827
11070SOL     OW44598   5.740   4.129   6.627
11070SOL    HW244599   5.712   4.220   6.636
11070SOL    HW344600   5.677   4.090   6.566
11070SOL    MW444601   5.727   4.135   6.621
11071SOL     OW44602   6.199   5.467   5.933
11071SOL    HW244603   6.120   5.425   5.966
11071SOL    HW344604   6.265   5.450   6.000
11071SOL    MW444605   6.198   5.459   5.946
11072SOL     OW44606   6.335   4.882   5.640
11072SOL    HW244607   6.257   4.828   5.627
11072SOL    HW344608   6.306   4.955   5.693
11072SOL    MW444609   6.321   4.884   5.645
11073SOL     OW44610   6.916   5.398   5.708
11073SOL    HW244611   6.842   5.361   5.758
11073SOL    HW344612   6.924   5.488   5.741
11073SOL    MW444613   6.907   5.405   5.720
11074SOL     OW44614   7.140   5.072   5.650
11074SOL    HW244615   7.087   5.121   5.586
11074SOL    HW344616   7.171   5.138   5.711
11074SOL    MW444617   7.138   5.086   5.648
11075SOL     OW44618   6.365   3.961   5.705
11075SOL    HW244619   6.313   3.881   5.693
11075SOL    HW344620   6.452   3.938   5.673
11075SOL    MW444621   6.368   3.947   5.699
11076SOL     OW44622   5.871   4.832   6.756
11076SOL    HW244623   5.924   4.907   6.781
11076SOL    HW344624   5.790   4.870   6.722
11076SOL    MW444625   5.867   4.847   6.756
11077SOL     OW44626   5.726   4.601   6.162
11077SOL    HW244627   5.817   4.616   6.189
11077SOL    HW344628   5.729   4.522   6.108
11077SOL    MW444629   5.738   4.593   6.160
11078SOL     OW44630   5.734   5.213   6.201
11078SOL    HW244631   5.706   5.252   6.283
11078SOL    HW344632   5.754   5.122   6.223
11078SOL    MW444633   5.732   5.205   6.214
11079SOL     OW44634   6.567   5.256   6.236
11079SOL    HW244635   6.650   5.210   6.220
11079SOL    HW344636   6.557   5.255   6.332
11079SOL    MW444637   6.577   5.249   6.246
11080SOL     OW44638   7.399   4.401   6.550
11080SOL    HW244639   7.488   4.431   6.532
11080SOL    HW344640   7.379   4.341   6.479
11080SOL    MW444641   7.408   4.398   6.539
11081SOL     OW44642   6.300   5.313   5.641
11081SOL    HW244643   6.240   5.382   5.611
11081SOL    HW344644   6.245   5.255   5.694
11081SOL    MW444645   6.284   5.315   5.643
11082SOL     OW44646   6.738   3.958   5.864
11082SOL    HW244647   6.671   3.934   5.801
11082SOL    HW344648   6.803   4.007   5.813
11082SOL    MW444649   6.738   3.960   5.849
11083SOL     OW44650   6.257   4.675   6.376
11083SOL    HW244651   6.168   4.666   6.409
11083SOL    HW344652   6.261   4.765   6.344
11083SOL    MW444653   6.246   4.686   6.376
11084SOL     OW44654   7.056   4.258   6.371
11084SOL    HW244655   7.001   4.179   6.370
11084SOL    HW344656   7.038   4.299   6.455
11084SOL    MW444657   7.046   4.253   6.380
11085SOL     OW44658   6.675   4.462   6.328
11085SOL    HW244659   6.612   4.394   6.352
11085SOL    HW344660   6.695   4.443   6.236
11085SOL    MW444661   6.669   4.449   6.320
11086SOL     OW44662   5.931   5.357   6.030
11086SOL    HW244663   5.892   5.404   5.956
11086SOL    HW344664   5.865   5.292   6.055
11086SOL    MW444665   5.918   5.355   6.024
11087SOL     OW44666   6.423   4.766   6.054
11087SOL    HW244667   6.425   4.740   5.961
11087SOL    HW344668   6.481   4.703   6.097
11087SOL    MW444669   6.431   4.755   6.048
11088SOL     OW44670   6.980   5.534   6.256
11088SOL    HW244671   6.923   5.487   6.195
11088SOL    HW344672   7.066   5.495   6.243
11088SOL    MW444673   6.983   5.525   6.246
11089SOL     OW44674   6.933   4.010   6.387
11089SOL    HW244675   6.961   3.942   6.448
11089SOL    HW344676   6.847   3.981   6.357
11089SOL    MW444677   6.926   3.997   6.391
11090SOL     OW44678   5.738   4.944   6.321
11090SOL    HW244679   5.802   4.976   6.384
11090SOL    HW344680   5.787   4.880   6.269
11090SOL    MW444681   5.753   4.940   6.322
11091SOL     OW44682   6.913   4.114   5.722
11091SOL    HW244683   6.886   4.180   5.658
11091SOL    HW344684   6.983   4.157   5.772
11091SOL    MW444685   6.918   4.127   5.719
11092SOL     OW44686   6.581   3.819   5.659
11092SOL    HW244687   6.637   3.811   5.581
11092SOL    HW344688   6.558   3.729   5.681
11092SOL    MW444689   6.586   3.806   5.652
11093SOL     OW44690   7.086   4.670   5.864
11093SOL    HW244691   7.053   4.759   5.854
11093SOL    HW344692   7.051   4.641   5.949
11093SOL    MW444693   7.076   4.679   5.875
11094SOL     OW44694   6.080   4.708   5.656
11094SOL    HW244695   6.003   4.721   5.712
11094SOL    HW344696   6.044   4.672   5.575
11094SOL    MW444697   6.066   4.704   5.653
11095SOL     OW44698   6.733   4.681   5.899
11095SOL    HW244699   6.643   4.702   5.874
11095SOL    HW344700   6.760   4.754   5.955
11095SOL    MW444701   6.725   4.693   5.902
11096SOL     OW44702   6.362   3.797   6.306
11096SOL    HW244703   6.291   3.858   6.288
11096SOL    HW344704   6.413   3.794   6.225
11096SOL    MW444705   6.358   3.803   6.293
11097SOL     OW44706   6.120   5.037   6.055
11097SOL    HW244707   6.113   5.069   6.145
11097SOL    HW344708   6.030   5.021   6.027
11097SOL    MW444709   6.108   5.039   6.062
11098SOL     OW44710   6.829   5.395   6.454
11098SOL    HW244711   6.876   5.468   6.413
11098SOL    HW344712   6.750   5.434   6.490
11098SOL    MW444713   6.824   5.410   6.453
11099SOL     OW44714   6.123   4.321   5.769
11099SOL    HW244715   6.089   4.377   5.839
11099SOL    HW344716   6.194   4.271   5.809
11099SOL    MW444717   6.129   4.322   5.783
11100SOL     OW44718   7.219   5.072   6.591
11100SOL    HW244719   7.254   5.054   6.504
11100SOL    HW344720   7.124   5.073   6.578
11100SOL    MW444721   7.211   5.069   6.578
11101SOL     OW44722   7.179   4.207   5.833
11101SOL    HW244723   7.171   4.278   5.770
11101SOL    HW344724   7.197   4.251   5.916
11101SOL    MW444725   7.180   4.221   5.835
11102SOL     OW44726   6.039   3.862   6.262
11102SOL    HW244727   6.089   3.905   6.193
11102SOL    HW344728   5.954   3.906   6.262
11102SOL    MW444729   6.036   3.875   6.253
11103SOL     OW44730   6.848   4.469   5.808
11103SOL    HW244731   6.895   4.487   5.727
11103SOL    HW344732   6.814   4.553   5.836
11103SOL    MW444733   6.850   4.483   5.801
11104SOL     OW44734   5.961   4.647   6.302
11104SOL    HW244735   6.019   4.703   6.250
11104SOL    HW344736   6.005   4.562   6.304
11104SOL    MW444737   5.974   4.644   6.295
11105SOL     OW44738   7.101   3.999   6.139
11105SOL    HW244739   7.023   3.949   6.164
11105SOL    HW344740   7.072   4.090   6.139
11105SOL    MW444741   7.087   4.003   6.142
11106SOL     OW44742   6.687   3.961   6.298
11106SOL    HW244743   6.707   4.036   6.242
11106SOL    HW344744   6.667   4.000   6.383
11106SOL    MW444745   6.688   3.977   6.302
11107SOL     OW44746   6.583   5.211   5.630
11107SOL    HW244747   6.610   5.289   5.582
11107SOL    HW344748   6.490   5.226   5.649
11107SOL    MW444749   6.574   5.224   5.626
11108SOL     OW44750   5.668   5.247   6.474
11108SOL    HW244751   5.700   5.251   6.565
11108SOL    HW344752   5.573   5.255   6.482
11108SOL    MW444753   5.660   5.250   6.487
11109SOL     OW44754   5.623   4.373   6.021
11109SOL    HW244755   5.563   4.345   6.091
11109SOL    HW344756   5.697   4.313   6.027
11109SOL    MW444757   5.625   4.362   6.030
11110SOL     OW44758   6.791   5.104   6.181
11110SOL    HW244759   6.814   5.055   6.259
11110SOL    HW344760   6.872   5.146   6.153
11110SOL    MW444761   6.804   5.104   6.188
11111SOL     OW44762   7.475   4.899   6.678
11111SOL    HW244763   7.468   4.839   6.603
11111SOL    HW344764   7.401   4.959   6.667
11111SOL    MW444765   7.465   4.899   6.667
11112SOL     OW44766   6.931   3.771   5.817
11112SOL    HW244767   7.005   3.815   5.860
11112SOL    HW344768   6.855   3.825   5.839
11112SOL    MW444769   6.931   3.783   5.825
11113SOL     OW44770   6.991   4.546   6.095
11113SOL    HW244771   6.906   4.516   6.065
11113SOL    HW344772   6.983   4.553   6.190
11113SOL    MW444773   6.979   4.544   6.104
11114SOL     OW44774   6.364   4.212   5.821
11114SOL    HW244775   6.437   4.261   5.784
11114SOL    HW344776   6.380   4.121   5.795
11114SOL    MW444777   6.376   4.207   5.814
11115SOL     OW44778   5.839   4.721   5.919
11115SOL    HW244779   5.776   4.737   5.848
11115SOL    HW344780   5.786   4.684   5.990
11115SOL    MW444781   5.824   4.718   5.919
11116SOL     OW44782   6.195   5.075   5.778
11116SOL    HW244783   6.210   5.051   5.870
11116SOL    HW344784   6.103   5.053   5.762
11116SOL    MW444785   6.185   5.068   5.788
11117SOL     OW44786   6.734   5.306   5.930
11117SOL    HW244787   6.742   5.224   5.881
11117SOL    HW344788   6.653   5.345   5.897
11117SOL    MW444789   6.724   5.301   5.920
11118SOL     OW44790   6.070   4.187   6.376
11118SOL    HW244791   6.141   4.135   6.339
11118SOL    HW344792   6.056   4.152   6.463
11118SOL    MW444793   6.078   4.176   6.383
11119SOL     OW44794   6.706   4.128   6.100
11119SOL    HW244795   6.728   4.065   6.032
11119SOL    HW344796   6.611   4.120   6.111
11119SOL    MW444797   6.696   4.119   6.092
11120SOL     OW44798   5.791   3.818   6.032
11120SOL    HW244799   5.862   3.839   5.971
11120SOL    HW344800   5.745   3.746   5.990
11120SOL    MW444801   5.795   3.812   6.018
11121SOL     OW44802   7.360   5.192   6.132
11121SOL    HW244803   7.330   5.125   6.193
11121SOL    HW344804   7.454   5.198   6.146
11121SOL    MW444805   7.368   5.184   6.142
11122SOL     OW44806   6.916   4.869   6.062
11122SOL    HW244807   6.888   4.955   6.095
11122SOL    HW344808   6.944   4.885   5.972
11122SOL    MW444809   6.916   4.883   6.054
11123SOL     OW44810   6.578   3.789   6.115
11123SOL    HW244811   6.615   3.848   6.180
11123SOL    HW344812   6.555   3.845   6.041
11123SOL    MW444813   6.579   3.804   6.114
11124SOL     OW44814   7.431   4.671   6.537
11124SOL    HW244815   7.422   4.703   6.448
11124SOL    HW344816   7.384   4.587   6.537
11124SOL    MW444817   7.424   4.664   6.527
11125SOL     OW44818   7.343   4.602   6.238
11125SOL    HW244819   7.437   4.591   6.226
11125SOL    HW344820   7.319   4.674   6.179
11125SOL    MW444821   7.353   4.610   6.229
11126SOL     OW44822   5.999   4.480   6.011
11126SOL    HW244823   5.999   4.575   5.996
11126SOL    HW344824   6.076   4.464   6.065
11126SOL    MW444825   6.009   4.491   6.016
11127SOL     OW44826   5.758   4.211   6.300
11127SOL    HW244827   5.820   4.218   6.373
11127SOL    HW344828   5.758   4.118   6.277
11127SOL    MW444829   5.766   4.200   6.307
11128SOL     OW44830   7.305   5.551   5.832
11128SOL    HW244831   7.372   5.584   5.772
11128SOL    HW344832   7.262   5.630   5.866
11128SOL    MW444833   7.307   5.566   5.828
11129SOL     OW44834   5.627   4.783   5.758
11129SOL    HW244835   5.596   4.848   5.821
11129SOL    HW344836   5.576   4.705   5.777
11129SOL    MW444837   5.617   4.780   5.768
11130SOL     OW44838   7.071   4.534   6.350
11130SOL    HW244839   7.151   4.549   6.299
11130SOL    HW344840   7.064   4.439   6.356
11130SOL    MW444841   7.080   4.523   6.345
11131SOL     OW44842   6.211   5.583   5.700
11131SOL    HW244843   6.116   5.583   5.692
11131SOL    HW344844   6.227   5.529   5.778
11131SOL    MW444845   6.201   5.577   5.709
11132SOL     OW44846   7.056   4.403   5.615
11132SOL    HW244847   6.984   4.379   5.557
11132SOL    HW344848   7.122   4.440   5.557
11132SOL    MW444849   7.055   4.405   5.600
11133SOL     OW44850   6.190   5.135   6.296
11133SOL    HW244851   6.255   5.068   6.317
11133SOL    HW344852   6.242   5.212   6.273
11133SOL    MW444853   6.205   5.137   6.295
11134SOL     OW44854   6.451   4.300   6.426
11134SOL    HW244855   6.391   4.318   6.498
11134SOL    HW344856   6.485   4.212   6.445
11134SOL    MW444857   6.447   4.290   6.439
11135SOL     OW44858   6.676   4.883   6.445
11135SOL    HW244859   6.768   4.864   6.463
11135SOL    HW344860   6.649   4.813   6.385
11135SOL    MW444861   6.684   4.871   6.439
11136SOL     OW44862   6.469   4.703   5.800
11136SOL    HW244863   6.455   4.615   5.765
11136SOL    HW344864   6.420   4.760   5.741
11136SOL    MW444865   6.461   4.698   5.788
11137SOL     OW44866   7.188   3.909   5.902
11137SOL    HW244867   7.181   3.913   5.997
11137SOL    HW344868   7.200   4.000   5.875
11137SOL    MW444869   7.189   3.922   5.910
11138SOL     OW44870   6.477   4.472   6.016
11138SOL    HW244871   6.457   4.458   5.923
11138SOL    HW344872   6.570   4.451   6.023
11138SOL    MW444873   6.487   4.467   6.005
11139SOL     OW44874   6.460   5.430   6.054
11139SOL    HW244875   6.518   5.501   6.081
11139SOL    HW344876   6.483   5.358   6.112
11139SOL    MW444877   6.471   5.430   6.065
11140SOL     OW44878   7.340   4.928   6.363
11140SOL    HW244879   7.319   4.874   6.286
11140SOL    HW344880   7.436   4.926   6.367
11140SOL    MW444881   7.349   4.921   6.352
11141SOL     OW44882   5.916   3.862   5.789
11141SOL    HW244883   5.845   3.917   5.757
11141SOL    HW344884   5.958   3.828   5.710
11141SOL    MW444885   5.912   3.864   5.775
11142SOL     OW44886   5.672   3.961   5.638
11142SOL    HW244887   5.639   4.040   5.682
11142SOL    HW344888   5.727   3.994   5.567
11142SOL    MW444889   5.675   3.975   5.635
11143SOL     OW44890   5.706   5.218   5.827
11143SOL    HW244891   5.723   5.302   5.869
11143SOL    HW344892   5.741   5.227   5.739
11143SOL    MW444893   5.711   5.231   5.821
11144SOL     OW44894   6.978   5.307   6.044
11144SOL    HW244895   7.041   5.297   5.973
11144SOL    HW344896   6.895   5.327   5.999
11144SOL    MW444897   6.975   5.308   6.029
11145SOL     OW44898   7.207   6.376   1.252
11145SOL    HW244899   7.162   6.443   1.303
11145SOL    HW344900   7.295   6.412   1.238
11145SOL    MW444901   7.213   6.389   1.256
11146SOL     OW44902   6.135   6.627   0.486
11146SOL    HW244903   6.225   6.602   0.470
11146SOL    HW344904   6.131   6.720   0.463
11146SOL    MW444905   6.147   6.636   0.481
11147SOL     OW44906   7.251   7.330   0.628
11147SOL    HW244907   7.263   7.276   0.706
11147SOL    HW344908   7.288   7.278   0.557
11147SOL    MW444909   7.257   7.315   0.629
11148SOL     OW44910   6.630   7.215   1.629
11148SOL    HW244911   6.671   7.251   1.550
11148SOL    HW344912   6.665   7.126   1.636
11148SOL    MW444913   6.641   7.208   1.620
11149SOL     OW44914   7.187   6.770   1.233
11149SOL    HW244915   7.108   6.735   1.191
11149SOL    HW344916   7.214   6.842   1.177
11149SOL    MW444917   7.180   6.775   1.220
11150SOL     OW44918   6.419   6.083   0.499
11150SOL    HW244919   6.394   6.171   0.527
11150SOL    HW344920   6.416   6.086   0.403
11150SOL    MW444921   6.415   6.095   0.491
11151SOL     OW44922   5.861   6.111   0.427
11151SOL    HW244923   5.893   6.199   0.409
11151SOL    HW344924   5.849   6.109   0.522
11151SOL    MW444925   5.864   6.123   0.439
11152SOL     OW44926   5.939   6.524   1.328
11152SOL    HW244927   6.002   6.471   1.279
11152SOL    HW344928   5.920   6.598   1.271
11152SOL    MW444929   5.945   6.526   1.315
11153SOL     OW44930   6.260   5.866   0.514
11153SOL    HW244931   6.318   5.942   0.516
11153SOL    HW344932   6.195   5.887   0.447
11153SOL    MW444933   6.259   5.878   0.505
11154SOL     OW44934   6.347   6.793   0.689
11154SOL    HW244935   6.427   6.796   0.741
11154SOL    HW344936   6.375   6.760   0.603
11154SOL    MW444937   6.361   6.789   0.684
11155SOL     OW44938   6.372   7.134   1.592
11155SOL    HW244939   6.456   7.160   1.631
11155SOL    HW344940   6.396   7.078   1.518
11155SOL    MW444941   6.386   7.130   1.587
11156SOL     OW44942   6.124   6.297   0.680
11156SOL    HW244943   6.109   6.217   0.731
11156SOL    HW344944   6.206   6.332   0.714
11156SOL    MW444945   6.132   6.289   0.692
11157SOL     OW44946   6.461   6.983   1.365
11157SOL    HW244947   6.425   7.049   1.305
11157SOL    HW344948   6.389   6.921   1.378
11157SOL    MW444949   6.447   6.983   1.359
11158SOL     OW44950   6.266   6.123   1.057
11158SOL    HW244951   6.172   6.119   1.075
11158SOL    HW344952   6.296   6.032   1.066
11158SOL    MW444953   6.257   6.111   1.060
11159SOL     OW44954   6.012   6.537   0.961
11159SOL    HW244955   5.967   6.544   0.877
11159SOL    HW344956   5.992   6.620   1.005
11159SOL    MW444957   6.004   6.549   0.955
11160SOL     OW44958   5.709   7.383   0.836
11160SOL    HW244959   5.798   7.375   0.871
11160SOL    HW344960   5.673   7.295   0.841
11160SOL    MW444961   5.716   7.370   0.841
11161SOL     OW44962   5.973   6.910   0.871
11161SOL    HW244963   5.949   6.963   0.947
11161SOL    HW344964   6.029   6.968   0.819
11161SOL    MW444965   5.977   6.925   0.874
11162SOL     OW44966   6.535   6.554   0.681
11162SOL    HW244967   6.449   6.541   0.721
11162SOL    HW344968   6.588   6.481   0.713
11162SOL    MW444969   6.531   6.543   0.690
11163SOL     OW44970   5.943   7.206   1.466
11163SOL    HW244971   5.851   7.182   1.451
11163SOL    HW344972   5.987   7.123   1.483
11163SOL    MW444973   5.937   7.191   1.465
11164SOL     OW44974   6.526   6.916   0.398
11164SOL    HW244975   6.503   6.978   0.466
11164SOL    HW344976   6.483   6.834   0.424
11164SOL    MW444977   6.518   6.912   0.409
11165SOL     OW44978   7.399   5.917   0.854
11165SOL    HW244979   7.336   5.897   0.923
11165SOL    HW344980   7.389   5.846   0.791
11165SOL    MW444981   7.389   5.904   0.855
11166SOL     OW44982   5.858   6.850   0.403
11166SOL    HW244983   5.806   6.918   0.359
11166SOL    HW344984   5.855   6.776   0.343
11166SOL    MW444985   5.850   6.849   0.390
11167SOL     OW44986   6.520   7.313   0.181
11167SOL    HW244987   6.475   7.329   0.264
11167SOL    HW344988   6.451   7.278   0.123
11167SOL    MW444989   6.506   7.310   0.183
11168SOL     OW44990   7.200   6.689   0.506
11168SOL    HW244991   7.110   6.689   0.541
11168SOL    HW344992   7.193   6.735   0.423
11168SOL    MW444993   7.187   6.695   0.500
11169SOL     OW44994   7.000   6.324   1.578
11169SOL    HW244995   7.069   6.262   1.555
11169SOL    HW344996   6.925   6.298   1.525
11169SOL    MW444997   7.000   6.311   1.569
11170SOL     OW44998   5.741   7.204   1.130
11170SOL    HW244999   5.724   7.150   1.207
11170SOL    HW345000   5.729   7.294   1.160
11170SOL    MW445001   5.738   7.208   1.144
11171SOL     OW45002   6.736   6.711   1.570
11171SOL    HW245003   6.721   6.804   1.555
11171SOL    HW345004   6.831   6.701   1.570
11171SOL    MW445005   6.745   6.721   1.567
11172SOL     OW45006   6.532   6.135   1.771
11172SOL    HW245007   6.622   6.136   1.738
11172SOL    HW345008   6.491   6.060   1.729
11172SOL    MW445009   6.538   6.125   1.762
11173SOL     OW45010   7.107   6.667   0.898
11173SOL    HW245011   7.110   6.601   0.829
11173SOL    HW345012   7.192   6.710   0.894
11173SOL    MW445013   7.119   6.663   0.889
11174SOL     OW45014   6.727   6.270   0.467
11174SOL    HW245015   6.753   6.294   0.378
11174SOL    HW345016   6.709   6.177   0.463
11174SOL    MW445017   6.729   6.262   0.454
11175SOL     OW45018   7.392   6.890   0.318
11175SOL    HW245019   7.348   6.931   0.393
11175SOL    HW345020   7.449   6.958   0.283
11175SOL    MW445021   7.394   6.904   0.323
11176SOL     OW45022   6.312   5.939   1.721
11176SOL    HW245023   6.322   5.865   1.661
11176SOL    HW345024   6.348   5.908   1.804
11176SOL    MW445025   6.318   5.925   1.723
11177SOL     OW45026   6.048   7.306   0.636
11177SOL    HW245027   6.080   7.394   0.614
11177SOL    HW345028   6.001   7.278   0.558
11177SOL    MW445029   6.047   7.314   0.623
11178SOL     OW45030   7.432   5.668   0.685
11178SOL    HW245031   7.486   5.619   0.747
11178SOL    HW345032   7.375   5.602   0.646
11178SOL    MW445033   7.432   5.652   0.687
11179SOL     OW45034   6.551   5.621   1.098
11179SOL    HW245035   6.510   5.699   1.060
11179SOL    HW345036   6.645   5.639   1.093
11179SOL    MW445037   6.557   5.633   1.093
11180SOL     OW45038   7.180   6.225   0.464
11180SOL    HW245039   7.219   6.225   0.551
11180SOL    HW345040   7.121   6.301   0.464
11180SOL    MW445041   7.177   6.236   0.475
11181SOL     OW45042   6.497   6.592   1.593
11181SOL    HW245043   6.474   6.572   1.683
11181SOL    HW345044   6.582   6.636   1.598
11181SOL    MW445045   6.504   6.595   1.605
11182SOL     OW45046   6.577   5.729   1.353
11182SOL    HW245047   6.583   5.691   1.266
11182SOL    HW345048   6.566   5.823   1.338
11182SOL    MW445049   6.578   5.737   1.341
11183SOL     OW45050   6.666   6.218   1.187
11183SOL    HW245051   6.741   6.247   1.134
11183SOL    HW345052   6.598   6.283   1.171
11183SOL    MW445053   6.667   6.230   1.177
11184SOL     OW45054   7.216   6.186   1.464
11184SOL    HW245055   7.197   6.095   1.443
11184SOL    HW345056   7.194   6.235   1.385
11184SOL    MW445057   7.211   6.179   1.451
11185SOL     OW45058   7.358   7.280   1.368
11185SOL    HW245059   7.286   7.242   1.419
11185SOL    HW345060   7.375   7.365   1.409
11185SOL    MW445061   7.352   7.285   1.380
11186SOL     OW45062   6.663   5.924   1.570
11186SOL    HW245063   6.629   5.963   1.489
11186SOL    HW345064   6.641   5.832   1.563
11186SOL    MW445065   6.656   5.917   1.560
11187SOL     OW45066   7.072   6.738   1.646
11187SOL    HW245067   7.154   6.779   1.676
11187SOL    HW345068   7.035   6.700   1.726
11187SOL    MW445069   7.078   6.739   1.661
11188SOL     OW45070   7.367   6.111   0.630
11188SOL    HW245071   7.456   6.080   0.647
11188SOL    HW345072   7.310   6.051   0.678
11188SOL    MW445073   7.370   6.099   0.639
11189SOL     OW45074   5.793   5.825   0.659
11189SOL    HW245075   5.784   5.765   0.585
11189SOL    HW345076   5.726   5.796   0.722
11189SOL    MW445077   5.783   5.812   0.657
11190SOL     OW45078   5.740   5.998   1.022
11190SOL    HW245079   5.712   6.089   1.031
11190SOL    HW345080   5.677   5.959   0.961
11190SOL    MW445081   5.727   6.004   1.016
11191SOL     OW45082   7.327   6.856   1.725
11191SOL    HW245083   7.377   6.782   1.757
11191SOL    HW345084   7.273   6.883   1.800
11191SOL    MW445085   7.327   6.850   1.738
11192SOL     OW45086   7.461   6.491   1.227
11192SOL    HW245087   7.477   6.529   1.140
11192SOL    HW345088   7.495   6.557   1.288
11192SOL    MW445089   7.468   6.504   1.223
11193SOL     OW45090   7.253   7.200   0.896
11193SOL    HW245091   7.282   7.267   0.957
11193SOL    HW345092   7.234   7.124   0.951
11193SOL    MW445093   7.255   7.200   0.911
11194SOL     OW45094   5.724   6.273   1.192
11194SOL    HW245095   5.786   6.303   1.258
11194SOL    HW345096   5.658   6.342   1.186
11194SOL    MW445097   5.723   6.286   1.199
11195SOL     OW45098   5.819   7.382   1.644
11195SOL    HW245099   5.793   7.450   1.582
11195SOL    HW345100   5.867   7.319   1.592
11195SOL    MW445101   5.821   7.382   1.630
11196SOL     OW45102   5.871   6.701   1.151
11196SOL    HW245103   5.924   6.776   1.176
11196SOL    HW345104   5.790   6.739   1.117
11196SOL    MW445105   5.867   6.716   1.151
11197SOL     OW45106   6.411   6.605   1.139
11197SOL    HW245107   6.439   6.514   1.151
11197SOL    HW345108   6.340   6.599   1.075
11197SOL    MW445109   6.404   6.593   1.134
11198SOL     OW45110   5.726   6.470   0.557
11198SOL    HW245111   5.817   6.485   0.584
11198SOL    HW345112   5.729   6.391   0.503
11198SOL    MW445113   5.738   6.462   0.555
11199SOL     OW45114   5.962   6.178   1.811
11199SOL    HW245115   5.909   6.258   1.818
11199SOL    HW345116   6.032   6.190   1.876
11199SOL    MW445117   5.964   6.191   1.819
11200SOL     OW45118   6.348   5.728   1.518
11200SOL    HW245119   6.325   5.636   1.520
11200SOL    HW345120   6.434   5.730   1.475
11200SOL    MW445121   6.355   5.718   1.514
11201SOL     OW45122   6.032   6.252   1.557
11201SOL    HW245123   6.112   6.302   1.543
11201SOL    HW345124   6.023   6.246   1.652
11201SOL    MW445125   6.041   6.258   1.567
11202SOL     OW45126   6.353   7.402   0.931
11202SOL    HW245127   6.442   7.417   0.961
11202SOL    HW345128   6.348   7.449   0.847
11202SOL    MW445129   6.363   7.410   0.924
11203SOL     OW45130   7.009   5.777   1.828
11203SOL    HW245131   7.065   5.704   1.854
11203SOL    HW345132   6.979   5.815   1.910
11203SOL    MW445133   7.013   5.772   1.841
11204SOL     OW45134   5.734   7.082   0.596
11204SOL    HW245135   5.706   7.121   0.678
11204SOL    HW345136   5.754   6.991   0.618
11204SOL    MW445137   5.732   7.074   0.609
11205SOL     OW45138   6.567   7.125   0.631
11205SOL    HW245139   6.650   7.079   0.615
11205SOL    HW345140   6.557   7.124   0.727
11205SOL    MW445141   6.577   7.118   0.641
11206SOL     OW45142   7.399   6.270   0.945
11206SOL    HW245143   7.488   6.300   0.927
11206SOL    HW345144   7.379   6.210   0.874
11206SOL    MW445145   7.408   6.267   0.934
11207SOL     OW45146   7.250   6.449   1.825
11207SOL    HW245147   7.305   6.373   1.806
11207SOL    HW345148   7.252   6.457   1.920
11207SOL    MW445149   7.258   6.440   1.833
11208SOL     OW45150   6.300   7.182   0.036
11208SOL    HW245151   6.240   7.251   0.006
11208SOL    HW345152   6.245   7.124   0.089
11208SOL    MW445153   6.284   7.184   0.038
11209SOL     OW45154   6.545   6.011   1.344
11209SOL    HW245155   6.464   6.052   1.372
11209SOL    HW345156   6.592   6.079   1.296
11209SOL    MW445157   6.540   6.026   1.342
11210SOL     OW45158   6.805   6.349   0.967
11210SOL    HW245159   6.818   6.443   0.977
11210SOL    HW345160   6.766   6.339   0.881
11210SOL    MW445161   6.801   6.360   0.957
11211SOL     OW45162   6.257   6.544   0.771
11211SOL    HW245163   6.168   6.535   0.804
11211SOL    HW345164   6.261   6.634   0.739
11211SOL    MW445165   6.246   6.555   0.771
11212SOL     OW45166   7.056   6.127   0.766
11212SOL    HW245167   7.001   6.048   0.765
11212SOL    HW345168   7.038   6.168   0.850
11212SOL    MW445169   7.046   6.122   0.775
11213SOL     OW45170   6.027   5.814   1.583
11213SOL    HW245171   5.948   5.832   1.635
11213SOL    HW345172   6.022   5.876   1.510
11213SOL    MW445173   6.017   5.824   1.580
11214SOL     OW45174   6.675   6.331   0.723
11214SOL    HW245175   6.612   6.263   0.747
11214SOL    HW345176   6.695   6.312   0.631
11214SOL    MW445177   6.669   6.318   0.715
11215SOL     OW45178   5.931   7.226   0.425
11215SOL    HW245179   5.892   7.273   0.351
11215SOL    HW345180   5.865   7.161   0.450
11215SOL    MW445181   5.918   7.224   0.419
11216SOL     OW45182   6.423   6.635   0.449
11216SOL    HW245183   6.425   6.609   0.356
11216SOL    HW345184   6.481   6.572   0.492
11216SOL    MW445185   6.431   6.624   0.443
11217SOL     OW45186   6.976   7.195   1.221
11217SOL    HW245187   6.901   7.241   1.259
11217SOL    HW345188   6.958   7.102   1.238
11217SOL    MW445189   6.965   7.189   1.229
11218SOL     OW45190   6.980   7.403   0.651
11218SOL    HW245191   6.923   7.356   0.590
11218SOL    HW345192   7.066   7.364   0.638
11218SOL    MW445193   6.983   7.394   0.641
11219SOL     OW45194   6.933   5.879   0.782
11219SOL    HW245195   6.961   5.811   0.843
11219SOL    HW345196   6.847   5.850   0.752
11219SOL    MW445197   6.926   5.866   0.786
11220SOL     OW45198   5.738   6.813   0.716
11220SOL    HW245199   5.802   6.845   0.779
11220SOL    HW345200   5.787   6.749   0.664
11220SOL    MW445201   5.753   6.809   0.717
11221SOL     OW45202   6.238   6.889   1.698
11221SOL    HW245203   6.286   6.972   1.685
11221SOL    HW345204   6.295   6.837   1.754
11221SOL    MW445205   6.252   6.893   1.704
11222SOL     OW45206   5.814   7.131   1.838
11222SOL    HW245207   5.870   7.055   1.853
11222SOL    HW345208   5.763   7.109   1.760
11222SOL    MW445209   5.814   7.118   1.829
11223SOL     OW45210   6.699   6.968   1.447
11223SOL    HW245211   6.610   6.974   1.415
11223SOL    HW345212   6.743   7.047   1.415
11223SOL    MW445213   6.694   6.978   1.439
11224SOL     OW45214   5.992   5.636   1.789
11224SOL    HW245215   5.920   5.601   1.737
11224SOL    HW345216   6.050   5.677   1.724
11224SOL    MW445217   5.990   5.637   1.774
11225SOL     OW45218   6.016   7.126   1.088
11225SOL    HW245219   6.061   7.188   1.145
11225SOL    HW345220   5.923   7.145   1.101
11225SOL    MW445221   6.009   7.136   1.095
11226SOL     OW45222   7.456   6.655   1.442
11226SOL    HW245223   7.371   6.668   1.401
11226SOL    HW345224   7.436   6.619   1.529
11226SOL    MW445225   7.443   6.651   1.447
11227SOL     OW45226   6.438   7.194   1.196
11227SOL    HW245227   6.462   7.183   1.105
11227SOL    HW345228   6.361   7.251   1.194
11227SOL    MW445229   6.430   7.199   1.185
11228SOL     OW45230   6.233   6.899   0.986
11228SOL    HW245231   6.226   6.878   1.080
11228SOL    HW345232   6.151   6.867   0.949
11228SOL    MW445233   6.221   6.893   0.993
11229SOL     OW45234   7.097   5.909   1.388
11229SOL    HW245235   7.044   5.911   1.468
11229SOL    HW345236   7.082   5.822   1.351
11229SOL    MW445237   7.089   5.899   1.393
11230SOL     OW45238   7.433   5.833   1.261
11230SOL    HW245239   7.414   5.900   1.196
11230SOL    HW345240   7.490   5.771   1.216
11230SOL    MW445241   7.437   5.834   1.247
11231SOL     OW45242   5.679   6.991   1.649
11231SOL    HW245243   5.723   6.924   1.595
11231SOL    HW345244   5.594   6.953   1.669
11231SOL    MW445245   5.674   6.977   1.645
11232SOL     OW45246   6.362   5.666   0.701
11232SOL    HW245247   6.291   5.727   0.683
11232SOL    HW345248   6.413   5.663   0.620
11232SOL    MW445249   6.358   5.672   0.688
11233SOL     OW45250   6.120   6.906   0.450
11233SOL    HW245251   6.113   6.938   0.540
11233SOL    HW345252   6.030   6.890   0.422
11233SOL    MW445253   6.108   6.908   0.457
11234SOL     OW45254   6.715   7.299   1.359
11234SOL    HW245255   6.635   7.284   1.309
11234SOL    HW345256   6.722   7.394   1.366
11234SOL    MW445257   6.706   7.310   1.353
11235SOL     OW45258   6.829   7.264   0.849
11235SOL    HW245259   6.876   7.337   0.808
11235SOL    HW345260   6.750   7.303   0.885
11235SOL    MW445261   6.824   7.279   0.848
11236SOL     OW45262   7.237   7.359   1.124
11236SOL    HW245263   7.280   7.329   1.204
11236SOL    HW345264   7.156   7.307   1.121
11236SOL    MW445265   7.232   7.348   1.134
11237SOL     OW45266   6.322   6.323   1.831
11237SOL    HW245267   6.392   6.265   1.803
11237SOL    HW345268   6.265   6.268   1.886
11237SOL    MW445269   6.324   6.310   1.835
11238SOL     OW45270   7.109   6.535   1.464
11238SOL    HW245271   7.114   6.588   1.544
11238SOL    HW345272   7.071   6.452   1.492
11238SOL    MW445273   7.105   6.530   1.479
11239SOL     OW45274   6.749   5.670   1.710
11239SOL    HW245275   6.744   5.577   1.691
11239SOL    HW345276   6.832   5.681   1.756
11239SOL    MW445277   6.757   5.659   1.714
11240SOL     OW45278   7.219   6.941   0.986
11240SOL    HW245279   7.254   6.923   0.899
11240SOL    HW345280   7.124   6.942   0.973
11240SOL    MW445281   7.211   6.938   0.973
11241SOL     OW45282   6.648   6.589   1.355
11241SOL    HW245283   6.691   6.624   1.433
11241SOL    HW345284   6.631   6.666   1.301
11241SOL    MW445285   6.651   6.604   1.358
11242SOL     OW45286   6.039   5.731   0.657
11242SOL    HW245287   6.089   5.774   0.588
11242SOL    HW345288   5.954   5.775   0.657
11242SOL    MW445289   6.036   5.744   0.648
11243SOL     OW45290   5.798   6.793   1.517
11243SOL    HW245291   5.826   6.746   1.595
11243SOL    HW345292   5.719   6.748   1.488
11243SOL    MW445293   5.791   6.782   1.523
11244SOL     OW45294   6.306   6.120   1.484
11244SOL    HW245295   6.278   6.208   1.508
11244SOL    HW345296   6.275   6.064   1.555
11244SOL    MW445297   6.298   6.123   1.496
11245SOL     OW45298   5.961   6.516   0.697
11245SOL    HW245299   6.019   6.572   0.645
11245SOL    HW345300   6.005   6.431   0.699
11245SOL    MW445301   5.974   6.513   0.690
11246SOL     OW45302   7.101   5.868   0.534
11246SOL    HW245303   7.023   5.818   0.559
11246SOL    HW345304   7.072   5.959   0.534
11246SOL    MW445305   7.087   5.872   0.537
11247SOL     OW45306   6.687   5.830   0.693
11247SOL    HW245307   6.707   5.905   0.637
11247SOL    HW345308   6.667   5.869   0.778
11247SOL    MW445309   6.688   5.846   0.697
11248SOL     OW45310   7.447   6.603   1.712
11248SOL    HW245311   7.360   6.583   1.748
11248SOL    HW345312   7.501   6.529   1.737
11248SOL    MW445313   7.442   6.592   1.720
11249SOL     OW45314   5.668   7.116   0.869
11249SOL    HW245315   5.700   7.120   0.960
11249SOL    HW345316   5.573   7.124   0.877
11249SOL    MW445317   5.660   7.119   0.882
11250SOL     OW45318   5.623   6.242   0.416
11250SOL    HW245319   5.563   6.214   0.486
11250SOL    HW345320   5.697   6.182   0.422
11250SOL    MW445321   5.625   6.231   0.425
11251SOL     OW45322   6.791   6.973   0.576
11251SOL    HW245323   6.814   6.924   0.654
11251SOL    HW345324   6.872   7.015   0.548
11251SOL    MW445325   6.804   6.973   0.583
11252SOL     OW45326   6.049   5.981   1.305
11252SOL    HW245327   6.082   6.062   1.345
11252SOL    HW345328   6.022   6.007   1.217
11252SOL    MW445329   6.048   5.995   1.299
11253SOL     OW45330   6.003   5.948   1.041
11253SOL    HW245331   6.033   5.862   1.012
11253SOL    HW345332   5.908   5.941   1.044
11253SOL    MW445333   5.995   5.937   1.039
11254SOL     OW45334   6.832   6.157   1.732
11254SOL    HW245335   6.884   6.092   1.685
11254SOL    HW345336   6.790   6.208   1.662
11254SOL    MW445337   6.833   6.154   1.715
11255SOL     OW45338   6.931   5.952   1.593
11255SOL    HW245339   6.838   5.936   1.580
11255SOL    HW345340   6.957   5.890   1.661
11255SOL    MW445341   6.921   5.942   1.600
11256SOL     OW45342   6.146   5.726   0.932
11256SOL    HW245343   6.156   5.635   0.958
11256SOL    HW345344   6.102   5.722   0.847
11256SOL    MW445345   6.142   5.714   0.924
11257SOL     OW45346   6.240   7.341   1.478
11257SOL    HW245347   6.157   7.326   1.523
11257SOL    HW345348   6.299   7.274   1.513
11257SOL    MW445349   6.238   7.331   1.488
11258SOL     OW45350   7.297   6.048   1.103
11258SOL    HW245351   7.230   6.081   1.163
11258SOL    HW345352   7.340   6.126   1.069
11258SOL    MW445353   7.295   6.063   1.107
11259SOL     OW45354   7.475   6.768   1.073
11259SOL    HW245355   7.468   6.708   0.998
11259SOL    HW345356   7.401   6.828   1.062
11259SOL    MW445357   7.465   6.768   1.062
11260SOL     OW45358   6.857   6.630   0.991
11260SOL    HW245359   6.871   6.602   1.082
11260SOL    HW345360   6.943   6.661   0.963
11260SOL    MW445361   6.870   6.631   1.000
11261SOL     OW45362   6.940   6.125   1.270
11261SOL    HW245363   6.961   6.126   1.177
11261SOL    HW345364   6.985   6.047   1.303
11261SOL    MW445365   6.947   6.115   1.262
11262SOL     OW45366   7.433   6.256   1.812
11262SOL    HW245367   7.470   6.201   1.881
11262SOL    HW345368   7.458   6.213   1.730
11262SOL    MW445369   7.440   6.244   1.811
11263SOL     OW45370   6.980   6.554   1.863
11263SOL    HW245371   7.046   6.502   1.817
11263SOL    HW345372   7.000   6.541   1.956
11263SOL    MW445373   6.991   6.545   1.870
11264SOL     OW45374   6.991   6.415   0.490
11264SOL    HW245375   6.906   6.385   0.460
11264SOL    HW345376   6.983   6.422   0.585
11264SOL    MW445377   6.979   6.413   0.499
11265SOL     OW45378   6.067   6.878   1.221
11265SOL    HW245379   6.079   6.905   1.312
11265SOL    HW345380   6.048   6.959   1.174
11265SOL    MW445381   6.066   6.893   1.226
11266SOL     OW45382   6.351   5.858   1.044
11266SOL    HW245383   6.324   5.860   1.135
11266SOL    HW345384   6.281   5.810   0.999
11266SOL    MW445385   6.339   5.854   1.051
11267SOL     OW45386   6.205   7.350   1.206
11267SOL    HW245387   6.257   7.427   1.183
11267SOL    HW345388   6.214   7.342   1.301
11267SOL    MW445389   6.214   7.357   1.217
11268SOL     OW45390   7.107   6.935   1.438
11268SOL    HW245391   7.092   6.864   1.501
11268SOL    HW345392   7.153   6.893   1.366
11268SOL    MW445393   7.113   6.919   1.438
11269SOL     OW45394   6.181   6.666   1.555
11269SOL    HW245395   6.218   6.671   1.467
11269SOL    HW345396   6.220   6.739   1.602
11269SOL    MW445397   6.191   6.676   1.550
11270SOL     OW45398   6.361   6.709   1.367
11270SOL    HW245399   6.420   6.655   1.420
11270SOL    HW345400   6.376   6.681   1.277
11270SOL    MW445401   6.371   6.698   1.363
11271SOL     OW45402   7.172   7.198   1.539
11271SOL    HW245403   7.214   7.183   1.624
11271SOL    HW345404   7.163   7.111   1.501
11271SOL    MW445405   7.176   7.186   1.546
11272SOL     OW45406   6.832   5.677   1.130
11272SOL    HW245407   6.887   5.686   1.052
11272SOL    HW345408   6.887   5.711   1.201
11272SOL    MW445409   6.846   5.682   1.129
11273SOL     OW45410   5.839   6.590   0.314
11273SOL    HW245411   5.776   6.606   0.243
11273SOL    HW345412   5.786   6.553   0.385
11273SOL    MW445413   5.824   6.587   0.314
11274SOL     OW45414   6.734   7.175   0.325
11274SOL    HW245415   6.742   7.093   0.276
11274SOL    HW345416   6.653   7.214   0.292
11274SOL    MW445417   6.724   7.170   0.315
11275SOL     OW45418   5.993   7.333   0.894
11275SOL    HW245419   5.997   7.244   0.929
11275SOL    HW345420   6.019   7.324   0.803
11275SOL    MW445421   5.996   7.321   0.886
11276SOL     OW45422   6.610   6.811   1.137
11276SOL    HW245423   6.542   6.745   1.153
11276SOL    HW345424   6.628   6.805   1.044
11276SOL    MW445425   6.603   6.802   1.128
11277SOL     OW45426   5.699   7.086   1.388
11277SOL    HW245427   5.689   7.044   1.474
11277SOL    HW345428   5.620   7.139   1.378
11277SOL    MW445429   5.688   7.087   1.399
11278SOL     OW45430   6.603   5.950   0.958
11278SOL    HW245431   6.533   5.902   1.003
11278SOL    HW345432   6.635   6.013   1.022
11278SOL    MW445433   6.598   5.952   0.972
11279SOL     OW45434   6.254   6.386   1.578
11279SOL    HW245435   6.247   6.481   1.566
11279SOL    HW345436   6.263   6.375   1.673
11279SOL    MW445437   6.255   6.398   1.588
11280SOL     OW45438   5.975   6.901   1.836
11280SOL    HW245439   6.047   6.903   1.773
11280SOL    HW345440   5.945   6.810   1.835
11280SOL    MW445441   5.980   6.890   1.828
11281SOL     OW45442   7.059   5.664   1.303
11281SOL    HW245443   7.130   5.610   1.267
11281SOL    HW345444   7.058   5.643   1.396
11281SOL    MW445445   7.068   5.655   1.311
11282SOL     OW45446   7.259   7.194   1.787
11282SOL    HW245447   7.232   7.191   1.878
11282SOL    HW345448   7.355   7.198   1.790
11282SOL    MW445449   7.269   7.194   1.799
11283SOL     OW45450   6.070   6.056   0.771
11283SOL    HW245451   6.141   6.004   0.734
11283SOL    HW345452   6.056   6.021   0.858
11283SOL    MW445453   6.078   6.045   0.778
11284SOL     OW45454   6.386   7.149   0.847
11284SOL    HW245455   6.314   7.086   0.860
11284SOL    HW345456   6.347   7.234   0.865
11284SOL    MW445457   6.370   7.152   0.850
11285SOL     OW45458   6.706   5.997   0.495
11285SOL    HW245459   6.728   5.934   0.427
11285SOL    HW345460   6.611   5.989   0.506
11285SOL    MW445461   6.696   5.988   0.487
11286SOL     OW45462   5.791   5.687   0.427
11286SOL    HW245463   5.862   5.708   0.366
11286SOL    HW345464   5.745   5.615   0.385
11286SOL    MW445465   5.795   5.681   0.413
11287SOL     OW45466   5.622   6.154   1.570
11287SOL    HW245467   5.686   6.220   1.545
11287SOL    HW345468   5.541   6.181   1.527
11287SOL    MW445469   5.620   6.166   1.562
11288SOL     OW45470   7.360   7.061   0.527
11288SOL    HW245471   7.330   6.994   0.588
11288SOL    HW345472   7.454   7.067   0.541
11288SOL    MW445473   7.368   7.053   0.537
11289SOL     OW45474   6.916   6.738   0.457
11289SOL    HW245475   6.888   6.824   0.490
11289SOL    HW345476   6.944   6.754   0.367
11289SOL    MW445477   6.916   6.752   0.449
11290SOL     OW45478   6.578   5.658   0.510
11290SOL    HW245479   6.615   5.717   0.575
11290SOL    HW345480   6.555   5.714   0.436
11290SOL    MW445481   6.579   5.673   0.509
11291SOL     OW45482   7.431   6.540   0.932
11291SOL    HW245483   7.422   6.572   0.843
11291SOL    HW345484   7.384   6.456   0.932
11291SOL    MW445485   7.424   6.533   0.922
11292SOL     OW45486   5.807   6.380   1.511
11292SOL    HW245487   5.828   6.449   1.449
11292SOL    HW345488   5.887   6.327   1.516
11292SOL    MW445489   5.820   6.381   1.505
11293SOL     OW45490   7.343   6.471   0.633
11293SOL    HW245491   7.437   6.460   0.621
11293SOL    HW345492   7.319   6.543   0.574
11293SOL    MW445493   7.353   6.479   0.624
11294SOL     OW45494   5.792   6.395   1.778
11294SOL    HW245495   5.718   6.339   1.804
11294SOL    HW345496   5.787   6.398   1.683
11294SOL    MW445497   5.781   6.388   1.768
11295SOL     OW45498   5.958   5.682   1.228
11295SOL    HW245499   6.001   5.766   1.248
11295SOL    HW345500   6.031   5.620   1.221
11295SOL    MW445501   5.973   5.685   1.229
11296SOL     OW45502   6.775   6.208   1.470
11296SOL    HW245503   6.811   6.181   1.386
11296SOL    HW345504   6.688   6.242   1.449
11296SOL    MW445505   6.769   6.209   1.457
11297SOL     OW45506   5.758   6.080   0.695
11297SOL    HW245507   5.820   6.087   0.768
11297SOL    HW345508   5.758   5.987   0.672
11297SOL    MW445509   5.766   6.069   0.702
11298SOL     OW45510   6.440   6.341   1.179
11298SOL    HW245511   6.398   6.259   1.155
11298SOL    HW345512   6.441   6.340   1.275
11298SOL    MW445513   6.433   6.330   1.188
11299SOL     OW45514   6.244   5.811   1.284
11299SOL    HW245515   6.175   5.874   1.305
11299SOL    HW345516   6.271   5.775   1.369
11299SOL    MW445517   6.238   5.814   1.297
11300SOL     OW45518   7.039   5.664   0.901
11300SOL    HW245519   7.127   5.673   0.938
11300SOL    HW345520   7.049   5.605   0.827
11300SOL    MW445521   7.053   5.658   0.895
11301SOL     OW45522   7.071   6.403   0.745
11301SOL    HW245523   7.151   6.418   0.694
11301SOL    HW345524   7.064   6.308   0.751
11301SOL    MW445525   7.080   6.392   0.740
11302SOL     OW45526   6.521   6.329   1.442
11302SOL    HW245527   6.590   6.396   1.439
11302SOL    HW345528   6.454   6.367   1.498
11302SOL    MW445529   6.522   6.342   1.449
11303SOL     OW45530   5.939   6.629   1.690
11303SOL    HW245531   5.893   6.545   1.692
11303SOL    HW345532   5.996   6.623   1.614
11303SOL    MW445533   5.941   6.617   1.682
11304SOL     OW45534   6.190   7.004   0.691
11304SOL    HW245535   6.255   6.937   0.712
11304SOL    HW345536   6.242   7.081   0.668
11304SOL    MW445537   6.205   7.006   0.690
11305SOL     OW45538   6.451   6.169   0.821
11305SOL    HW245539   6.391   6.187   0.893
11305SOL    HW345540   6.485   6.081   0.840
11305SOL    MW445541   6.447   6.159   0.834
11306SOL     OW45542   7.392   5.668   1.490
11306SOL    HW245543   7.313   5.714   1.518
11306SOL    HW345544   7.427   5.722   1.419
11306SOL    MW445545   7.386   5.681   1.484
11307SOL     OW45546   6.676   6.752   0.840
11307SOL    HW245547   6.768   6.733   0.858
11307SOL    HW345548   6.649   6.682   0.780
11307SOL    MW445549   6.684   6.740   0.834
11308SOL     OW45550   6.950   6.990   0.936
11308SOL    HW245551   6.923   7.074   0.901
11308SOL    HW345552   6.910   6.985   1.023
11308SOL    MW445553   6.943   6.999   0.942
11309SOL     OW45554   6.869   6.938   1.204
11309SOL    HW245555   6.880   6.905   1.293
11309SOL    HW345556   6.788   6.897   1.173
11309SOL    MW445557   6.859   6.930   1.210
11310SOL     OW45558   5.882   6.296   0.974
11310SOL    HW245559   5.832   6.295   1.055
11310SOL    HW345560   5.902   6.388   0.958
11310SOL    MW445561   5.878   6.308   0.982
11311SOL     OW45562   6.949   7.060   1.736
11311SOL    HW245563   6.949   7.154   1.752
11311SOL    HW345564   6.994   7.050   1.652
11311SOL    MW445565   6.955   7.070   1.727
11312SOL     OW45566   7.188   5.778   0.297
11312SOL    HW245567   7.181   5.782   0.392
11312SOL    HW345568   7.200   5.869   0.270
11312SOL    MW445569   7.189   5.791   0.305
11313SOL     OW45570   5.804   5.964   1.715
11313SOL    HW245571   5.761   6.023   1.652
11313SOL    HW345572   5.872   6.019   1.755
11313SOL    MW445573   5.808   5.979   1.712
11314SOL     OW45574   6.916   6.584   1.260
11314SOL    HW245575   6.979   6.581   1.333
11314SOL    HW345576   6.832   6.602   1.302
11314SOL    MW445577   6.912   6.586   1.275
11315SOL     OW45578   6.460   7.299   0.449
11315SOL    HW245579   6.518   7.370   0.476
11315SOL    HW345580   6.483   7.227   0.507
11315SOL    MW445581   6.471   7.299   0.460
11316SOL     OW45582   7.255   5.761   1.039
11316SOL    HW245583   7.300   5.679   1.058
11316SOL    HW345584   7.275   5.817   1.115
11316SOL    MW445585   7.265   5.757   1.051
11317SOL     OW45586   5.703   5.604   1.138
11317SOL    HW245587   5.694   5.605   1.043
11317SOL    HW345588   5.797   5.616   1.153
11317SOL    MW445589   5.715   5.607   1.129
11318SOL     OW45590   7.340   6.797   0.758
11318SOL    HW245591   7.319   6.743   0.681
11318SOL    HW345592   7.436   6.795   0.762
11318SOL    MW445593   7.349   6.790   0.747
11319SOL     OW45594   6.032   6.942   1.501
11319SOL    HW245595   5.953   6.892   1.524
11319SOL    HW345596   6.102   6.901   1.551
11319SOL    MW445597   6.030   6.930   1.511
11320SOL     OW45598   7.040   6.228   1.020
11320SOL    HW245599   6.963   6.274   0.986
11320SOL    HW345600   7.097   6.297   1.054
11320SOL    MW445601   7.037   6.243   1.020
11321SOL     OW45602   6.978   7.176   0.439
11321SOL    HW245603   7.041   7.166   0.368
11321SOL    HW345604   6.895   7.196   0.394
11321SOL    MW445605   6.975   7.177   0.424
11322SOL     OW45606   7.341   6.444   2.125
11322SOL    HW245607   7.382   6.386   2.190
11322SOL    HW345608   7.248   6.436   2.142
11322SOL    MW445609   7.335   6.436   2.135
11323SOL     OW45610   7.207   6.376   3.120
11323SOL    HW245611   7.162   6.443   3.171
11323SOL    HW345612   7.295   6.412   3.106
11323SOL    MW445613   7.213   6.389   3.124
11324SOL     OW45614   6.135   6.627   2.354
11324SOL    HW245615   6.225   6.602   2.338
11324SOL    HW345616   6.131   6.720   2.331
11324SOL    MW445617   6.147   6.636   2.349
11325SOL     OW45618   7.251   7.330   2.496
11325SOL    HW245619   7.263   7.276   2.574
11325SOL    HW345620   7.288   7.278   2.425
11325SOL    MW445621   7.257   7.315   2.497
11326SOL     OW45622   6.630   7.215   3.497
11326SOL    HW245623   6.671   7.251   3.418
11326SOL    HW345624   6.665   7.126   3.504
11326SOL    MW445625   6.641   7.208   3.488
11327SOL     OW45626   7.187   6.770   3.101
11327SOL    HW245627   7.108   6.735   3.059
11327SOL    HW345628   7.214   6.842   3.045
11327SOL    MW445629   7.180   6.775   3.088
11328SOL     OW45630   6.419   6.083   2.367
11328SOL    HW245631   6.394   6.171   2.395
11328SOL    HW345632   6.416   6.086   2.271
11328SOL    MW445633   6.415   6.095   2.359
11329SOL     OW45634   5.861   6.111   2.295
11329SOL    HW245635   5.893   6.199   2.277
11329SOL    HW345636   5.849   6.109   2.390
11329SOL    MW445637   5.864   6.123   2.307
11330SOL     OW45638   5.939   6.524   3.196
11330SOL    HW245639   6.002   6.471   3.147
11330SOL    HW345640   5.920   6.598   3.139
11330SOL    MW445641   5.945   6.526   3.183
11331SOL     OW45642   6.260   5.866   2.382
11331SOL    HW245643   6.318   5.942   2.384
11331SOL    HW345644   6.195   5.887   2.315
11331SOL    MW445645   6.259   5.878   2.373
11332SOL     OW45646   6.347   6.793   2.557
11332SOL    HW245647   6.427   6.796   2.609
11332SOL    HW345648   6.375   6.760   2.471
11332SOL    MW445649   6.361   6.789   2.552
11333SOL     OW45650   6.372   7.134   3.460
11333SOL    HW245651   6.456   7.160   3.499
11333SOL    HW345652   6.396   7.078   3.386
11333SOL    MW445653   6.386   7.130   3.455
11334SOL     OW45654   6.124   6.297   2.548
11334SOL    HW245655   6.109   6.217   2.599
11334SOL    HW345656   6.206   6.332   2.582
11334SOL    MW445657   6.132   6.289   2.560
11335SOL     OW45658   6.461   6.983   3.233
11335SOL    HW245659   6.425   7.049   3.173
11335SOL    HW345660   6.389   6.921   3.246
11335SOL    MW445661   6.447   6.983   3.227
11336SOL     OW45662   6.266   6.123   2.925
11336SOL    HW245663   6.172   6.119   2.943
11336SOL    HW345664   6.296   6.032   2.934
11336SOL    MW445665   6.257   6.111   2.928
11337SOL     OW45666   6.012   6.537   2.829
11337SOL    HW245667   5.967   6.544   2.745
11337SOL    HW345668   5.992   6.620   2.873
11337SOL    MW445669   6.004   6.549   2.823
11338SOL     OW45670   5.709   7.383   2.704
11338SOL    HW245671   5.798   7.375   2.739
11338SOL    HW345672   5.673   7.295   2.709
11338SOL    MW445673   5.716   7.370   2.709
11339SOL     OW45674   6.974   6.775   2.073
11339SOL    HW245675   6.892   6.811   2.039
11339SOL    HW345676   7.042   6.818   2.022
11339SOL    MW445677   6.972   6.785   2.061
11340SOL     OW45678   5.973   6.910   2.739
11340SOL    HW245679   5.949   6.963   2.815
11340SOL    HW345680   6.029   6.968   2.687
11340SOL    MW445681   5.977   6.925   2.742
11341SOL     OW45682   6.535   6.554   2.549
11341SOL    HW245683   6.449   6.541   2.589
11341SOL    HW345684   6.588   6.481   2.581
11341SOL    MW445685   6.531   6.543   2.558
11342SOL     OW45686   5.943   7.206   3.334
11342SOL    HW245687   5.851   7.182   3.319
11342SOL    HW345688   5.987   7.123   3.351
11342SOL    MW445689   5.937   7.191   3.333
11343SOL     OW45690   6.526   6.916   2.266
11343SOL    HW245691   6.503   6.978   2.334
11343SOL    HW345692   6.483   6.834   2.292
11343SOL    MW445693   6.518   6.912   2.277
11344SOL     OW45694   7.399   5.917   2.722
11344SOL    HW245695   7.336   5.897   2.791
11344SOL    HW345696   7.389   5.846   2.659
11344SOL    MW445697   7.389   5.904   2.723
11345SOL     OW45698   6.023   5.889   2.234
11345SOL    HW245699   5.997   5.851   2.150
11345SOL    HW345700   5.960   5.959   2.250
11345SOL    MW445701   6.012   5.892   2.225
11346SOL     OW45702   5.858   6.850   2.271
11346SOL    HW245703   5.806   6.918   2.227
11346SOL    HW345704   5.855   6.776   2.211
11346SOL    MW445705   5.850   6.849   2.258
11347SOL     OW45706   6.520   7.313   2.049
11347SOL    HW245707   6.475   7.329   2.132
11347SOL    HW345708   6.451   7.278   1.991
11347SOL    MW445709   6.506   7.310   2.051
11348SOL     OW45710   7.455   6.086   2.024
11348SOL    HW245711   7.364   6.088   2.052
11348SOL    HW345712   7.500   6.148   2.082
11348SOL    MW445713   7.448   6.094   2.034
11349SOL     OW45714   7.200   6.689   2.374
11349SOL    HW245715   7.110   6.689   2.409
11349SOL    HW345716   7.193   6.735   2.291
11349SOL    MW445717   7.187   6.695   2.368
11350SOL     OW45718   7.000   6.324   3.446
11350SOL    HW245719   7.069   6.262   3.423
11350SOL    HW345720   6.925   6.298   3.393
11350SOL    MW445721   7.000   6.311   3.437
11351SOL     OW45722   5.741   7.204   2.998
11351SOL    HW245723   5.724   7.150   3.075
11351SOL    HW345724   5.729   7.294   3.028
11351SOL    MW445725   5.738   7.208   3.012
11352SOL     OW45726   6.736   6.711   3.438
11352SOL    HW245727   6.721   6.804   3.423
11352SOL    HW345728   6.831   6.701   3.438
11352SOL    MW445729   6.745   6.721   3.435
11353SOL     OW45730   6.532   6.135   3.639
11353SOL    HW245731   6.622   6.136   3.606
11353SOL    HW345732   6.491   6.060   3.597
11353SOL    MW445733   6.538   6.125   3.630
11354SOL     OW45734   7.107   6.667   2.766
11354SOL    HW245735   7.110   6.601   2.697
11354SOL    HW345736   7.192   6.710   2.762
11354SOL    MW445737   7.119   6.663   2.757
11355SOL     OW45738   6.727   6.270   2.335
11355SOL    HW245739   6.753   6.294   2.246
11355SOL    HW345740   6.709   6.177   2.331
11355SOL    MW445741   6.729   6.262   2.322
11356SOL     OW45742   7.392   6.890   2.186
11356SOL    HW245743   7.348   6.931   2.261
11356SOL    HW345744   7.449   6.958   2.151
11356SOL    MW445745   7.394   6.904   2.191
11357SOL     OW45746   6.312   5.939   3.589
11357SOL    HW245747   6.322   5.865   3.529
11357SOL    HW345748   6.348   5.908   3.672
11357SOL    MW445749   6.318   5.925   3.591
11358SOL     OW45750   6.048   7.306   2.504
11358SOL    HW245751   6.080   7.394   2.482
11358SOL    HW345752   6.001   7.278   2.426
11358SOL    MW445753   6.047   7.314   2.491
11359SOL     OW45754   7.432   5.668   2.553
11359SOL    HW245755   7.486   5.619   2.615
11359SOL    HW345756   7.375   5.602   2.514
11359SOL    MW445757   7.432   5.652   2.555
11360SOL     OW45758   6.551   5.621   2.966
11360SOL    HW245759   6.510   5.699   2.928
11360SOL    HW345760   6.645   5.639   2.961
11360SOL    MW445761   6.557   5.633   2.961
11361SOL     OW45762   7.168   7.174   2.052
11361SOL    HW245763   7.216   7.243   2.098
11361SOL    HW345764   7.089   7.218   2.021
11361SOL    MW445765   7.163   7.188   2.055
11362SOL     OW45766   6.566   6.299   1.996
11362SOL    HW245767   6.568   6.246   1.917
11362SOL    HW345768   6.654   6.336   2.002
11362SOL    MW445769   6.578   6.298   1.985
11363SOL     OW45770   7.180   6.225   2.332
11363SOL    HW245771   7.219   6.225   2.419
11363SOL    HW345772   7.121   6.301   2.332
11363SOL    MW445773   7.177   6.236   2.343
11364SOL     OW45774   6.497   6.592   3.461
11364SOL    HW245775   6.474   6.572   3.551
11364SOL    HW345776   6.582   6.636   3.466
11364SOL    MW445777   6.504   6.595   3.473
11365SOL     OW45778   6.577   5.729   3.221
11365SOL    HW245779   6.583   5.691   3.134
11365SOL    HW345780   6.566   5.823   3.206
11365SOL    MW445781   6.578   5.737   3.209
11366SOL     OW45782   6.666   6.218   3.055
11366SOL    HW245783   6.741   6.247   3.002
11366SOL    HW345784   6.598   6.283   3.039
11366SOL    MW445785   6.667   6.230   3.045
11367SOL     OW45786   7.216   6.186   3.332
11367SOL    HW245787   7.197   6.095   3.311
11367SOL    HW345788   7.194   6.235   3.253
11367SOL    MW445789   7.211   6.179   3.319
11368SOL     OW45790   7.358   7.280   3.236
11368SOL    HW245791   7.286   7.242   3.287
11368SOL    HW345792   7.375   7.365   3.277
11368SOL    MW445793   7.352   7.285   3.248
11369SOL     OW45794   6.663   5.924   3.438
11369SOL    HW245795   6.629   5.963   3.357
11369SOL    HW345796   6.641   5.832   3.431
11369SOL    MW445797   6.656   5.917   3.428
11370SOL     OW45798   7.072   6.738   3.514
11370SOL    HW245799   7.154   6.779   3.544
11370SOL    HW345800   7.035   6.700   3.594
11370SOL    MW445801   7.078   6.739   3.529
11371SOL     OW45802   7.367   6.111   2.498
11371SOL    HW245803   7.456   6.080   2.515
11371SOL    HW345804   7.310   6.051   2.546
11371SOL    MW445805   7.370   6.099   2.507
11372SOL     OW45806   5.793   5.825   2.527
11372SOL    HW245807   5.784   5.765   2.453
11372SOL    HW345808   5.726   5.796   2.590
11372SOL    MW445809   5.783   5.812   2.525
11373SOL     OW45810   6.736   6.918   2.088
11373SOL    HW245811   6.686   6.920   2.170
11373SOL    HW345812   6.670   6.936   2.020
11373SOL    MW445813   6.722   6.920   2.090
11374SOL     OW45814   5.740   5.998   2.890
11374SOL    HW245815   5.712   6.089   2.899
11374SOL    HW345816   5.677   5.959   2.829
11374SOL    MW445817   5.727   6.004   2.884
11375SOL     OW45818   6.199   7.336   2.196
11375SOL    HW245819   6.120   7.294   2.229
11375SOL    HW345820   6.265   7.319   2.263
11375SOL    MW445821   6.198   7.328   2.209
11376SOL     OW45822   7.327   6.856   3.593
11376SOL    HW245823   7.377   6.782   3.625
11376SOL    HW345824   7.273   6.883   3.668
11376SOL    MW445825   7.327   6.850   3.606
11377SOL     OW45826   6.335   6.751   1.903
11377SOL    HW245827   6.257   6.697   1.890
11377SOL    HW345828   6.306   6.824   1.956
11377SOL    MW445829   6.321   6.753   1.908
11378SOL     OW45830   7.461   6.491   3.095
11378SOL    HW245831   7.477   6.529   3.008
11378SOL    HW345832   7.495   6.557   3.156
11378SOL    MW445833   7.468   6.504   3.091
11379SOL     OW45834   7.253   7.200   2.764
11379SOL    HW245835   7.282   7.267   2.825
11379SOL    HW345836   7.234   7.124   2.819
11379SOL    MW445837   7.255   7.200   2.779
11380SOL     OW45838   6.916   7.267   1.971
11380SOL    HW245839   6.842   7.230   2.021
11380SOL    HW345840   6.924   7.357   2.004
11380SOL    MW445841   6.907   7.274   1.983
11381SOL     OW45842   5.724   6.273   3.060
11381SOL    HW245843   5.786   6.303   3.126
11381SOL    HW345844   5.658   6.342   3.054
11381SOL    MW445845   5.723   6.286   3.067
11382SOL     OW45846   7.140   6.941   1.913
11382SOL    HW245847   7.087   6.990   1.849
11382SOL    HW345848   7.171   7.007   1.974
11382SOL    MW445849   7.138   6.955   1.911
11383SOL     OW45850   6.365   5.830   1.968
11383SOL    HW245851   6.313   5.750   1.956
11383SOL    HW345852   6.452   5.807   1.936
11383SOL    MW445853   6.368   5.816   1.962
11384SOL     OW45854   5.819   7.382   3.512
11384SOL    HW245855   5.793   7.450   3.450
11384SOL    HW345856   5.867   7.319   3.460
11384SOL    MW445857   5.821   7.382   3.498
11385SOL     OW45858   5.871   6.701   3.019
11385SOL    HW245859   5.924   6.776   3.044
11385SOL    HW345860   5.790   6.739   2.985
11385SOL    MW445861   5.867   6.716   3.019
11386SOL     OW45862   6.411   6.605   3.007
11386SOL    HW245863   6.439   6.514   3.019
11386SOL    HW345864   6.340   6.599   2.943
11386SOL    MW445865   6.404   6.593   3.002
11387SOL     OW45866   5.726   6.470   2.425
11387SOL    HW245867   5.817   6.485   2.452
11387SOL    HW345868   5.729   6.391   2.371
11387SOL    MW445869   5.738   6.462   2.423
11388SOL     OW45870   5.962   6.178   3.679
11388SOL    HW245871   5.909   6.258   3.686
11388SOL    HW345872   6.032   6.190   3.744
11388SOL    MW445873   5.964   6.191   3.687
11389SOL     OW45874   6.348   5.728   3.386
11389SOL    HW245875   6.325   5.636   3.388
11389SOL    HW345876   6.434   5.730   3.343
11389SOL    MW445877   6.355   5.718   3.382
11390SOL     OW45878   6.032   6.252   3.425
11390SOL    HW245879   6.112   6.302   3.411
11390SOL    HW345880   6.023   6.246   3.520
11390SOL    MW445881   6.041   6.258   3.435
11391SOL     OW45882   6.353   7.402   2.799
11391SOL    HW245883   6.442   7.417   2.829
11391SOL    HW345884   6.348   7.449   2.715
11391SOL    MW445885   6.363   7.410   2.792
11392SOL     OW45886   7.009   5.777   3.696
11392SOL    HW245887   7.065   5.704   3.722
11392SOL    HW345888   6.979   5.815   3.778
11392SOL    MW445889   7.013   5.772   3.709
11393SOL     OW45890   5.734   7.082   2.464
11393SOL    HW245891   5.706   7.121   2.546
11393SOL    HW345892   5.754   6.991   2.486
11393SOL    MW445893   5.732   7.074   2.477
11394SOL     OW45894   6.567   7.125   2.499
11394SOL    HW245895   6.650   7.079   2.483
11394SOL    HW345896   6.557   7.124   2.595
11394SOL    MW445897   6.577   7.118   2.509
11395SOL     OW45898   7.399   6.270   2.813
11395SOL    HW245899   7.488   6.300   2.795
11395SOL    HW345900   7.379   6.210   2.742
11395SOL    MW445901   7.408   6.267   2.802
11396SOL     OW45902   7.250   6.449   3.693
11396SOL    HW245903   7.305   6.373   3.674
11396SOL    HW345904   7.252   6.457   3.788
11396SOL    MW445905   7.258   6.440   3.701
11397SOL     OW45906   6.300   7.182   1.904
11397SOL    HW245907   6.240   7.251   1.874
11397SOL    HW345908   6.245   7.124   1.957
11397SOL    MW445909   6.284   7.184   1.906
11398SOL     OW45910   6.738   5.827   2.127
11398SOL    HW245911   6.671   5.803   2.064
11398SOL    HW345912   6.803   5.876   2.076
11398SOL    MW445913   6.738   5.829   2.112
11399SOL     OW45914   6.545   6.011   3.212
11399SOL    HW245915   6.464   6.052   3.240
11399SOL    HW345916   6.592   6.079   3.164
11399SOL    MW445917   6.540   6.026   3.210
11400SOL     OW45918   6.805   6.349   2.835
11400SOL    HW245919   6.818   6.443   2.845
11400SOL    HW345920   6.766   6.339   2.749
11400SOL    MW445921   6.801   6.360   2.825
11401SOL     OW45922   6.257   6.544   2.639
11401SOL    HW245923   6.168   6.535   2.672
11401SOL    HW345924   6.261   6.634   2.607
11401SOL    MW445925   6.246   6.555   2.639
11402SOL     OW45926   7.056   6.127   2.634
11402SOL    HW245927   7.001   6.048   2.633
11402SOL    HW345928   7.038   6.168   2.718
11402SOL    MW445929   7.046   6.122   2.643
11403SOL     OW45930   6.027   5.814   3.451
11403SOL    HW245931   5.948   5.832   3.503
11403SOL    HW345932   6.022   5.876   3.378
11403SOL    MW445933   6.017   5.824   3.448
11404SOL     OW45934   6.675   6.331   2.591
11404SOL    HW245935   6.612   6.263   2.615
11404SOL    HW345936   6.695   6.312   2.499
11404SOL    MW445937   6.669   6.318   2.583
11405SOL     OW45938   5.931   7.226   2.293
11405SOL    HW245939   5.892   7.273   2.219
11405SOL    HW345940   5.865   7.161   2.318
11405SOL    MW445941   5.918   7.224   2.287
11406SOL     OW45942   6.423   6.635   2.317
11406SOL    HW245943   6.425   6.609   2.224
11406SOL    HW345944   6.481   6.572   2.360
11406SOL    MW445945   6.431   6.624   2.311
11407SOL     OW45946   6.976   7.195   3.089
11407SOL    HW245947   6.901   7.241   3.127
11407SOL    HW345948   6.958   7.102   3.106
11407SOL    MW445949   6.965   7.189   3.097
11408SOL     OW45950   6.980   7.403   2.519
11408SOL    HW245951   6.923   7.356   2.458
11408SOL    HW345952   7.066   7.364   2.506
11408SOL    MW445953   6.983   7.394   2.509
11409SOL     OW45954   6.933   5.879   2.650
11409SOL    HW245955   6.961   5.811   2.711
11409SOL    HW345956   6.847   5.850   2.620
11409SOL    MW445957   6.926   5.866   2.654
11410SOL     OW45958   5.738   6.813   2.584
11410SOL    HW245959   5.802   6.845   2.647
11410SOL    HW345960   5.787   6.749   2.532
11410SOL    MW445961   5.753   6.809   2.585
11411SOL     OW45962   6.238   6.889   3.566
11411SOL    HW245963   6.286   6.972   3.553
11411SOL    HW345964   6.295   6.837   3.622
11411SOL    MW445965   6.252   6.893   3.572
11412SOL     OW45966   5.814   7.131   3.706
11412SOL    HW245967   5.870   7.055   3.721
11412SOL    HW345968   5.763   7.109   3.628
11412SOL    MW445969   5.814   7.118   3.697
11413SOL     OW45970   6.913   5.983   1.985
11413SOL    HW245971   6.886   6.049   1.921
11413SOL    HW345972   6.983   6.026   2.035
11413SOL    MW445973   6.918   5.996   1.982
11414SOL     OW45974   6.581   5.688   1.922
11414SOL    HW245975   6.637   5.680   1.844
11414SOL    HW345976   6.558   5.598   1.944
11414SOL    MW445977   6.586   5.675   1.915
11415SOL     OW45978   7.086   6.539   2.127
11415SOL    HW245979   7.053   6.628   2.117
11415SOL    HW345980   7.051   6.510   2.212
11415SOL    MW445981   7.076   6.548   2.138
11416SOL     OW45982   6.699   6.968   3.315
11416SOL    HW245983   6.610   6.974   3.283
11416SOL    HW345984   6.743   7.047   3.283
11416SOL    MW445985   6.694   6.978   3.307
11417SOL     OW45986   5.992   5.636   3.657
11417SOL    HW245987   5.920   5.601   3.605
11417SOL    HW345988   6.050   5.677   3.592
11417SOL    MW445989   5.990   5.637   3.642
11418SOL     OW45990   6.016   7.126   2.956
11418SOL    HW245991   6.061   7.188   3.013
11418SOL    HW345992   5.923   7.145   2.969
11418SOL    MW445993   6.009   7.136   2.963
11419SOL     OW45994   7.456   6.655   3.310
11419SOL    HW245995   7.371   6.668   3.269
11419SOL    HW345996   7.436   6.619   3.397
11419SOL    MW445997   7.443   6.651   3.315
11420SOL     OW45998   6.438   7.194   3.064
11420SOL    HW245999   6.462   7.183   2.973
11420SOL    HW346000   6.361   7.251   3.062
11420SOL    MW446001   6.430   7.199   3.053
11421SOL     OW46002   6.080   6.577   1.919
11421SOL    HW246003   6.003   6.590   1.975
11421SOL    HW346004   6.044   6.541   1.838
11421SOL    MW446005   6.066   6.573   1.916
11422SOL     OW46006   6.733   6.550   2.162
11422SOL    HW246007   6.643   6.571   2.137
11422SOL    HW346008   6.760   6.623   2.218
11422SOL    MW446009   6.725   6.562   2.165
11423SOL     OW46010   6.233   6.899   2.854
11423SOL    HW246011   6.226   6.878   2.948
11423SOL    HW346012   6.151   6.867   2.817
11423SOL    MW446013   6.221   6.893   2.861
11424SOL     OW46014   7.097   5.909   3.256
11424SOL    HW246015   7.044   5.911   3.336
11424SOL    HW346016   7.082   5.822   3.219
11424SOL    MW446017   7.089   5.899   3.261
11425SOL     OW46018   7.433   5.833   3.129
11425SOL    HW246019   7.414   5.900   3.064
11425SOL    HW346020   7.490   5.771   3.084
11425SOL    MW446021   7.437   5.834   3.115
11426SOL     OW46022   5.679   6.991   3.517
11426SOL    HW246023   5.723   6.924   3.463
11426SOL    HW346024   5.594   6.953   3.537
11426SOL    MW446025   5.674   6.977   3.513
11427SOL     OW46026   6.362   5.666   2.569
11427SOL    HW246027   6.291   5.727   2.551
11427SOL    HW346028   6.413   5.663   2.488
11427SOL    MW446029   6.358   5.672   2.556
11428SOL     OW46030   6.120   6.906   2.318
11428SOL    HW246031   6.113   6.938   2.408
11428SOL    HW346032   6.030   6.890   2.290
11428SOL    MW446033   6.108   6.908   2.325
11429SOL     OW46034   6.715   7.299   3.227
11429SOL    HW246035   6.635   7.284   3.177
11429SOL    HW346036   6.722   7.394   3.234
11429SOL    MW446037   6.706   7.310   3.221
11430SOL     OW46038   6.829   7.264   2.717
11430SOL    HW246039   6.876   7.337   2.676
11430SOL    HW346040   6.750   7.303   2.753
11430SOL    MW446041   6.824   7.279   2.716
11431SOL     OW46042   7.237   7.359   2.992
11431SOL    HW246043   7.280   7.329   3.072
11431SOL    HW346044   7.156   7.307   2.989
11431SOL    MW446045   7.232   7.348   3.002
11432SOL     OW46046   6.322   6.323   3.699
11432SOL    HW246047   6.392   6.265   3.671
11432SOL    HW346048   6.265   6.268   3.754
11432SOL    MW446049   6.324   6.310   3.703
11433SOL     OW46050   7.109   6.535   3.332
11433SOL    HW246051   7.114   6.588   3.412
11433SOL    HW346052   7.071   6.452   3.360
11433SOL    MW446053   7.105   6.530   3.347
11434SOL     OW46054   6.749   5.670   3.578
11434SOL    HW246055   6.744   5.577   3.559
11434SOL    HW346056   6.832   5.681   3.624
11434SOL    MW446057   6.757   5.659   3.582
11435SOL     OW46058   6.123   6.190   2.032
11435SOL    HW246059   6.089   6.246   2.102
11435SOL    HW346060   6.194   6.140   2.072
11435SOL    MW446061   6.129   6.191   2.046
11436SOL     OW46062   7.219   6.941   2.854
11436SOL    HW246063   7.254   6.923   2.767
11436SOL    HW346064   7.124   6.942   2.841
11436SOL    MW446065   7.211   6.938   2.841
11437SOL     OW46066   6.648   6.589   3.223
11437SOL    HW246067   6.691   6.624   3.301
11437SOL    HW346068   6.631   6.666   3.169
11437SOL    MW446069   6.651   6.604   3.226
11438SOL     OW46070   7.179   6.076   2.096
11438SOL    HW246071   7.171   6.147   2.033
11438SOL    HW346072   7.197   6.120   2.179
11438SOL    MW446073   7.180   6.090   2.098
11439SOL     OW46074   6.039   5.731   2.525
11439SOL    HW246075   6.089   5.774   2.456
11439SOL    HW346076   5.954   5.775   2.525
11439SOL    MW446077   6.036   5.744   2.516
11440SOL     OW46078   5.798   6.793   3.385
11440SOL    HW246079   5.826   6.746   3.463
11440SOL    HW346080   5.719   6.748   3.356
11440SOL    MW446081   5.791   6.782   3.391
11441SOL     OW46082   6.306   6.120   3.352
11441SOL    HW246083   6.278   6.208   3.376
11441SOL    HW346084   6.275   6.064   3.423
11441SOL    MW446085   6.298   6.123   3.364
11442SOL     OW46086   6.848   6.338   2.071
11442SOL    HW246087   6.895   6.356   1.990
11442SOL    HW346088   6.814   6.422   2.099
11442SOL    MW446089   6.850   6.352   2.064
11443SOL     OW46090   5.961   6.516   2.565
11443SOL    HW246091   6.019   6.572   2.513
11443SOL    HW346092   6.005   6.431   2.567
11443SOL    MW446093   5.974   6.513   2.558
11444SOL     OW46094   7.101   5.868   2.402
11444SOL    HW246095   7.023   5.818   2.427
11444SOL    HW346096   7.072   5.959   2.402
11444SOL    MW446097   7.087   5.872   2.405
11445SOL     OW46098   6.687   5.830   2.561
11445SOL    HW246099   6.707   5.905   2.505
11445SOL    HW346100   6.667   5.869   2.646
11445SOL    MW446101   6.688   5.846   2.565
11446SOL     OW46102   6.583   7.080   1.893
11446SOL    HW246103   6.610   7.158   1.845
11446SOL    HW346104   6.490   7.095   1.912
11446SOL    MW446105   6.574   7.093   1.889
11447SOL     OW46106   7.447   6.603   3.580
11447SOL    HW246107   7.360   6.583   3.616
11447SOL    HW346108   7.501   6.529   3.605
11447SOL    MW446109   7.442   6.592   3.588
11448SOL     OW46110   5.668   7.116   2.737
11448SOL    HW246111   5.700   7.120   2.828
11448SOL    HW346112   5.573   7.124   2.745
11448SOL    MW446113   5.660   7.119   2.750
11449SOL     OW46114   5.623   6.242   2.284
11449SOL    HW246115   5.563   6.214   2.354
11449SOL    HW346116   5.697   6.182   2.290
11449SOL    MW446117   5.625   6.231   2.293
11450SOL     OW46118   6.791   6.973   2.444
11450SOL    HW246119   6.814   6.924   2.522
11450SOL    HW346120   6.872   7.015   2.416
11450SOL    MW446121   6.804   6.973   2.451
11451SOL     OW46122   6.049   5.981   3.173
11451SOL    HW246123   6.082   6.062   3.213
11451SOL    HW346124   6.022   6.007   3.085
11451SOL    MW446125   6.048   5.995   3.167
11452SOL     OW46126   6.003   5.948   2.909
11452SOL    HW246127   6.033   5.862   2.880
11452SOL    HW346128   5.908   5.941   2.912
11452SOL    MW446129   5.995   5.937   2.907
11453SOL     OW46130   6.832   6.157   3.600
11453SOL    HW246131   6.884   6.092   3.553
11453SOL    HW346132   6.790   6.208   3.530
11453SOL    MW446133   6.833   6.154   3.583
11454SOL     OW46134   6.931   5.952   3.461
11454SOL    HW246135   6.838   5.936   3.448
11454SOL    HW346136   6.957   5.890   3.529
11454SOL    MW446137   6.921   5.942   3.468
11455SOL     OW46138   6.146   5.726   2.800
11455SOL    HW246139   6.156   5.635   2.826
11455SOL    HW346140   6.102   5.722   2.715
11455SOL    MW446141   6.142   5.714   2.792
11456SOL     OW46142   6.240   7.341   3.346
11456SOL    HW246143   6.157   7.326   3.391
11456SOL    HW346144   6.299   7.274   3.381
11456SOL    MW446145   6.238   7.331   3.356
11457SOL     OW46146   7.297   6.048   2.971
11457SOL    HW246147   7.230   6.081   3.031
11457SOL    HW346148   7.340   6.126   2.937
11457SOL    MW446149   7.295   6.063   2.975
11458SOL     OW46150   7.475   6.768   2.941
11458SOL    HW246151   7.468   6.708   2.866
11458SOL    HW346152   7.401   6.828   2.930
11458SOL    MW446153   7.465   6.768   2.930
11459SOL     OW46154   6.857   6.630   2.859
11459SOL    HW246155   6.871   6.602   2.950
11459SOL    HW346156   6.943   6.661   2.831
11459SOL    MW446157   6.870   6.631   2.868
11460SOL     OW46158   6.940   6.125   3.138
11460SOL    HW246159   6.961   6.126   3.045
11460SOL    HW346160   6.985   6.047   3.171
11460SOL    MW446161   6.947   6.115   3.130
11461SOL     OW46162   7.433   6.256   3.680
11461SOL    HW246163   7.470   6.201   3.749
11461SOL    HW346164   7.458   6.213   3.598
11461SOL    MW446165   7.440   6.244   3.679
11462SOL     OW46166   6.980   6.554   3.731
11462SOL    HW246167   7.046   6.502   3.685
11462SOL    HW346168   7.000   6.541   3.824
11462SOL    MW446169   6.991   6.545   3.738
11463SOL     OW46170   6.931   5.640   2.080
11463SOL    HW246171   7.005   5.684   2.123
11463SOL    HW346172   6.855   5.694   2.102
11463SOL    MW446173   6.931   5.652   2.088
11464SOL     OW46174   6.991   6.415   2.358
11464SOL    HW246175   6.906   6.385   2.328
11464SOL    HW346176   6.983   6.422   2.453
11464SOL    MW446177   6.979   6.413   2.367
11465SOL     OW46178   6.067   6.878   3.089
11465SOL    HW246179   6.079   6.905   3.180
11465SOL    HW346180   6.048   6.959   3.042
11465SOL    MW446181   6.066   6.893   3.094
11466SOL     OW46182   6.351   5.858   2.912
11466SOL    HW246183   6.324   5.860   3.003
11466SOL    HW346184   6.281   5.810   2.867
11466SOL    MW446185   6.339   5.854   2.919
11467SOL     OW46186   6.205   7.350   3.074
11467SOL    HW246187   6.257   7.427   3.051
11467SOL    HW346188   6.214   7.342   3.169
11467SOL    MW446189   6.214   7.357   3.085
11468SOL     OW46190   7.107   6.935   3.306
11468SOL    HW246191   7.092   6.864   3.369
11468SOL    HW346192   7.153   6.893   3.234
11468SOL    MW446193   7.113   6.919   3.306
11469SOL     OW46194   6.181   6.666   3.423
11469SOL    HW246195   6.218   6.671   3.335
11469SOL    HW346196   6.220   6.739   3.470
11469SOL    MW446197   6.191   6.676   3.418
11470SOL     OW46198   6.361   6.709   3.235
11470SOL    HW246199   6.420   6.655   3.288
11470SOL    HW346200   6.376   6.681   3.145
11470SOL    MW446201   6.371   6.698   3.231
11471SOL     OW46202   6.364   6.081   2.084
11471SOL    HW246203   6.437   6.130   2.047
11471SOL    HW346204   6.380   5.990   2.058
11471SOL    MW446205   6.376   6.076   2.077
11472SOL     OW46206   7.172   7.198   3.407
11472SOL    HW246207   7.214   7.183   3.492
11472SOL    HW346208   7.163   7.111   3.369
11472SOL    MW446209   7.176   7.186   3.414
11473SOL     OW46210   6.832   5.677   2.998
11473SOL    HW246211   6.887   5.686   2.920
11473SOL    HW346212   6.887   5.711   3.069
11473SOL    MW446213   6.846   5.682   2.997
11474SOL     OW46214   5.839   6.590   2.182
11474SOL    HW246215   5.776   6.606   2.111
11474SOL    HW346216   5.786   6.553   2.253
11474SOL    MW446217   5.824   6.587   2.182
11475SOL     OW46218   6.195   6.944   2.041
11475SOL    HW246219   6.210   6.920   2.133
11475SOL    HW346220   6.103   6.922   2.025
11475SOL    MW446221   6.185   6.937   2.051
11476SOL     OW46222   6.734   7.175   2.193
11476SOL    HW246223   6.742   7.093   2.144
11476SOL    HW346224   6.653   7.214   2.160
11476SOL    MW446225   6.724   7.170   2.183
11477SOL     OW46226   5.993   7.333   2.762
11477SOL    HW246227   5.997   7.244   2.797
11477SOL    HW346228   6.019   7.324   2.671
11477SOL    MW446229   5.996   7.321   2.754
11478SOL     OW46230   6.610   6.811   3.005
11478SOL    HW246231   6.542   6.745   3.021
11478SOL    HW346232   6.628   6.805   2.912
11478SOL    MW446233   6.603   6.802   2.996
11479SOL     OW46234   5.699   7.086   3.256
11479SOL    HW246235   5.689   7.044   3.342
11479SOL    HW346236   5.620   7.139   3.246
11479SOL    MW446237   5.688   7.087   3.267
11480SOL     OW46238   6.603   5.950   2.826
11480SOL    HW246239   6.533   5.902   2.871
11480SOL    HW346240   6.635   6.013   2.890
11480SOL    MW446241   6.598   5.952   2.840
11481SOL     OW46242   6.254   6.386   3.446
11481SOL    HW246243   6.247   6.481   3.434
11481SOL    HW346244   6.263   6.375   3.541
11481SOL    MW446245   6.255   6.398   3.456
11482SOL     OW46246   5.975   6.901   3.704
11482SOL    HW246247   6.047   6.903   3.641
11482SOL    HW346248   5.945   6.810   3.703
11482SOL    MW446249   5.980   6.890   3.696
11483SOL     OW46250   7.059   5.664   3.171
11483SOL    HW246251   7.130   5.610   3.135
11483SOL    HW346252   7.058   5.643   3.264
11483SOL    MW446253   7.068   5.655   3.179
11484SOL     OW46254   7.259   7.194   3.655
11484SOL    HW246255   7.232   7.191   3.746
11484SOL    HW346256   7.355   7.198   3.658
11484SOL    MW446257   7.269   7.194   3.667
11485SOL     OW46258   6.070   6.056   2.639
11485SOL    HW246259   6.141   6.004   2.602
11485SOL    HW346260   6.056   6.021   2.726
11485SOL    MW446261   6.078   6.045   2.646
11486SOL     OW46262   6.386   7.149   2.715
11486SOL    HW246263   6.314   7.086   2.728
11486SOL    HW346264   6.347   7.234   2.733
11486SOL    MW446265   6.370   7.152   2.718
11487SOL     OW46266   6.706   5.997   2.363
11487SOL    HW246267   6.728   5.934   2.295
11487SOL    HW346268   6.611   5.989   2.374
11487SOL    MW446269   6.696   5.988   2.355
11488SOL     OW46270   5.791   5.687   2.295
11488SOL    HW246271   5.862   5.708   2.234
11488SOL    HW346272   5.745   5.615   2.253
11488SOL    MW446273   5.795   5.681   2.281
11489SOL     OW46274   5.622   6.154   3.438
11489SOL    HW246275   5.686   6.220   3.413
11489SOL    HW346276   5.541   6.181   3.395
11489SOL    MW446277   5.620   6.166   3.430
11490SOL     OW46278   7.360   7.061   2.395
11490SOL    HW246279   7.330   6.994   2.456
11490SOL    HW346280   7.454   7.067   2.409
11490SOL    MW446281   7.368   7.053   2.405
11491SOL     OW46282   6.916   6.738   2.325
11491SOL    HW246283   6.888   6.824   2.358
11491SOL    HW346284   6.944   6.754   2.235
11491SOL    MW446285   6.916   6.752   2.317
11492SOL     OW46286   6.578   5.658   2.378
11492SOL    HW246287   6.615   5.717   2.443
11492SOL    HW346288   6.555   5.714   2.304
11492SOL    MW446289   6.579   5.673   2.377
11493SOL     OW46290   7.431   6.540   2.800
11493SOL    HW246291   7.422   6.572   2.711
11493SOL    HW346292   7.384   6.456   2.800
11493SOL    MW446293   7.424   6.533   2.790
11494SOL     OW46294   5.807   6.380   3.379
11494SOL    HW246295   5.828   6.449   3.317
11494SOL    HW346296   5.887   6.327   3.384
11494SOL    MW446297   5.820   6.381   3.373
11495SOL     OW46298   7.343   6.471   2.501
11495SOL    HW246299   7.437   6.460   2.489
11495SOL    HW346300   7.319   6.543   2.442
11495SOL    MW446301   7.353   6.479   2.492
11496SOL     OW46302   5.792   6.395   3.646
11496SOL    HW246303   5.718   6.339   3.672
11496SOL    HW346304   5.787   6.398   3.551
11496SOL    MW446305   5.781   6.388   3.636
11497SOL     OW46306   5.958   5.682   3.096
11497SOL    HW246307   6.001   5.766   3.116
11497SOL    HW346308   6.031   5.620   3.089
11497SOL    MW446309   5.973   5.685   3.097
11498SOL     OW46310   5.999   6.349   2.274
11498SOL    HW246311   5.999   6.444   2.259
11498SOL    HW346312   6.076   6.333   2.328
11498SOL    MW446313   6.009   6.360   2.279
11499SOL     OW46314   6.775   6.208   3.338
11499SOL    HW246315   6.811   6.181   3.254
11499SOL    HW346316   6.688   6.242   3.317
11499SOL    MW446317   6.769   6.209   3.325
11500SOL     OW46318   5.758   6.080   2.563
11500SOL    HW246319   5.820   6.087   2.636
11500SOL    HW346320   5.758   5.987   2.540
11500SOL    MW446321   5.766   6.069   2.570
11501SOL     OW46322   6.440   6.341   3.047
11501SOL    HW246323   6.398   6.259   3.023
11501SOL    HW346324   6.441   6.340   3.143
11501SOL    MW446325   6.433   6.330   3.056
11502SOL     OW46326   6.244   5.811   3.152
11502SOL    HW246327   6.175   5.874   3.173
11502SOL    HW346328   6.271   5.775   3.237
11502SOL    MW446329   6.238   5.814   3.165
11503SOL     OW46330   5.627   6.652   2.021
11503SOL    HW246331   5.596   6.717   2.084
11503SOL    HW346332   5.576   6.574   2.040
11503SOL    MW446333   5.617   6.649   2.031
11504SOL     OW46334   7.039   5.664   2.769
11504SOL    HW246335   7.127   5.673   2.806
11504SOL    HW346336   7.049   5.605   2.695
11504SOL    MW446337   7.053   5.658   2.763
11505SOL     OW46338   7.071   6.403   2.613
11505SOL    HW246339   7.151   6.418   2.562
11505SOL    HW346340   7.064   6.308   2.619
11505SOL    MW446341   7.080   6.392   2.608
11506SOL     OW46342   6.211   7.452   1.963
11506SOL    HW246343   6.116   7.452   1.955
11506SOL    HW346344   6.227   7.398   2.041
11506SOL    MW446345   6.201   7.446   1.972
11507SOL     OW46346   6.521   6.329   3.310
11507SOL    HW246347   6.590   6.396   3.307
11507SOL    HW346348   6.454   6.367   3.366
11507SOL    MW446349   6.522   6.342   3.317
11508SOL     OW46350   5.939   6.629   3.558
11508SOL    HW246351   5.893   6.545   3.560
11508SOL    HW346352   5.996   6.623   3.482
11508SOL    MW446353   5.941   6.617   3.550
11509SOL     OW46354   7.056   6.272   1.879
11509SOL    HW246355   6.984   6.248   1.821
11509SOL    HW346356   7.122   6.309   1.821
11509SOL    MW446357   7.055   6.274   1.864
11510SOL     OW46358   6.190   7.004   2.559
11510SOL    HW246359   6.255   6.937   2.580
11510SOL    HW346360   6.242   7.081   2.536
11510SOL    MW446361   6.205   7.006   2.558
11511SOL     OW46362   6.451   6.169   2.689
11511SOL    HW246363   6.391   6.187   2.761
11511SOL    HW346364   6.485   6.081   2.708
11511SOL    MW446365   6.447   6.159   2.702
11512SOL     OW46366   7.392   5.668   3.358
11512SOL    HW246367   7.313   5.714   3.386
11512SOL    HW346368   7.427   5.722   3.287
11512SOL    MW446369   7.386   5.681   3.352
11513SOL     OW46370   6.676   6.752   2.708
11513SOL    HW246371   6.768   6.733   2.726
11513SOL    HW346372   6.649   6.682   2.648
11513SOL    MW446373   6.684   6.740   2.702
11514SOL     OW46374   6.469   6.572   2.063
11514SOL    HW246375   6.455   6.484   2.028
11514SOL    HW346376   6.420   6.629   2.004
11514SOL    MW446377   6.461   6.567   2.051
11515SOL     OW46378   6.950   6.990   2.804
11515SOL    HW246379   6.923   7.074   2.769
11515SOL    HW346380   6.910   6.985   2.891
11515SOL    MW446381   6.943   6.999   2.810
11516SOL     OW46382   6.869   6.938   3.072
11516SOL    HW246383   6.880   6.905   3.161
11516SOL    HW346384   6.788   6.897   3.041
11516SOL    MW446385   6.859   6.930   3.078
11517SOL     OW46386   5.882   6.296   2.842
11517SOL    HW246387   5.832   6.295   2.923
11517SOL    HW346388   5.902   6.388   2.826
11517SOL    MW446389   5.878   6.308   2.850
11518SOL     OW46390   6.949   7.060   3.604
11518SOL    HW246391   6.949   7.154   3.620
11518SOL    HW346392   6.994   7.050   3.520
11518SOL    MW446393   6.955   7.070   3.595
11519SOL     OW46394   7.188   5.778   2.165
11519SOL    HW246395   7.181   5.782   2.260
11519SOL    HW346396   7.200   5.869   2.138
11519SOL    MW446397   7.189   5.791   2.173
11520SOL     OW46398   6.477   6.341   2.279
11520SOL    HW246399   6.457   6.327   2.186
11520SOL    HW346400   6.570   6.320   2.286
11520SOL    MW446401   6.487   6.336   2.268
11521SOL     OW46402   5.804   5.964   3.583
11521SOL    HW246403   5.761   6.023   3.520
11521SOL    HW346404   5.872   6.019   3.623
11521SOL    MW446405   5.808   5.979   3.580
11522SOL     OW46406   6.916   6.584   3.128
11522SOL    HW246407   6.979   6.581   3.201
11522SOL    HW346408   6.832   6.602   3.170
11522SOL    MW446409   6.912   6.586   3.143
11523SOL     OW46410   6.460   7.299   2.317
11523SOL    HW246411   6.518   7.370   2.344
11523SOL    HW346412   6.483   7.227   2.375
11523SOL    MW446413   6.471   7.299   2.328
11524SOL     OW46414   7.255   5.761   2.907
11524SOL    HW246415   7.300   5.679   2.926
11524SOL    HW346416   7.275   5.817   2.983
11524SOL    MW446417   7.265   5.757   2.919
11525SOL     OW46418   5.703   5.604   3.006
11525SOL    HW246419   5.694   5.605   2.911
11525SOL    HW346420   5.797   5.616   3.021
11525SOL    MW446421   5.715   5.607   2.997
11526SOL     OW46422   7.340   6.797   2.626
11526SOL    HW246423   7.319   6.743   2.549
11526SOL    HW346424   7.436   6.795   2.630
11526SOL    MW446425   7.349   6.790   2.615
11527SOL     OW46426   6.032   6.942   3.369
11527SOL    HW246427   5.953   6.892   3.392
11527SOL    HW346428   6.102   6.901   3.419
11527SOL    MW446429   6.030   6.930   3.379
11528SOL     OW46430   5.916   5.731   2.052
11528SOL    HW246431   5.845   5.786   2.020
11528SOL    HW346432   5.958   5.697   1.973
11528SOL    MW446433   5.912   5.733   2.038
11529SOL     OW46434   7.040   6.228   2.888
11529SOL    HW246435   6.963   6.274   2.854
11529SOL    HW346436   7.097   6.297   2.922
11529SOL    MW446437   7.037   6.243   2.888
11530SOL     OW46438   5.672   5.830   1.901
11530SOL    HW246439   5.639   5.909   1.945
11530SOL    HW346440   5.727   5.863   1.830
11530SOL    MW446441   5.675   5.844   1.898
11531SOL     OW46442   5.706   7.087   2.090
11531SOL    HW246443   5.723   7.171   2.132
11531SOL    HW346444   5.741   7.096   2.002
11531SOL    MW446445   5.711   7.100   2.084
11532SOL     OW46446   6.978   7.176   2.307
11532SOL    HW246447   7.041   7.166   2.236
11532SOL    HW346448   6.895   7.196   2.262
11532SOL    MW446449   6.975   7.177   2.292
11533SOL     OW46450   7.341   6.444   3.993
11533SOL    HW246451   7.382   6.386   4.058
11533SOL    HW346452   7.248   6.436   4.010
11533SOL    MW446453   7.335   6.436   4.003
11534SOL     OW46454   7.207   6.376   4.988
11534SOL    HW246455   7.162   6.443   5.039
11534SOL    HW346456   7.295   6.412   4.974
11534SOL    MW446457   7.213   6.389   4.992
11535SOL     OW46458   6.135   6.627   4.222
11535SOL    HW246459   6.225   6.602   4.206
11535SOL    HW346460   6.131   6.720   4.199
11535SOL    MW446461   6.147   6.636   4.217
11536SOL     OW46462   7.251   7.330   4.364
11536SOL    HW246463   7.263   7.276   4.442
11536SOL    HW346464   7.288   7.278   4.293
11536SOL    MW446465   7.257   7.315   4.365
11537SOL     OW46466   6.630   7.215   5.365
11537SOL    HW246467   6.671   7.251   5.286
11537SOL    HW346468   6.665   7.126   5.372
11537SOL    MW446469   6.641   7.208   5.356
11538SOL     OW46470   7.187   6.770   4.969
11538SOL    HW246471   7.108   6.735   4.927
11538SOL    HW346472   7.214   6.842   4.913
11538SOL    MW446473   7.180   6.775   4.956
11539SOL     OW46474   6.419   6.083   4.235
11539SOL    HW246475   6.394   6.171   4.263
11539SOL    HW346476   6.416   6.086   4.139
11539SOL    MW446477   6.415   6.095   4.227
11540SOL     OW46478   5.861   6.111   4.163
11540SOL    HW246479   5.893   6.199   4.145
11540SOL    HW346480   5.849   6.109   4.258
11540SOL    MW446481   5.864   6.123   4.175
11541SOL     OW46482   5.939   6.524   5.064
11541SOL    HW246483   6.002   6.471   5.015
11541SOL    HW346484   5.920   6.598   5.007
11541SOL    MW446485   5.945   6.526   5.051
11542SOL     OW46486   6.260   5.866   4.250
11542SOL    HW246487   6.318   5.942   4.252
11542SOL    HW346488   6.195   5.887   4.183
11542SOL    MW446489   6.259   5.878   4.241
11543SOL     OW46490   6.347   6.793   4.425
11543SOL    HW246491   6.427   6.796   4.477
11543SOL    HW346492   6.375   6.760   4.339
11543SOL    MW446493   6.361   6.789   4.420
11544SOL     OW46494   6.372   7.134   5.328
11544SOL    HW246495   6.456   7.160   5.367
11544SOL    HW346496   6.396   7.078   5.254
11544SOL    MW446497   6.386   7.130   5.323
11545SOL     OW46498   6.124   6.297   4.416
11545SOL    HW246499   6.109   6.217   4.467
11545SOL    HW346500   6.206   6.332   4.450
11545SOL    MW446501   6.132   6.289   4.428
11546SOL     OW46502   6.461   6.983   5.101
11546SOL    HW246503   6.425   7.049   5.041
11546SOL    HW346504   6.389   6.921   5.114
11546SOL    MW446505   6.447   6.983   5.095
11547SOL     OW46506   6.266   6.123   4.793
11547SOL    HW246507   6.172   6.119   4.811
11547SOL    HW346508   6.296   6.032   4.802
11547SOL    MW446509   6.257   6.111   4.796
11548SOL     OW46510   6.012   6.537   4.697
11548SOL    HW246511   5.967   6.544   4.613
11548SOL    HW346512   5.992   6.620   4.741
11548SOL    MW446513   6.004   6.549   4.691
11549SOL     OW46514   5.709   7.383   4.572
11549SOL    HW246515   5.798   7.375   4.607
11549SOL    HW346516   5.673   7.295   4.577
11549SOL    MW446517   5.716   7.370   4.577
11550SOL     OW46518   6.974   6.775   3.941
11550SOL    HW246519   6.892   6.811   3.907
11550SOL    HW346520   7.042   6.818   3.890
11550SOL    MW446521   6.972   6.785   3.929
11551SOL     OW46522   5.973   6.910   4.607
11551SOL    HW246523   5.949   6.963   4.683
11551SOL    HW346524   6.029   6.968   4.555
11551SOL    MW446525   5.977   6.925   4.610
11552SOL     OW46526   6.535   6.554   4.417
11552SOL    HW246527   6.449   6.541   4.457
11552SOL    HW346528   6.588   6.481   4.449
11552SOL    MW446529   6.531   6.543   4.426
11553SOL     OW46530   5.943   7.206   5.202
11553SOL    HW246531   5.851   7.182   5.187
11553SOL    HW346532   5.987   7.123   5.219
11553SOL    MW446533   5.937   7.191   5.201
11554SOL     OW46534   6.526   6.916   4.134
11554SOL    HW246535   6.503   6.978   4.202
11554SOL    HW346536   6.483   6.834   4.160
11554SOL    MW446537   6.518   6.912   4.145
11555SOL     OW46538   7.399   5.917   4.590
11555SOL    HW246539   7.336   5.897   4.659
11555SOL    HW346540   7.389   5.846   4.527
11555SOL    MW446541   7.389   5.904   4.591
11556SOL     OW46542   6.023   5.889   4.102
11556SOL    HW246543   5.997   5.851   4.018
11556SOL    HW346544   5.960   5.959   4.118
11556SOL    MW446545   6.012   5.892   4.093
11557SOL     OW46546   5.858   6.850   4.139
11557SOL    HW246547   5.806   6.918   4.095
11557SOL    HW346548   5.855   6.776   4.079
11557SOL    MW446549   5.850   6.849   4.126
11558SOL     OW46550   6.520   7.313   3.917
11558SOL    HW246551   6.475   7.329   4.000
11558SOL    HW346552   6.451   7.278   3.859
11558SOL    MW446553   6.506   7.310   3.919
11559SOL     OW46554   7.455   6.086   3.892
11559SOL    HW246555   7.364   6.088   3.920
11559SOL    HW346556   7.500   6.148   3.950
11559SOL    MW446557   7.448   6.094   3.902
11560SOL     OW46558   7.200   6.689   4.242
11560SOL    HW246559   7.110   6.689   4.277
11560SOL    HW346560   7.193   6.735   4.159
11560SOL    MW446561   7.187   6.695   4.236
11561SOL     OW46562   7.000   6.324   5.314
11561SOL    HW246563   7.069   6.262   5.291
11561SOL    HW346564   6.925   6.298   5.261
11561SOL    MW446565   7.000   6.311   5.305
11562SOL     OW46566   5.741   7.204   4.866
11562SOL    HW246567   5.724   7.150   4.943
11562SOL    HW346568   5.729   7.294   4.896
11562SOL    MW446569   5.738   7.208   4.880
11563SOL     OW46570   6.736   6.711   5.306
11563SOL    HW246571   6.721   6.804   5.291
11563SOL    HW346572   6.831   6.701   5.306
11563SOL    MW446573   6.745   6.721   5.303
11564SOL     OW46574   6.532   6.135   5.507
11564SOL    HW246575   6.622   6.136   5.474
11564SOL    HW346576   6.491   6.060   5.465
11564SOL    MW446577   6.538   6.125   5.498
11565SOL     OW46578   7.107   6.667   4.634
11565SOL    HW246579   7.110   6.601   4.565
11565SOL    HW346580   7.192   6.710   4.630
11565SOL    MW446581   7.119   6.663   4.625
11566SOL     OW46582   6.727   6.270   4.203
11566SOL    HW246583   6.753   6.294   4.114
11566SOL    HW346584   6.709   6.177   4.199
11566SOL    MW446585   6.729   6.262   4.190
11567SOL     OW46586   7.392   6.890   4.054
11567SOL    HW246587   7.348   6.931   4.129
11567SOL    HW346588   7.449   6.958   4.019
11567SOL    MW446589   7.394   6.904   4.059
11568SOL     OW46590   6.312   5.939   5.457
11568SOL    HW246591   6.322   5.865   5.397
11568SOL    HW346592   6.348   5.908   5.540
11568SOL    MW446593   6.318   5.925   5.459
11569SOL     OW46594   6.048   7.306   4.372
11569SOL    HW246595   6.080   7.394   4.350
11569SOL    HW346596   6.001   7.278   4.294
11569SOL    MW446597   6.047   7.314   4.359
11570SOL     OW46598   7.432   5.668   4.421
11570SOL    HW246599   7.486   5.619   4.483
11570SOL    HW346600   7.375   5.602   4.382
11570SOL    MW446601   7.432   5.652   4.423
11571SOL     OW46602   6.551   5.621   4.834
11571SOL    HW246603   6.510   5.699   4.796
11571SOL    HW346604   6.645   5.639   4.829
11571SOL    MW446605   6.557   5.633   4.829
11572SOL     OW46606   7.168   7.174   3.920
11572SOL    HW246607   7.216   7.243   3.966
11572SOL    HW346608   7.089   7.218   3.889
11572SOL    MW446609   7.163   7.188   3.923
11573SOL     OW46610   6.566   6.299   3.864
11573SOL    HW246611   6.568   6.246   3.785
11573SOL    HW346612   6.654   6.336   3.870
11573SOL    MW446613   6.578   6.298   3.853
11574SOL     OW46614   7.180   6.225   4.200
11574SOL    HW246615   7.219   6.225   4.287
11574SOL    HW346616   7.121   6.301   4.200
11574SOL    MW446617   7.177   6.236   4.211
11575SOL     OW46618   6.497   6.592   5.329
11575SOL    HW246619   6.474   6.572   5.419
11575SOL    HW346620   6.582   6.636   5.334
11575SOL    MW446621   6.504   6.595   5.341
11576SOL     OW46622   6.577   5.729   5.089
11576SOL    HW246623   6.583   5.691   5.002
11576SOL    HW346624   6.566   5.823   5.074
11576SOL    MW446625   6.578   5.737   5.077
11577SOL     OW46626   6.666   6.218   4.923
11577SOL    HW246627   6.741   6.247   4.870
11577SOL    HW346628   6.598   6.283   4.907
11577SOL    MW446629   6.667   6.230   4.913
11578SOL     OW46630   7.216   6.186   5.200
11578SOL    HW246631   7.197   6.095   5.179
11578SOL    HW346632   7.194   6.235   5.121
11578SOL    MW446633   7.211   6.179   5.187
11579SOL     OW46634   7.358   7.280   5.104
11579SOL    HW246635   7.286   7.242   5.155
11579SOL    HW346636   7.375   7.365   5.145
11579SOL    MW446637   7.352   7.285   5.116
11580SOL     OW46638   6.663   5.924   5.306
11580SOL    HW246639   6.629   5.963   5.225
11580SOL    HW346640   6.641   5.832   5.299
11580SOL    MW446641   6.656   5.917   5.296
11581SOL     OW46642   7.072   6.738   5.382
11581SOL    HW246643   7.154   6.779   5.412
11581SOL    HW346644   7.035   6.700   5.462
11581SOL    MW446645   7.078   6.739   5.397
11582SOL     OW46646   7.367   6.111   4.366
11582SOL    HW246647   7.456   6.080   4.383
11582SOL    HW346648   7.310   6.051   4.414
11582SOL    MW446649   7.370   6.099   4.375
11583SOL     OW46650   5.793   5.825   4.395
11583SOL    HW246651   5.784   5.765   4.321
11583SOL    HW346652   5.726   5.796   4.458
11583SOL    MW446653   5.783   5.812   4.393
11584SOL     OW46654   6.736   6.918   3.956
11584SOL    HW246655   6.686   6.920   4.038
11584SOL    HW346656   6.670   6.936   3.888
11584SOL    MW446657   6.722   6.920   3.958
11585SOL     OW46658   5.740   5.998   4.758
11585SOL    HW246659   5.712   6.089   4.767
11585SOL    HW346660   5.677   5.959   4.697
11585SOL    MW446661   5.727   6.004   4.752
11586SOL     OW46662   6.199   7.336   4.064
11586SOL    HW246663   6.120   7.294   4.097
11586SOL    HW346664   6.265   7.319   4.131
11586SOL    MW446665   6.198   7.328   4.077
11587SOL     OW46666   7.327   6.856   5.461
11587SOL    HW246667   7.377   6.782   5.493
11587SOL    HW346668   7.273   6.883   5.536
11587SOL    MW446669   7.327   6.850   5.474
11588SOL     OW46670   6.335   6.751   3.771
11588SOL    HW246671   6.257   6.697   3.758
11588SOL    HW346672   6.306   6.824   3.824
11588SOL    MW446673   6.321   6.753   3.776
11589SOL     OW46674   7.461   6.491   4.963
11589SOL    HW246675   7.477   6.529   4.876
11589SOL    HW346676   7.495   6.557   5.024
11589SOL    MW446677   7.468   6.504   4.959
11590SOL     OW46678   7.253   7.200   4.632
11590SOL    HW246679   7.282   7.267   4.693
11590SOL    HW346680   7.234   7.124   4.687
11590SOL    MW446681   7.255   7.200   4.647
11591SOL     OW46682   6.916   7.267   3.839
11591SOL    HW246683   6.842   7.230   3.889
11591SOL    HW346684   6.924   7.357   3.872
11591SOL    MW446685   6.907   7.274   3.851
11592SOL     OW46686   5.724   6.273   4.928
11592SOL    HW246687   5.786   6.303   4.994
11592SOL    HW346688   5.658   6.342   4.922
11592SOL    MW446689   5.723   6.286   4.935
11593SOL     OW46690   7.140   6.941   3.781
11593SOL    HW246691   7.087   6.990   3.717
11593SOL    HW346692   7.171   7.007   3.842
11593SOL    MW446693   7.138   6.955   3.779
11594SOL     OW46694   6.365   5.830   3.836
11594SOL    HW246695   6.313   5.750   3.824
11594SOL    HW346696   6.452   5.807   3.804
11594SOL    MW446697   6.368   5.816   3.830
11595SOL     OW46698   5.819   7.382   5.380
11595SOL    HW246699   5.793   7.450   5.318
11595SOL    HW346700   5.867   7.319   5.328
11595SOL    MW446701   5.821   7.382   5.366
11596SOL     OW46702   5.871   6.701   4.887
11596SOL    HW246703   5.924   6.776   4.912
11596SOL    HW346704   5.790   6.739   4.853
11596SOL    MW446705   5.867   6.716   4.887
11597SOL     OW46706   6.411   6.605   4.875
11597SOL    HW246707   6.439   6.514   4.887
11597SOL    HW346708   6.340   6.599   4.811
11597SOL    MW446709   6.404   6.593   4.870
11598SOL     OW46710   5.726   6.470   4.293
11598SOL    HW246711   5.817   6.485   4.320
11598SOL    HW346712   5.729   6.391   4.239
11598SOL    MW446713   5.738   6.462   4.291
11599SOL     OW46714   5.962   6.178   5.547
11599SOL    HW246715   5.909   6.258   5.554
11599SOL    HW346716   6.032   6.190   5.612
11599SOL    MW446717   5.964   6.191   5.555
11600SOL     OW46718   6.348   5.728   5.254
11600SOL    HW246719   6.325   5.636   5.256
11600SOL    HW346720   6.434   5.730   5.211
11600SOL    MW446721   6.355   5.718   5.250
11601SOL     OW46722   6.032   6.252   5.293
11601SOL    HW246723   6.112   6.302   5.279
11601SOL    HW346724   6.023   6.246   5.388
11601SOL    MW446725   6.041   6.258   5.303
11602SOL     OW46726   6.353   7.402   4.667
11602SOL    HW246727   6.442   7.417   4.697
11602SOL    HW346728   6.348   7.449   4.583
11602SOL    MW446729   6.363   7.410   4.660
11603SOL     OW46730   7.009   5.777   5.564
11603SOL    HW246731   7.065   5.704   5.590
11603SOL    HW346732   6.979   5.815   5.646
11603SOL    MW446733   7.013   5.772   5.577
11604SOL     OW46734   5.734   7.082   4.332
11604SOL    HW246735   5.706   7.121   4.414
11604SOL    HW346736   5.754   6.991   4.354
11604SOL    MW446737   5.732   7.074   4.345
11605SOL     OW46738   6.567   7.125   4.367
11605SOL    HW246739   6.650   7.079   4.351
11605SOL    HW346740   6.557   7.124   4.463
11605SOL    MW446741   6.577   7.118   4.377
11606SOL     OW46742   7.399   6.270   4.681
11606SOL    HW246743   7.488   6.300   4.663
11606SOL    HW346744   7.379   6.210   4.610
11606SOL    MW446745   7.408   6.267   4.670
11607SOL     OW46746   7.250   6.449   5.561
11607SOL    HW246747   7.305   6.373   5.542
11607SOL    HW346748   7.252   6.457   5.656
11607SOL    MW446749   7.258   6.440   5.569
11608SOL     OW46750   6.300   7.182   3.772
11608SOL    HW246751   6.240   7.251   3.742
11608SOL    HW346752   6.245   7.124   3.825
11608SOL    MW446753   6.284   7.184   3.774
11609SOL     OW46754   6.738   5.827   3.995
11609SOL    HW246755   6.671   5.803   3.932
11609SOL    HW346756   6.803   5.876   3.944
11609SOL    MW446757   6.738   5.829   3.980
11610SOL     OW46758   6.545   6.011   5.080
11610SOL    HW246759   6.464   6.052   5.108
11610SOL    HW346760   6.592   6.079   5.032
11610SOL    MW446761   6.540   6.026   5.078
11611SOL     OW46762   6.805   6.349   4.703
11611SOL    HW246763   6.818   6.443   4.713
11611SOL    HW346764   6.766   6.339   4.617
11611SOL    MW446765   6.801   6.360   4.693
11612SOL     OW46766   6.257   6.544   4.507
11612SOL    HW246767   6.168   6.535   4.540
11612SOL    HW346768   6.261   6.634   4.475
11612SOL    MW446769   6.246   6.555   4.507
11613SOL     OW46770   7.056   6.127   4.502
11613SOL    HW246771   7.001   6.048   4.501
11613SOL    HW346772   7.038   6.168   4.586
11613SOL    MW446773   7.046   6.122   4.511
11614SOL     OW46774   6.027   5.814   5.319
11614SOL    HW246775   5.948   5.832   5.371
11614SOL    HW346776   6.022   5.876   5.246
11614SOL    MW446777   6.017   5.824   5.316
11615SOL     OW46778   6.675   6.331   4.459
11615SOL    HW246779   6.612   6.263   4.483
11615SOL    HW346780   6.695   6.312   4.367
11615SOL    MW446781   6.669   6.318   4.451
11616SOL     OW46782   5.931   7.226   4.161
11616SOL    HW246783   5.892   7.273   4.087
11616SOL    HW346784   5.865   7.161   4.186
11616SOL    MW446785   5.918   7.224   4.155
11617SOL     OW46786   6.423   6.635   4.185
11617SOL    HW246787   6.425   6.609   4.092
11617SOL    HW346788   6.481   6.572   4.228
11617SOL    MW446789   6.431   6.624   4.179
11618SOL     OW46790   6.976   7.195   4.957
11618SOL    HW246791   6.901   7.241   4.995
11618SOL    HW346792   6.958   7.102   4.974
11618SOL    MW446793   6.965   7.189   4.965
11619SOL     OW46794   6.980   7.403   4.387
11619SOL    HW246795   6.923   7.356   4.326
11619SOL    HW346796   7.066   7.364   4.374
11619SOL    MW446797   6.983   7.394   4.377
11620SOL     OW46798   6.933   5.879   4.518
11620SOL    HW246799   6.961   5.811   4.579
11620SOL    HW346800   6.847   5.850   4.488
11620SOL    MW446801   6.926   5.866   4.522
11621SOL     OW46802   5.738   6.813   4.452
11621SOL    HW246803   5.802   6.845   4.515
11621SOL    HW346804   5.787   6.749   4.400
11621SOL    MW446805   5.753   6.809   4.453
11622SOL     OW46806   6.238   6.889   5.434
11622SOL    HW246807   6.286   6.972   5.421
11622SOL    HW346808   6.295   6.837   5.490
11622SOL    MW446809   6.252   6.893   5.440
11623SOL     OW46810   5.814   7.131   5.574
11623SOL    HW246811   5.870   7.055   5.589
11623SOL    HW346812   5.763   7.109   5.496
11623SOL    MW446813   5.814   7.118   5.565
11624SOL     OW46814   6.913   5.983   3.853
11624SOL    HW246815   6.886   6.049   3.789
11624SOL    HW346816   6.983   6.026   3.903
11624SOL    MW446817   6.918   5.996   3.850
11625SOL     OW46818   6.581   5.688   3.790
11625SOL    HW246819   6.637   5.680   3.712
11625SOL    HW346820   6.558   5.598   3.812
11625SOL    MW446821   6.586   5.675   3.783
11626SOL     OW46822   7.086   6.539   3.995
11626SOL    HW246823   7.053   6.628   3.985
11626SOL    HW346824   7.051   6.510   4.080
11626SOL    MW446825   7.076   6.548   4.006
11627SOL     OW46826   6.699   6.968   5.183
11627SOL    HW246827   6.610   6.974   5.151
11627SOL    HW346828   6.743   7.047   5.151
11627SOL    MW446829   6.694   6.978   5.175
11628SOL     OW46830   5.992   5.636   5.525
11628SOL    HW246831   5.920   5.601   5.473
11628SOL    HW346832   6.050   5.677   5.460
11628SOL    MW446833   5.990   5.637   5.510
11629SOL     OW46834   6.016   7.126   4.824
11629SOL    HW246835   6.061   7.188   4.881
11629SOL    HW346836   5.923   7.145   4.837
11629SOL    MW446837   6.009   7.136   4.831
11630SOL     OW46838   7.456   6.655   5.178
11630SOL    HW246839   7.371   6.668   5.137
11630SOL    HW346840   7.436   6.619   5.265
11630SOL    MW446841   7.443   6.651   5.183
11631SOL     OW46842   6.438   7.194   4.932
11631SOL    HW246843   6.462   7.183   4.841
11631SOL    HW346844   6.361   7.251   4.930
11631SOL    MW446845   6.430   7.199   4.921
11632SOL     OW46846   6.080   6.577   3.787
11632SOL    HW246847   6.003   6.590   3.843
11632SOL    HW346848   6.044   6.541   3.706
11632SOL    MW446849   6.066   6.573   3.784
11633SOL     OW46850   6.733   6.550   4.030
11633SOL    HW246851   6.643   6.571   4.005
11633SOL    HW346852   6.760   6.623   4.086
11633SOL    MW446853   6.725   6.562   4.033
11634SOL     OW46854   6.233   6.899   4.722
11634SOL    HW246855   6.226   6.878   4.816
11634SOL    HW346856   6.151   6.867   4.685
11634SOL    MW446857   6.221   6.893   4.729
11635SOL     OW46858   7.097   5.909   5.124
11635SOL    HW246859   7.044   5.911   5.204
11635SOL    HW346860   7.082   5.822   5.087
11635SOL    MW446861   7.089   5.899   5.129
11636SOL     OW46862   7.433   5.833   4.997
11636SOL    HW246863   7.414   5.900   4.932
11636SOL    HW346864   7.490   5.771   4.952
11636SOL    MW446865   7.437   5.834   4.983
11637SOL     OW46866   5.679   6.991   5.385
11637SOL    HW246867   5.723   6.924   5.331
11637SOL    HW346868   5.594   6.953   5.405
11637SOL    MW446869   5.674   6.977   5.381
11638SOL     OW46870   6.362   5.666   4.437
11638SOL    HW246871   6.291   5.727   4.419
11638SOL    HW346872   6.413   5.663   4.356
11638SOL    MW446873   6.358   5.672   4.424
11639SOL     OW46874   6.120   6.906   4.186
11639SOL    HW246875   6.113   6.938   4.276
11639SOL    HW346876   6.030   6.890   4.158
11639SOL    MW446877   6.108   6.908   4.193
11640SOL     OW46878   6.715   7.299   5.095
11640SOL    HW246879   6.635   7.284   5.045
11640SOL    HW346880   6.722   7.394   5.102
11640SOL    MW446881   6.706   7.310   5.089
11641SOL     OW46882   6.829   7.264   4.585
11641SOL    HW246883   6.876   7.337   4.544
11641SOL    HW346884   6.750   7.303   4.621
11641SOL    MW446885   6.824   7.279   4.584
11642SOL     OW46886   7.237   7.359   4.860
11642SOL    HW246887   7.280   7.329   4.940
11642SOL    HW346888   7.156   7.307   4.857
11642SOL    MW446889   7.232   7.348   4.870
11643SOL     OW46890   6.322   6.323   5.567
11643SOL    HW246891   6.392   6.265   5.539
11643SOL    HW346892   6.265   6.268   5.622
11643SOL    MW446893   6.324   6.310   5.571
11644SOL     OW46894   7.109   6.535   5.200
11644SOL    HW246895   7.114   6.588   5.280
11644SOL    HW346896   7.071   6.452   5.228
11644SOL    MW446897   7.105   6.530   5.215
11645SOL     OW46898   6.749   5.670   5.446
11645SOL    HW246899   6.744   5.577   5.427
11645SOL    HW346900   6.832   5.681   5.492
11645SOL    MW446901   6.757   5.659   5.450
11646SOL     OW46902   6.123   6.190   3.900
11646SOL    HW246903   6.089   6.246   3.970
11646SOL    HW346904   6.194   6.140   3.940
11646SOL    MW446905   6.129   6.191   3.914
11647SOL     OW46906   7.219   6.941   4.722
11647SOL    HW246907   7.254   6.923   4.635
11647SOL    HW346908   7.124   6.942   4.709
11647SOL    MW446909   7.211   6.938   4.709
11648SOL     OW46910   6.648   6.589   5.091
11648SOL    HW246911   6.691   6.624   5.169
11648SOL    HW346912   6.631   6.666   5.037
11648SOL    MW446913   6.651   6.604   5.094
11649SOL     OW46914   7.179   6.076   3.964
11649SOL    HW246915   7.171   6.147   3.901
11649SOL    HW346916   7.197   6.120   4.047
11649SOL    MW446917   7.180   6.090   3.966
11650SOL     OW46918   6.039   5.731   4.393
11650SOL    HW246919   6.089   5.774   4.324
11650SOL    HW346920   5.954   5.775   4.393
11650SOL    MW446921   6.036   5.744   4.384
11651SOL     OW46922   5.798   6.793   5.253
11651SOL    HW246923   5.826   6.746   5.331
11651SOL    HW346924   5.719   6.748   5.224
11651SOL    MW446925   5.791   6.782   5.259
11652SOL     OW46926   6.306   6.120   5.220
11652SOL    HW246927   6.278   6.208   5.244
11652SOL    HW346928   6.275   6.064   5.291
11652SOL    MW446929   6.298   6.123   5.232
11653SOL     OW46930   6.848   6.338   3.939
11653SOL    HW246931   6.895   6.356   3.858
11653SOL    HW346932   6.814   6.422   3.967
11653SOL    MW446933   6.850   6.352   3.932
11654SOL     OW46934   5.961   6.516   4.433
11654SOL    HW246935   6.019   6.572   4.381
11654SOL    HW346936   6.005   6.431   4.435
11654SOL    MW446937   5.974   6.513   4.426
11655SOL     OW46938   7.101   5.868   4.270
11655SOL    HW246939   7.023   5.818   4.295
11655SOL    HW346940   7.072   5.959   4.270
11655SOL    MW446941   7.087   5.872   4.273
11656SOL     OW46942   6.687   5.830   4.429
11656SOL    HW246943   6.707   5.905   4.373
11656SOL    HW346944   6.667   5.869   4.514
11656SOL    MW446945   6.688   5.846   4.433
11657SOL     OW46946   6.583   7.080   3.761
11657SOL    HW246947   6.610   7.158   3.713
11657SOL    HW346948   6.490   7.095   3.780
11657SOL    MW446949   6.574   7.093   3.757
11658SOL     OW46950   7.447   6.603   5.448
11658SOL    HW246951   7.360   6.583   5.484
11658SOL    HW346952   7.501   6.529   5.473
11658SOL    MW446953   7.442   6.592   5.456
11659SOL     OW46954   5.668   7.116   4.605
11659SOL    HW246955   5.700   7.120   4.696
11659SOL    HW346956   5.573   7.124   4.613
11659SOL    MW446957   5.660   7.119   4.618
11660SOL     OW46958   5.623   6.242   4.152
11660SOL    HW246959   5.563   6.214   4.222
11660SOL    HW346960   5.697   6.182   4.158
11660SOL    MW446961   5.625   6.231   4.161
11661SOL     OW46962   6.791   6.973   4.312
11661SOL    HW246963   6.814   6.924   4.390
11661SOL    HW346964   6.872   7.015   4.284
11661SOL    MW446965   6.804   6.973   4.319
11662SOL     OW46966   6.049   5.981   5.041
11662SOL    HW246967   6.082   6.062   5.081
11662SOL    HW346968   6.022   6.007   4.953
11662SOL    MW446969   6.048   5.995   5.035
11663SOL     OW46970   6.003   5.948   4.777
11663SOL    HW246971   6.033   5.862   4.748
11663SOL    HW346972   5.908   5.941   4.780
11663SOL    MW446973   5.995   5.937   4.775
11664SOL     OW46974   6.832   6.157   5.468
11664SOL    HW246975   6.884   6.092   5.421
11664SOL    HW346976   6.790   6.208   5.398
11664SOL    MW446977   6.833   6.154   5.451
11665SOL     OW46978   6.931   5.952   5.329
11665SOL    HW246979   6.838   5.936   5.316
11665SOL    HW346980   6.957   5.890   5.397
11665SOL    MW446981   6.921   5.942   5.336
11666SOL     OW46982   6.146   5.726   4.668
11666SOL    HW246983   6.156   5.635   4.694
11666SOL    HW346984   6.102   5.722   4.583
11666SOL    MW446985   6.142   5.714   4.660
11667SOL     OW46986   6.240   7.341   5.214
11667SOL    HW246987   6.157   7.326   5.259
11667SOL    HW346988   6.299   7.274   5.249
11667SOL    MW446989   6.238   7.331   5.224
11668SOL     OW46990   7.297   6.048   4.839
11668SOL    HW246991   7.230   6.081   4.899
11668SOL    HW346992   7.340   6.126   4.805
11668SOL    MW446993   7.295   6.063   4.843
11669SOL     OW46994   7.475   6.768   4.809
11669SOL    HW246995   7.468   6.708   4.734
11669SOL    HW346996   7.401   6.828   4.798
11669SOL    MW446997   7.465   6.768   4.798
11670SOL     OW46998   6.857   6.630   4.727
11670SOL    HW246999   6.871   6.602   4.818
11670SOL    HW347000   6.943   6.661   4.699
11670SOL    MW447001   6.870   6.631   4.736
11671SOL     OW47002   6.940   6.125   5.006
11671SOL    HW247003   6.961   6.126   4.913
11671SOL    HW347004   6.985   6.047   5.039
11671SOL    MW447005   6.947   6.115   4.998
11672SOL     OW47006   7.433   6.256   5.548
11672SOL    HW247007   7.470   6.201   5.617
11672SOL    HW347008   7.458   6.213   5.466
11672SOL    MW447009   7.440   6.244   5.547
11673SOL     OW47010   6.980   6.554   5.600
11673SOL    HW247011   7.046   6.502   5.554
11673SOL    HW347012   7.000   6.541   5.693
11673SOL    MW447013   6.991   6.545   5.607
11674SOL     OW47014   6.931   5.640   3.948
11674SOL    HW247015   7.005   5.684   3.991
11674SOL    HW347016   6.855   5.694   3.970
11674SOL    MW447017   6.931   5.652   3.956
11675SOL     OW47018   6.991   6.415   4.226
11675SOL    HW247019   6.906   6.385   4.196
11675SOL    HW347020   6.983   6.422   4.321
11675SOL    MW447021   6.979   6.413   4.235
11676SOL     OW47022   6.067   6.878   4.957
11676SOL    HW247023   6.079   6.905   5.048
11676SOL    HW347024   6.048   6.959   4.910
11676SOL    MW447025   6.066   6.893   4.962
11677SOL     OW47026   6.351   5.858   4.780
11677SOL    HW247027   6.324   5.860   4.871
11677SOL    HW347028   6.281   5.810   4.735
11677SOL    MW447029   6.339   5.854   4.787
11678SOL     OW47030   6.205   7.350   4.942
11678SOL    HW247031   6.257   7.427   4.919
11678SOL    HW347032   6.214   7.342   5.037
11678SOL    MW447033   6.214   7.357   4.953
11679SOL     OW47034   7.107   6.935   5.174
11679SOL    HW247035   7.092   6.864   5.237
11679SOL    HW347036   7.153   6.893   5.102
11679SOL    MW447037   7.113   6.919   5.174
11680SOL     OW47038   6.181   6.666   5.291
11680SOL    HW247039   6.218   6.671   5.203
11680SOL    HW347040   6.220   6.739   5.338
11680SOL    MW447041   6.191   6.676   5.286
11681SOL     OW47042   6.361   6.709   5.103
11681SOL    HW247043   6.420   6.655   5.156
11681SOL    HW347044   6.376   6.681   5.013
11681SOL    MW447045   6.371   6.698   5.099
11682SOL     OW47046   6.364   6.081   3.952
11682SOL    HW247047   6.437   6.130   3.915
11682SOL    HW347048   6.380   5.990   3.926
11682SOL    MW447049   6.376   6.076   3.945
11683SOL     OW47050   7.172   7.198   5.275
11683SOL    HW247051   7.214   7.183   5.360
11683SOL    HW347052   7.163   7.111   5.237
11683SOL    MW447053   7.176   7.186   5.282
11684SOL     OW47054   6.832   5.677   4.866
11684SOL    HW247055   6.887   5.686   4.788
11684SOL    HW347056   6.887   5.711   4.937
11684SOL    MW447057   6.846   5.682   4.865
11685SOL     OW47058   5.839   6.590   4.050
11685SOL    HW247059   5.776   6.606   3.979
11685SOL    HW347060   5.786   6.553   4.121
11685SOL    MW447061   5.824   6.587   4.050
11686SOL     OW47062   6.195   6.944   3.909
11686SOL    HW247063   6.210   6.920   4.001
11686SOL    HW347064   6.103   6.922   3.893
11686SOL    MW447065   6.185   6.937   3.919
11687SOL     OW47066   6.734   7.175   4.061
11687SOL    HW247067   6.742   7.093   4.012
11687SOL    HW347068   6.653   7.214   4.028
11687SOL    MW447069   6.724   7.170   4.051
11688SOL     OW47070   5.993   7.333   4.630
11688SOL    HW247071   5.997   7.244   4.665
11688SOL    HW347072   6.019   7.324   4.539
11688SOL    MW447073   5.996   7.321   4.622
11689SOL     OW47074   6.610   6.811   4.873
11689SOL    HW247075   6.542   6.745   4.889
11689SOL    HW347076   6.628   6.805   4.780
11689SOL    MW447077   6.603   6.802   4.864
11690SOL     OW47078   5.699   7.086   5.124
11690SOL    HW247079   5.689   7.044   5.210
11690SOL    HW347080   5.620   7.139   5.114
11690SOL    MW447081   5.688   7.087   5.135
11691SOL     OW47082   6.603   5.950   4.694
11691SOL    HW247083   6.533   5.902   4.739
11691SOL    HW347084   6.635   6.013   4.758
11691SOL    MW447085   6.598   5.952   4.708
11692SOL     OW47086   6.254   6.386   5.314
11692SOL    HW247087   6.247   6.481   5.302
11692SOL    HW347088   6.263   6.375   5.409
11692SOL    MW447089   6.255   6.398   5.324
11693SOL     OW47090   5.975   6.901   5.572
11693SOL    HW247091   6.047   6.903   5.509
11693SOL    HW347092   5.945   6.810   5.571
11693SOL    MW447093   5.980   6.890   5.564
11694SOL     OW47094   7.059   5.664   5.039
11694SOL    HW247095   7.130   5.610   5.003
11694SOL    HW347096   7.058   5.643   5.132
11694SOL    MW447097   7.068   5.655   5.047
11695SOL     OW47098   7.259   7.194   5.523
11695SOL    HW247099   7.232   7.191   5.614
11695SOL    HW347100   7.355   7.198   5.526
11695SOL    MW447101   7.269   7.194   5.535
11696SOL     OW47102   6.070   6.056   4.507
11696SOL    HW247103   6.141   6.004   4.470
11696SOL    HW347104   6.056   6.021   4.594
11696SOL    MW447105   6.078   6.045   4.514
11697SOL     OW47106   6.386   7.149   4.583
11697SOL    HW247107   6.314   7.086   4.596
11697SOL    HW347108   6.347   7.234   4.601
11697SOL    MW447109   6.370   7.152   4.586
11698SOL     OW47110   6.706   5.997   4.231
11698SOL    HW247111   6.728   5.934   4.163
11698SOL    HW347112   6.611   5.989   4.242
11698SOL    MW447113   6.696   5.988   4.223
11699SOL     OW47114   5.791   5.687   4.163
11699SOL    HW247115   5.862   5.708   4.102
11699SOL    HW347116   5.745   5.615   4.121
11699SOL    MW447117   5.795   5.681   4.149
11700SOL     OW47118   5.622   6.154   5.306
11700SOL    HW247119   5.686   6.220   5.281
11700SOL    HW347120   5.541   6.181   5.263
11700SOL    MW447121   5.620   6.166   5.298
11701SOL     OW47122   7.360   7.061   4.263
11701SOL    HW247123   7.330   6.994   4.324
11701SOL    HW347124   7.454   7.067   4.277
11701SOL    MW447125   7.368   7.053   4.273
11702SOL     OW47126   6.916   6.738   4.193
11702SOL    HW247127   6.888   6.824   4.226
11702SOL    HW347128   6.944   6.754   4.103
11702SOL    MW447129   6.916   6.752   4.185
11703SOL     OW47130   6.578   5.658   4.246
11703SOL    HW247131   6.615   5.717   4.311
11703SOL    HW347132   6.555   5.714   4.172
11703SOL    MW447133   6.579   5.673   4.245
11704SOL     OW47134   7.431   6.540   4.668
11704SOL    HW247135   7.422   6.572   4.579
11704SOL    HW347136   7.384   6.456   4.668
11704SOL    MW447137   7.424   6.533   4.658
11705SOL     OW47138   5.807   6.380   5.247
11705SOL    HW247139   5.828   6.449   5.185
11705SOL    HW347140   5.887   6.327   5.252
11705SOL    MW447141   5.820   6.381   5.241
11706SOL     OW47142   7.343   6.471   4.369
11706SOL    HW247143   7.437   6.460   4.357
11706SOL    HW347144   7.319   6.543   4.310
11706SOL    MW447145   7.353   6.479   4.360
11707SOL     OW47146   5.792   6.395   5.514
11707SOL    HW247147   5.718   6.339   5.540
11707SOL    HW347148   5.787   6.398   5.419
11707SOL    MW447149   5.781   6.388   5.504
11708SOL     OW47150   5.958   5.682   4.964
11708SOL    HW247151   6.001   5.766   4.984
11708SOL    HW347152   6.031   5.620   4.957
11708SOL    MW447153   5.973   5.685   4.965
11709SOL     OW47154   5.999   6.349   4.142
11709SOL    HW247155   5.999   6.444   4.127
11709SOL    HW347156   6.076   6.333   4.196
11709SOL    MW447157   6.009   6.360   4.147
11710SOL     OW47158   6.775   6.208   5.206
11710SOL    HW247159   6.811   6.181   5.122
11710SOL    HW347160   6.688   6.242   5.185
11710SOL    MW447161   6.769   6.209   5.193
11711SOL     OW47162   5.758   6.080   4.431
11711SOL    HW247163   5.820   6.087   4.504
11711SOL    HW347164   5.758   5.987   4.408
11711SOL    MW447165   5.766   6.069   4.438
11712SOL     OW47166   6.440   6.341   4.915
11712SOL    HW247167   6.398   6.259   4.891
11712SOL    HW347168   6.441   6.340   5.011
11712SOL    MW447169   6.433   6.330   4.924
11713SOL     OW47170   6.244   5.811   5.020
11713SOL    HW247171   6.175   5.874   5.041
11713SOL    HW347172   6.271   5.775   5.105
11713SOL    MW447173   6.238   5.814   5.033
11714SOL     OW47174   5.627   6.652   3.889
11714SOL    HW247175   5.596   6.717   3.952
11714SOL    HW347176   5.576   6.574   3.908
11714SOL    MW447177   5.617   6.649   3.899
11715SOL     OW47178   7.039   5.664   4.637
11715SOL    HW247179   7.127   5.673   4.674
11715SOL    HW347180   7.049   5.605   4.563
11715SOL    MW447181   7.053   5.658   4.631
11716SOL     OW47182   7.071   6.403   4.481
11716SOL    HW247183   7.151   6.418   4.430
11716SOL    HW347184   7.064   6.308   4.487
11716SOL    MW447185   7.080   6.392   4.476
11717SOL     OW47186   6.211   7.452   3.831
11717SOL    HW247187   6.116   7.452   3.823
11717SOL    HW347188   6.227   7.398   3.909
11717SOL    MW447189   6.201   7.446   3.840
11718SOL     OW47190   6.521   6.329   5.178
11718SOL    HW247191   6.590   6.396   5.175
11718SOL    HW347192   6.454   6.367   5.234
11718SOL    MW447193   6.522   6.342   5.185
11719SOL     OW47194   5.939   6.629   5.426
11719SOL    HW247195   5.893   6.545   5.428
11719SOL    HW347196   5.996   6.623   5.350
11719SOL    MW447197   5.941   6.617   5.418
11720SOL     OW47198   7.056   6.272   3.747
11720SOL    HW247199   6.984   6.248   3.689
11720SOL    HW347200   7.122   6.309   3.689
11720SOL    MW447201   7.055   6.274   3.732
11721SOL     OW47202   6.190   7.004   4.427
11721SOL    HW247203   6.255   6.937   4.448
11721SOL    HW347204   6.242   7.081   4.404
11721SOL    MW447205   6.205   7.006   4.426
11722SOL     OW47206   6.451   6.169   4.557
11722SOL    HW247207   6.391   6.187   4.629
11722SOL    HW347208   6.485   6.081   4.576
11722SOL    MW447209   6.447   6.159   4.570
11723SOL     OW47210   7.392   5.668   5.226
11723SOL    HW247211   7.313   5.714   5.254
11723SOL    HW347212   7.427   5.722   5.155
11723SOL    MW447213   7.386   5.681   5.220
11724SOL     OW47214   6.676   6.752   4.576
11724SOL    HW247215   6.768   6.733   4.594
11724SOL    HW347216   6.649   6.682   4.516
11724SOL    MW447217   6.684   6.740   4.570
11725SOL     OW47218   6.469   6.572   3.931
11725SOL    HW247219   6.455   6.484   3.896
11725SOL    HW347220   6.420   6.629   3.872
11725SOL    MW447221   6.461   6.567   3.919
11726SOL     OW47222   6.950   6.990   4.672
11726SOL    HW247223   6.923   7.074   4.637
11726SOL    HW347224   6.910   6.985   4.759
11726SOL    MW447225   6.943   6.999   4.678
11727SOL     OW47226   6.869   6.938   4.940
11727SOL    HW247227   6.880   6.905   5.029
11727SOL    HW347228   6.788   6.897   4.909
11727SOL    MW447229   6.859   6.930   4.946
11728SOL     OW47230   5.882   6.296   4.710
11728SOL    HW247231   5.832   6.295   4.791
11728SOL    HW347232   5.902   6.388   4.694
11728SOL    MW447233   5.878   6.308   4.718
11729SOL     OW47234   6.949   7.060   5.472
11729SOL    HW247235   6.949   7.154   5.488
11729SOL    HW347236   6.994   7.050   5.388
11729SOL    MW447237   6.955   7.070   5.463
11730SOL     OW47238   7.188   5.778   4.033
11730SOL    HW247239   7.181   5.782   4.128
11730SOL    HW347240   7.200   5.869   4.006
11730SOL    MW447241   7.189   5.791   4.041
11731SOL     OW47242   6.477   6.341   4.147
11731SOL    HW247243   6.457   6.327   4.054
11731SOL    HW347244   6.570   6.320   4.154
11731SOL    MW447245   6.487   6.336   4.136
11732SOL     OW47246   5.804   5.964   5.451
11732SOL    HW247247   5.761   6.023   5.388
11732SOL    HW347248   5.872   6.019   5.491
11732SOL    MW447249   5.808   5.979   5.448
11733SOL     OW47250   6.916   6.584   4.996
11733SOL    HW247251   6.979   6.581   5.069
11733SOL    HW347252   6.832   6.602   5.038
11733SOL    MW447253   6.912   6.586   5.011
11734SOL     OW47254   6.460   7.299   4.185
11734SOL    HW247255   6.518   7.370   4.212
11734SOL    HW347256   6.483   7.227   4.243
11734SOL    MW447257   6.471   7.299   4.196
11735SOL     OW47258   7.255   5.761   4.775
11735SOL    HW247259   7.300   5.679   4.794
11735SOL    HW347260   7.275   5.817   4.851
11735SOL    MW447261   7.265   5.757   4.787
11736SOL     OW47262   5.703   5.604   4.874
11736SOL    HW247263   5.694   5.605   4.779
11736SOL    HW347264   5.797   5.616   4.889
11736SOL    MW447265   5.715   5.607   4.865
11737SOL     OW47266   7.340   6.797   4.494
11737SOL    HW247267   7.319   6.743   4.417
11737SOL    HW347268   7.436   6.795   4.498
11737SOL    MW447269   7.349   6.790   4.483
11738SOL     OW47270   6.032   6.942   5.237
11738SOL    HW247271   5.953   6.892   5.260
11738SOL    HW347272   6.102   6.901   5.287
11738SOL    MW447273   6.030   6.930   5.247
11739SOL     OW47274   5.916   5.731   3.920
11739SOL    HW247275   5.845   5.786   3.888
11739SOL    HW347276   5.958   5.697   3.841
11739SOL    MW447277   5.912   5.733   3.906
11740SOL     OW47278   7.040   6.228   4.756
11740SOL    HW247279   6.963   6.274   4.722
11740SOL    HW347280   7.097   6.297   4.790
11740SOL    MW447281   7.037   6.243   4.756
11741SOL     OW47282   5.672   5.830   3.769
11741SOL    HW247283   5.639   5.909   3.813
11741SOL    HW347284   5.727   5.863   3.698
11741SOL    MW447285   5.675   5.844   3.766
11742SOL     OW47286   5.706   7.087   3.958
11742SOL    HW247287   5.723   7.171   4.000
11742SOL    HW347288   5.741   7.096   3.870
11742SOL    MW447289   5.711   7.100   3.952
11743SOL     OW47290   6.978   7.176   4.175
11743SOL    HW247291   7.041   7.166   4.104
11743SOL    HW347292   6.895   7.196   4.130
11743SOL    MW447293   6.975   7.177   4.160
11744SOL     OW47294   7.341   6.444   5.862
11744SOL    HW247295   7.382   6.386   5.927
11744SOL    HW347296   7.248   6.436   5.879
11744SOL    MW447297   7.335   6.436   5.872
11745SOL     OW47298   6.135   6.627   6.091
11745SOL    HW247299   6.225   6.602   6.075
11745SOL    HW347300   6.131   6.720   6.068
11745SOL    MW447301   6.147   6.636   6.086
11746SOL     OW47302   7.251   7.330   6.233
11746SOL    HW247303   7.263   7.276   6.311
11746SOL    HW347304   7.288   7.278   6.162
11746SOL    MW447305   7.257   7.315   6.234
11747SOL     OW47306   6.419   6.083   6.104
11747SOL    HW247307   6.394   6.171   6.132
11747SOL    HW347308   6.416   6.086   6.008
11747SOL    MW447309   6.415   6.095   6.096
11748SOL     OW47310   5.861   6.111   6.032
11748SOL    HW247311   5.893   6.199   6.014
11748SOL    HW347312   5.849   6.109   6.127
11748SOL    MW447313   5.864   6.123   6.044
11749SOL     OW47314   6.260   5.866   6.119
11749SOL    HW247315   6.318   5.942   6.121
11749SOL    HW347316   6.195   5.887   6.052
11749SOL    MW447317   6.259   5.878   6.110
11750SOL     OW47318   6.347   6.793   6.294
11750SOL    HW247319   6.427   6.796   6.346
11750SOL    HW347320   6.375   6.760   6.208
11750SOL    MW447321   6.361   6.789   6.289
11751SOL     OW47322   6.124   6.297   6.285
11751SOL    HW247323   6.109   6.217   6.336
11751SOL    HW347324   6.206   6.332   6.319
11751SOL    MW447325   6.132   6.289   6.297
11752SOL     OW47326   5.709   7.383   6.441
11752SOL    HW247327   5.798   7.375   6.476
11752SOL    HW347328   5.673   7.295   6.446
11752SOL    MW447329   5.716   7.370   6.446
11753SOL     OW47330   6.974   6.775   5.810
11753SOL    HW247331   6.892   6.811   5.776
11753SOL    HW347332   7.042   6.818   5.759
11753SOL    MW447333   6.972   6.785   5.798
11754SOL     OW47334   6.535   6.554   6.286
11754SOL    HW247335   6.449   6.541   6.326
11754SOL    HW347336   6.588   6.481   6.318
11754SOL    MW447337   6.531   6.543   6.295
11755SOL     OW47338   6.526   6.916   6.003
11755SOL    HW247339   6.503   6.978   6.071
11755SOL    HW347340   6.483   6.834   6.029
11755SOL    MW447341   6.518   6.912   6.014
11756SOL     OW47342   6.023   5.889   5.971
11756SOL    HW247343   5.997   5.851   5.887
11756SOL    HW347344   5.960   5.959   5.987
11756SOL    MW447345   6.012   5.892   5.962
11757SOL     OW47346   5.858   6.850   6.008
11757SOL    HW247347   5.806   6.918   5.964
11757SOL    HW347348   5.855   6.776   5.948
11757SOL    MW447349   5.850   6.849   5.995
11758SOL     OW47350   6.520   7.313   5.786
11758SOL    HW247351   6.475   7.329   5.869
11758SOL    HW347352   6.451   7.278   5.728
11758SOL    MW447353   6.506   7.310   5.788
11759SOL     OW47354   7.455   6.086   5.761
11759SOL    HW247355   7.364   6.088   5.789
11759SOL    HW347356   7.500   6.148   5.819
11759SOL    MW447357   7.448   6.094   5.771
11760SOL     OW47358   7.200   6.689   6.111
11760SOL    HW247359   7.110   6.689   6.146
11760SOL    HW347360   7.193   6.735   6.028
11760SOL    MW447361   7.187   6.695   6.105
11761SOL     OW47362   5.741   7.204   6.735
11761SOL    HW247363   5.724   7.150   6.812
11761SOL    HW347364   5.729   7.294   6.765
11761SOL    MW447365   5.738   7.208   6.749
11762SOL     OW47366   7.107   6.667   6.503
11762SOL    HW247367   7.110   6.601   6.434
11762SOL    HW347368   7.192   6.710   6.499
11762SOL    MW447369   7.119   6.663   6.494
11763SOL     OW47370   6.727   6.270   6.072
11763SOL    HW247371   6.753   6.294   5.983
11763SOL    HW347372   6.709   6.177   6.068
11763SOL    MW447373   6.729   6.262   6.059
11764SOL     OW47374   7.392   6.890   5.923
11764SOL    HW247375   7.348   6.931   5.998
11764SOL    HW347376   7.449   6.958   5.888
11764SOL    MW447377   7.394   6.904   5.928
11765SOL     OW47378   6.048   7.306   6.241
11765SOL    HW247379   6.080   7.394   6.219
11765SOL    HW347380   6.001   7.278   6.163
11765SOL    MW447381   6.047   7.314   6.228
11766SOL     OW47382   7.432   5.668   6.290
11766SOL    HW247383   7.486   5.619   6.352
11766SOL    HW347384   7.375   5.602   6.251
11766SOL    MW447385   7.432   5.652   6.292
11767SOL     OW47386   7.168   7.174   5.789
11767SOL    HW247387   7.216   7.243   5.835
11767SOL    HW347388   7.089   7.218   5.758
11767SOL    MW447389   7.163   7.188   5.792
11768SOL     OW47390   6.566   6.299   5.733
11768SOL    HW247391   6.568   6.246   5.654
11768SOL    HW347392   6.654   6.336   5.739
11768SOL    MW447393   6.578   6.298   5.722
11769SOL     OW47394   7.180   6.225   6.069
11769SOL    HW247395   7.219   6.225   6.156
11769SOL    HW347396   7.121   6.301   6.069
11769SOL    MW447397   7.177   6.236   6.080
11770SOL     OW47398   7.367   6.111   6.235
11770SOL    HW247399   7.456   6.080   6.252
11770SOL    HW347400   7.310   6.051   6.283
11770SOL    MW447401   7.370   6.099   6.244
11771SOL     OW47402   5.793   5.825   6.264
11771SOL    HW247403   5.784   5.765   6.190
11771SOL    HW347404   5.726   5.796   6.327
11771SOL    MW447405   5.783   5.812   6.262
11772SOL     OW47406   6.736   6.918   5.825
11772SOL    HW247407   6.686   6.920   5.907
11772SOL    HW347408   6.670   6.936   5.757
11772SOL    MW447409   6.722   6.920   5.827
11773SOL     OW47410   5.740   5.998   6.627
11773SOL    HW247411   5.712   6.089   6.636
11773SOL    HW347412   5.677   5.959   6.566
11773SOL    MW447413   5.727   6.004   6.621
11774SOL     OW47414   6.199   7.336   5.933
11774SOL    HW247415   6.120   7.294   5.966
11774SOL    HW347416   6.265   7.319   6.000
11774SOL    MW447417   6.198   7.328   5.946
11775SOL     OW47418   6.335   6.751   5.640
11775SOL    HW247419   6.257   6.697   5.627
11775SOL    HW347420   6.306   6.824   5.693
11775SOL    MW447421   6.321   6.753   5.645
11776SOL     OW47422   6.916   7.267   5.708
11776SOL    HW247423   6.842   7.230   5.758
11776SOL    HW347424   6.924   7.357   5.741
11776SOL    MW447425   6.907   7.274   5.720
11777SOL     OW47426   7.140   6.941   5.650
11777SOL    HW247427   7.087   6.990   5.586
11777SOL    HW347428   7.171   7.007   5.711
11777SOL    MW447429   7.138   6.955   5.648
11778SOL     OW47430   6.365   5.830   5.705
11778SOL    HW247431   6.313   5.750   5.693
11778SOL    HW347432   6.452   5.807   5.673
11778SOL    MW447433   6.368   5.816   5.699
11779SOL     OW47434   5.871   6.701   6.756
11779SOL    HW247435   5.924   6.776   6.781
11779SOL    HW347436   5.790   6.739   6.722
11779SOL    MW447437   5.867   6.716   6.756
11780SOL     OW47438   5.726   6.470   6.162
11780SOL    HW247439   5.817   6.485   6.189
11780SOL    HW347440   5.729   6.391   6.108
11780SOL    MW447441   5.738   6.462   6.160
11781SOL     OW47442   5.734   7.082   6.201
11781SOL    HW247443   5.706   7.121   6.283
11781SOL    HW347444   5.754   6.991   6.223
11781SOL    MW447445   5.732   7.074   6.214
11782SOL     OW47446   6.567   7.125   6.236
11782SOL    HW247447   6.650   7.079   6.220
11782SOL    HW347448   6.557   7.124   6.332
11782SOL    MW447449   6.577   7.118   6.246
11783SOL     OW47450   7.399   6.270   6.550
11783SOL    HW247451   7.488   6.300   6.532
11783SOL    HW347452   7.379   6.210   6.479
11783SOL    MW447453   7.408   6.267   6.539
11784SOL     OW47454   6.300   7.182   5.641
11784SOL    HW247455   6.240   7.251   5.611
11784SOL    HW347456   6.245   7.124   5.694
11784SOL    MW447457   6.284   7.184   5.643
11785SOL     OW47458   6.738   5.827   5.864
11785SOL    HW247459   6.671   5.803   5.801
11785SOL    HW347460   6.803   5.876   5.813
11785SOL    MW447461   6.738   5.829   5.849
11786SOL     OW47462   6.257   6.544   6.376
11786SOL    HW247463   6.168   6.535   6.409
11786SOL    HW347464   6.261   6.634   6.344
11786SOL    MW447465   6.246   6.555   6.376
11787SOL     OW47466   7.056   6.127   6.371
11787SOL    HW247467   7.001   6.048   6.370
11787SOL    HW347468   7.038   6.168   6.455
11787SOL    MW447469   7.046   6.122   6.380
11788SOL     OW47470   6.675   6.331   6.328
11788SOL    HW247471   6.612   6.263   6.352
11788SOL    HW347472   6.695   6.312   6.236
11788SOL    MW447473   6.669   6.318   6.320
11789SOL     OW47474   5.931   7.226   6.030
11789SOL    HW247475   5.892   7.273   5.956
11789SOL    HW347476   5.865   7.161   6.055
11789SOL    MW447477   5.918   7.224   6.024
11790SOL     OW47478   6.423   6.635   6.054
11790SOL    HW247479   6.425   6.609   5.961
11790SOL    HW347480   6.481   6.572   6.097
11790SOL    MW447481   6.431   6.624   6.048
11791SOL     OW47482   6.980   7.403   6.256
11791SOL    HW247483   6.923   7.356   6.195
11791SOL    HW347484   7.066   7.364   6.243
11791SOL    MW447485   6.983   7.394   6.246
11792SOL     OW47486   6.933   5.879   6.387
11792SOL    HW247487   6.961   5.811   6.448
11792SOL    HW347488   6.847   5.850   6.357
11792SOL    MW447489   6.926   5.866   6.391
11793SOL     OW47490   5.738   6.813   6.321
11793SOL    HW247491   5.802   6.845   6.384
11793SOL    HW347492   5.787   6.749   6.269
11793SOL    MW447493   5.753   6.809   6.322
11794SOL     OW47494   6.913   5.983   5.722
11794SOL    HW247495   6.886   6.049   5.658
11794SOL    HW347496   6.983   6.026   5.772
11794SOL    MW447497   6.918   5.996   5.719
11795SOL     OW47498   6.581   5.688   5.659
11795SOL    HW247499   6.637   5.680   5.581
11795SOL    HW347500   6.558   5.598   5.681
11795SOL    MW447501   6.586   5.675   5.652
11796SOL     OW47502   7.086   6.539   5.864
11796SOL    HW247503   7.053   6.628   5.854
11796SOL    HW347504   7.051   6.510   5.949
11796SOL    MW447505   7.076   6.548   5.875
11797SOL     OW47506   6.080   6.577   5.656
11797SOL    HW247507   6.003   6.590   5.712
11797SOL    HW347508   6.044   6.541   5.575
11797SOL    MW447509   6.066   6.573   5.653
11798SOL     OW47510   6.733   6.550   5.899
11798SOL    HW247511   6.643   6.571   5.874
11798SOL    HW347512   6.760   6.623   5.955
11798SOL    MW447513   6.725   6.562   5.902
11799SOL     OW47514   6.362   5.666   6.306
11799SOL    HW247515   6.291   5.727   6.288
11799SOL    HW347516   6.413   5.663   6.225
11799SOL    MW447517   6.358   5.672   6.293
11800SOL     OW47518   6.120   6.906   6.055
11800SOL    HW247519   6.113   6.938   6.145
11800SOL    HW347520   6.030   6.890   6.027
11800SOL    MW447521   6.108   6.908   6.062
11801SOL     OW47522   6.829   7.264   6.454
11801SOL    HW247523   6.876   7.337   6.413
11801SOL    HW347524   6.750   7.303   6.490
11801SOL    MW447525   6.824   7.279   6.453
11802SOL     OW47526   6.123   6.190   5.769
11802SOL    HW247527   6.089   6.246   5.839
11802SOL    HW347528   6.194   6.140   5.809
11802SOL    MW447529   6.129   6.191   5.783
11803SOL     OW47530   7.219   6.941   6.591
11803SOL    HW247531   7.254   6.923   6.504
11803SOL    HW347532   7.124   6.942   6.578
11803SOL    MW447533   7.211   6.938   6.578
11804SOL     OW47534   7.179   6.076   5.833
11804SOL    HW247535   7.171   6.147   5.770
11804SOL    HW347536   7.197   6.120   5.916
11804SOL    MW447537   7.180   6.090   5.835
11805SOL     OW47538   6.039   5.731   6.262
11805SOL    HW247539   6.089   5.774   6.193
11805SOL    HW347540   5.954   5.775   6.262
11805SOL    MW447541   6.036   5.744   6.253
11806SOL     OW47542   6.848   6.338   5.808
11806SOL    HW247543   6.895   6.356   5.727
11806SOL    HW347544   6.814   6.422   5.836
11806SOL    MW447545   6.850   6.352   5.801
11807SOL     OW47546   5.961   6.516   6.302
11807SOL    HW247547   6.019   6.572   6.250
11807SOL    HW347548   6.005   6.431   6.304
11807SOL    MW447549   5.974   6.513   6.295
11808SOL     OW47550   7.101   5.868   6.139
11808SOL    HW247551   7.023   5.818   6.164
11808SOL    HW347552   7.072   5.959   6.139
11808SOL    MW447553   7.087   5.872   6.142
11809SOL     OW47554   6.687   5.830   6.298
11809SOL    HW247555   6.707   5.905   6.242
11809SOL    HW347556   6.667   5.869   6.383
11809SOL    MW447557   6.688   5.846   6.302
11810SOL     OW47558   6.583   7.080   5.630
11810SOL    HW247559   6.610   7.158   5.582
11810SOL    HW347560   6.490   7.095   5.649
11810SOL    MW447561   6.574   7.093   5.626
11811SOL     OW47562   5.668   7.116   6.474
11811SOL    HW247563   5.700   7.120   6.565
11811SOL    HW347564   5.573   7.124   6.482
11811SOL    MW447565   5.660   7.119   6.487
11812SOL     OW47566   5.623   6.242   6.021
11812SOL    HW247567   5.563   6.214   6.091
11812SOL    HW347568   5.697   6.182   6.027
11812SOL    MW447569   5.625   6.231   6.030
11813SOL     OW47570   6.791   6.973   6.181
11813SOL    HW247571   6.814   6.924   6.259
11813SOL    HW347572   6.872   7.015   6.153
11813SOL    MW447573   6.804   6.973   6.188
11814SOL     OW47574   7.475   6.768   6.678
11814SOL    HW247575   7.468   6.708   6.603
11814SOL    HW347576   7.401   6.828   6.667
11814SOL    MW447577   7.465   6.768   6.667
11815SOL     OW47578   6.931   5.640   5.817
11815SOL    HW247579   7.005   5.684   5.860
11815SOL    HW347580   6.855   5.694   5.839
11815SOL    MW447581   6.931   5.652   5.825
11816SOL     OW47582   6.991   6.415   6.095
11816SOL    HW247583   6.906   6.385   6.065
11816SOL    HW347584   6.983   6.422   6.190
11816SOL    MW447585   6.979   6.413   6.104
11817SOL     OW47586   6.364   6.081   5.821
11817SOL    HW247587   6.437   6.130   5.784
11817SOL    HW347588   6.380   5.990   5.795
11817SOL    MW447589   6.376   6.076   5.814
11818SOL     OW47590   5.839   6.590   5.919
11818SOL    HW247591   5.776   6.606   5.848
11818SOL    HW347592   5.786   6.553   5.990
11818SOL    MW447593   5.824   6.587   5.919
11819SOL     OW47594   6.195   6.944   5.778
11819SOL    HW247595   6.210   6.920   5.870
11819SOL    HW347596   6.103   6.922   5.762
11819SOL    MW447597   6.185   6.937   5.788
11820SOL     OW47598   6.734   7.175   5.930
11820SOL    HW247599   6.742   7.093   5.881
11820SOL    HW347600   6.653   7.214   5.897
11820SOL    MW447601   6.724   7.170   5.920
11821SOL     OW47602   6.070   6.056   6.376
11821SOL    HW247603   6.141   6.004   6.339
11821SOL    HW347604   6.056   6.021   6.463
11821SOL    MW447605   6.078   6.045   6.383
11822SOL     OW47606   6.706   5.997   6.100
11822SOL    HW247607   6.728   5.934   6.032
11822SOL    HW347608   6.611   5.989   6.111
11822SOL    MW447609   6.696   5.988   6.092
11823SOL     OW47610   5.791   5.687   6.032
11823SOL    HW247611   5.862   5.708   5.971
11823SOL    HW347612   5.745   5.615   5.990
11823SOL    MW447613   5.795   5.681   6.018
11824SOL     OW47614   7.360   7.061   6.132
11824SOL    HW247615   7.330   6.994   6.193
11824SOL    HW347616   7.454   7.067   6.146
11824SOL    MW447617   7.368   7.053   6.142
11825SOL     OW47618   6.916   6.738   6.062
11825SOL    HW247619   6.888   6.824   6.095
11825SOL    HW347620   6.944   6.754   5.972
11825SOL    MW447621   6.916   6.752   6.054
11826SOL     OW47622   6.578   5.658   6.115
11826SOL    HW247623   6.615   5.717   6.180
11826SOL    HW347624   6.555   5.714   6.041
11826SOL    MW447625   6.579   5.673   6.114
11827SOL     OW47626   7.431   6.540   6.537
11827SOL    HW247627   7.422   6.572   6.448
11827SOL    HW347628   7.384   6.456   6.537
11827SOL    MW447629   7.424   6.533   6.527
11828SOL     OW47630   7.343   6.471   6.238
11828SOL    HW247631   7.437   6.460   6.226
11828SOL    HW347632   7.319   6.543   6.179
11828SOL    MW447633   7.353   6.479   6.229
11829SOL     OW47634   5.999   6.349   6.011
11829SOL    HW247635   5.999   6.444   5.996
11829SOL    HW347636   6.076   6.333   6.065
11829SOL    MW447637   6.009   6.360   6.016
11830SOL     OW47638   5.758   6.080   6.300
11830SOL    HW247639   5.820   6.087   6.373
11830SOL    HW347640   5.758   5.987   6.277
11830SOL    MW447641   5.766   6.069   6.307
11831SOL     OW47642   5.627   6.652   5.758
11831SOL    HW247643   5.596   6.717   5.821
11831SOL    HW347644   5.576   6.574   5.777
11831SOL    MW447645   5.617   6.649   5.768
11832SOL     OW47646   7.039   5.664   6.506
11832SOL    HW247647   7.127   5.673   6.543
11832SOL    HW347648   7.049   5.605   6.432
11832SOL    MW447649   7.053   5.658   6.500
11833SOL     OW47650   7.071   6.403   6.350
11833SOL    HW247651   7.151   6.418   6.299
11833SOL    HW347652   7.064   6.308   6.356
11833SOL    MW447653   7.080   6.392   6.345
11834SOL     OW47654   6.211   7.452   5.700
11834SOL    HW247655   6.116   7.452   5.692
11834SOL    HW347656   6.227   7.398   5.778
11834SOL    MW447657   6.201   7.446   5.709
11835SOL     OW47658   7.056   6.272   5.615
11835SOL    HW247659   6.984   6.248   5.557
11835SOL    HW347660   7.122   6.309   5.557
11835SOL    MW447661   7.055   6.274   5.600
11836SOL     OW47662   6.190   7.004   6.296
11836SOL    HW247663   6.255   6.937   6.317
11836SOL    HW347664   6.242   7.081   6.273
11836SOL    MW447665   6.205   7.006   6.295
11837SOL     OW47666   6.451   6.169   6.426
11837SOL    HW247667   6.391   6.187   6.498
11837SOL    HW347668   6.485   6.081   6.445
11837SOL    MW447669   6.447   6.159   6.439
11838SOL     OW47670   6.676   6.752   6.445
11838SOL    HW247671   6.768   6.733   6.463
11838SOL    HW347672   6.649   6.682   6.385
11838SOL    MW447673   6.684   6.740   6.439
11839SOL     OW47674   6.469   6.572   5.800
11839SOL    HW247675   6.455   6.484   5.765
11839SOL    HW347676   6.420   6.629   5.741
11839SOL    MW447677   6.461   6.567   5.788
11840SOL     OW47678   7.188   5.778   5.902
11840SOL    HW247679   7.181   5.782   5.997
11840SOL    HW347680   7.200   5.869   5.875
11840SOL    MW447681   7.189   5.791   5.910
11841SOL     OW47682   6.477   6.341   6.016
11841SOL    HW247683   6.457   6.327   5.923
11841SOL    HW347684   6.570   6.320   6.023
11841SOL    MW447685   6.487   6.336   6.005
11842SOL     OW47686   6.460   7.299   6.054
11842SOL    HW247687   6.518   7.370   6.081
11842SOL    HW347688   6.483   7.227   6.112
11842SOL    MW447689   6.471   7.299   6.065
11843SOL     OW47690   7.340   6.797   6.363
11843SOL    HW247691   7.319   6.743   6.286
11843SOL    HW347692   7.436   6.795   6.367
11843SOL    MW447693   7.349   6.790   6.352
11844SOL     OW47694   5.916   5.731   5.789
11844SOL    HW247695   5.845   5.786   5.757
11844SOL    HW347696   5.958   5.697   5.710
11844SOL    MW447697   5.912   5.733   5.775
11845SOL     OW47698   5.672   5.830   5.638
11845SOL    HW247699   5.639   5.909   5.682
11845SOL    HW347700   5.727   5.863   5.567
11845SOL    MW447701   5.675   5.844   5.635
11846SOL     OW47702   5.706   7.087   5.827
11846SOL    HW247703   5.723   7.171   5.869
11846SOL    HW347704   5.741   7.096   5.739
11846SOL    MW447705   5.711   7.100   5.821
11847SOL     OW47706   6.978   7.176   6.044
11847SOL    HW247707   7.041   7.166   5.973
11847SOL    HW347708   6.895   7.196   5.999
11847SOL    MW447709   6.975   7.177   6.029
11848SOL     OW47710   0.418   7.784   0.366
11848SOL    HW247711   0.392   7.746   0.282
11848SOL    HW347712   0.355   7.854   0.382
11848SOL    MW447713   0.407   7.787   0.357
11849SOL     OW47714   1.827   7.563   0.685
11849SOL    HW247715   1.881   7.514   0.747
11849SOL    HW347716   1.770   7.497   0.646
11849SOL    MW447717   1.827   7.547   0.687
11850SOL     OW47718   1.133   7.722   0.259
11850SOL    HW247719   1.066   7.698   0.196
11850SOL    HW347720   1.198   7.771   0.208
11850SOL    MW447721   1.133   7.724   0.244
11851SOL     OW47722   0.422   7.709   1.583
11851SOL    HW247723   0.343   7.727   1.635
11851SOL    HW347724   0.417   7.771   1.510
11851SOL    MW447725   0.412   7.719   1.580
11852SOL     OW47726   0.387   7.531   1.789
11852SOL    HW247727   0.315   7.496   1.737
11852SOL    HW347728   0.445   7.572   1.724
11852SOL    MW447729   0.385   7.532   1.774
11853SOL     OW47730   0.541   7.621   0.932
11853SOL    HW247731   0.551   7.530   0.958
11853SOL    HW347732   0.497   7.617   0.847
11853SOL    MW447733   0.537   7.609   0.924
11854SOL     OW47734   1.454   7.559   1.303
11854SOL    HW247735   1.525   7.505   1.267
11854SOL    HW347736   1.453   7.538   1.396
11854SOL    MW447737   1.463   7.550   1.311
11855SOL     OW47738   0.186   7.582   0.427
11855SOL    HW247739   0.257   7.603   0.366
11855SOL    HW347740   0.140   7.510   0.385
11855SOL    MW447741   0.190   7.576   0.413
11856SOL     OW47742   0.639   7.706   1.284
11856SOL    HW247743   0.570   7.769   1.305
11856SOL    HW347744   0.666   7.670   1.369
11856SOL    MW447745   0.633   7.709   1.297
11857SOL     OW47746   1.583   7.673   0.297
11857SOL    HW247747   1.576   7.677   0.392
11857SOL    HW347748   1.595   7.764   0.270
11857SOL    MW447749   1.584   7.686   0.305
11858SOL     OW47750   0.418   7.784   2.234
11858SOL    HW247751   0.392   7.746   2.150
11858SOL    HW347752   0.355   7.854   2.250
11858SOL    MW447753   0.407   7.787   2.225
11859SOL     OW47754   1.827   7.563   2.553
11859SOL    HW247755   1.881   7.514   2.615
11859SOL    HW347756   1.770   7.497   2.514
11859SOL    MW447757   1.827   7.547   2.555
11860SOL     OW47758   0.422   7.709   3.451
11860SOL    HW247759   0.343   7.727   3.503
11860SOL    HW347760   0.417   7.771   3.378
11860SOL    MW447761   0.412   7.719   3.448
11861SOL     OW47762   0.387   7.531   3.657
11861SOL    HW247763   0.315   7.496   3.605
11861SOL    HW347764   0.445   7.572   3.592
11861SOL    MW447765   0.385   7.532   3.642
11862SOL     OW47766   0.541   7.621   2.800
11862SOL    HW247767   0.551   7.530   2.826
11862SOL    HW347768   0.497   7.617   2.715
11862SOL    MW447769   0.537   7.609   2.792
11863SOL     OW47770   1.326   7.535   2.080
11863SOL    HW247771   1.400   7.579   2.123
11863SOL    HW347772   1.250   7.589   2.102
11863SOL    MW447773   1.326   7.547   2.088
11864SOL     OW47774   1.454   7.559   3.171
11864SOL    HW247775   1.525   7.505   3.135
11864SOL    HW347776   1.453   7.538   3.264
11864SOL    MW447777   1.463   7.550   3.179
11865SOL     OW47778   0.186   7.582   2.295
11865SOL    HW247779   0.257   7.603   2.234
11865SOL    HW347780   0.140   7.510   2.253
11865SOL    MW447781   0.190   7.576   2.281
11866SOL     OW47782   0.639   7.706   3.152
11866SOL    HW247783   0.570   7.769   3.173
11866SOL    HW347784   0.666   7.670   3.237
11866SOL    MW447785   0.633   7.709   3.165
11867SOL     OW47786   0.311   7.626   2.052
11867SOL    HW247787   0.240   7.681   2.020
11867SOL    HW347788   0.353   7.592   1.973
11867SOL    MW447789   0.307   7.628   2.038
11868SOL     OW47790   0.067   7.725   1.901
11868SOL    HW247791   0.034   7.804   1.945
11868SOL    HW347792   0.122   7.758   1.830
11868SOL    MW447793   0.070   7.739   1.898
11869SOL     OW47794   0.418   7.784   4.102
11869SOL    HW247795   0.392   7.746   4.018
11869SOL    HW347796   0.355   7.854   4.118
11869SOL    MW447797   0.407   7.787   4.093
11870SOL     OW47798   1.827   7.563   4.421
11870SOL    HW247799   1.881   7.514   4.483
11870SOL    HW347800   1.770   7.497   4.382
11870SOL    MW447801   1.827   7.547   4.423
11871SOL     OW47802   0.422   7.709   5.319
11871SOL    HW247803   0.343   7.727   5.371
11871SOL    HW347804   0.417   7.771   5.246
11871SOL    MW447805   0.412   7.719   5.316
11872SOL     OW47806   0.387   7.531   5.525
11872SOL    HW247807   0.315   7.496   5.473
11872SOL    HW347808   0.445   7.572   5.460
11872SOL    MW447809   0.385   7.532   5.510
11873SOL     OW47810   0.541   7.621   4.668
11873SOL    HW247811   0.551   7.530   4.694
11873SOL    HW347812   0.497   7.617   4.583
11873SOL    MW447813   0.537   7.609   4.660
11874SOL     OW47814   1.326   7.535   3.948
11874SOL    HW247815   1.400   7.579   3.991
11874SOL    HW347816   1.250   7.589   3.970
11874SOL    MW447817   1.326   7.547   3.956
11875SOL     OW47818   1.454   7.559   5.039
11875SOL    HW247819   1.525   7.505   5.003
11875SOL    HW347820   1.453   7.538   5.132
11875SOL    MW447821   1.463   7.550   5.047
11876SOL     OW47822   0.186   7.582   4.163
11876SOL    HW247823   0.257   7.603   4.102
11876SOL    HW347824   0.140   7.510   4.121
11876SOL    MW447825   0.190   7.576   4.149
11877SOL     OW47826   0.639   7.706   5.020
11877SOL    HW247827   0.570   7.769   5.041
11877SOL    HW347828   0.666   7.670   5.105
11877SOL    MW447829   0.633   7.709   5.033
11878SOL     OW47830   0.311   7.626   3.920
11878SOL    HW247831   0.240   7.681   3.888
11878SOL    HW347832   0.353   7.592   3.841
11878SOL    MW447833   0.307   7.628   3.906
11879SOL     OW47834   0.067   7.725   3.769
11879SOL    HW247835   0.034   7.804   3.813
11879SOL    HW347836   0.122   7.758   3.698
11879SOL    MW447837   0.070   7.739   3.766
11880SOL     OW47838   0.418   7.784   5.971
11880SOL    HW247839   0.392   7.746   5.887
11880SOL    HW347840   0.355   7.854   5.987
11880SOL    MW447841   0.407   7.787   5.962
11881SOL     OW47842   1.827   7.563   6.290
11881SOL    HW247843   1.881   7.514   6.352
11881SOL    HW347844   1.770   7.497   6.251
11881SOL    MW447845   1.827   7.547   6.292
11882SOL     OW47846   0.541   7.621   6.537
11882SOL    HW247847   0.551   7.530   6.563
11882SOL    HW347848   0.497   7.617   6.452
11882SOL    MW447849   0.537   7.609   6.529
11883SOL     OW47850   1.326   7.535   5.817
11883SOL    HW247851   1.400   7.579   5.860
11883SOL    HW347852   1.250   7.589   5.839
11883SOL    MW447853   1.326   7.547   5.825
11884SOL     OW47854   0.186   7.582   6.032
11884SOL    HW247855   0.257   7.603   5.971
11884SOL    HW347856   0.140   7.510   5.990
11884SOL    MW447857   0.190   7.576   6.018
11885SOL     OW47858   0.311   7.626   5.789
11885SOL    HW247859   0.240   7.681   5.757
11885SOL    HW347860   0.353   7.592   5.710
11885SOL    MW447861   0.307   7.628   5.775
11886SOL     OW47862   0.067   7.725   5.638
11886SOL    HW247863   0.034   7.804   5.682
11886SOL    HW347864   0.122   7.758   5.567
11886SOL    MW447865   0.070   7.739   5.635
11887SOL     OW47866   2.523   7.761   0.514
11887SOL    HW247867   2.581   7.837   0.516
11887SOL    HW347868   2.458   7.782   0.447
11887SOL    MW447869   2.522   7.773   0.505
11888SOL     OW47870   2.286   7.784   0.366
11888SOL    HW247871   2.260   7.746   0.282
11888SOL    HW347872   2.223   7.854   0.382
11888SOL    MW447873   2.275   7.787   0.357
11889SOL     OW47874   2.575   7.834   1.721
11889SOL    HW247875   2.585   7.760   1.661
11889SOL    HW347876   2.611   7.803   1.804
11889SOL    MW447877   2.581   7.820   1.723
11890SOL     OW47878   2.611   7.623   1.518
11890SOL    HW247879   2.588   7.531   1.520
11890SOL    HW347880   2.697   7.625   1.475
11890SOL    MW447881   2.618   7.613   1.514
11891SOL     OW47882   2.290   7.709   1.583
11891SOL    HW247883   2.211   7.727   1.635
11891SOL    HW347884   2.285   7.771   1.510
11891SOL    MW447885   2.280   7.719   1.580
11892SOL     OW47886   2.844   7.583   0.054
11892SOL    HW247887   2.900   7.575  -0.024
11892SOL    HW347888   2.821   7.493   0.076
11892SOL    MW447889   2.849   7.570   0.047
11893SOL     OW47890   2.255   7.531   1.789
11893SOL    HW247891   2.183   7.496   1.737
11893SOL    HW347892   2.313   7.572   1.724
11893SOL    MW447893   2.253   7.532   1.774
11894SOL     OW47894   2.625   7.561   0.701
11894SOL    HW247895   2.554   7.622   0.683
11894SOL    HW347896   2.676   7.558   0.620
11894SOL    MW447897   2.621   7.567   0.688
11895SOL     OW47898   2.266   7.843   1.041
11895SOL    HW247899   2.296   7.757   1.012
11895SOL    HW347900   2.171   7.836   1.044
11895SOL    MW447901   2.258   7.832   1.039
11896SOL     OW47902   2.409   7.621   0.932
11896SOL    HW247903   2.419   7.530   0.958
11896SOL    HW347904   2.365   7.617   0.847
11896SOL    MW447905   2.405   7.609   0.924
11897SOL     OW47906   3.194   7.535   0.212
11897SOL    HW247907   3.268   7.579   0.255
11897SOL    HW347908   3.118   7.589   0.234
11897SOL    MW447909   3.194   7.547   0.220
11898SOL     OW47910   2.614   7.753   1.044
11898SOL    HW247911   2.587   7.755   1.135
11898SOL    HW347912   2.544   7.705   0.999
11898SOL    MW447913   2.602   7.749   1.051
11899SOL     OW47914   2.054   7.582   0.427
11899SOL    HW247915   2.125   7.603   0.366
11899SOL    HW347916   2.008   7.510   0.385
11899SOL    MW447917   2.058   7.576   0.413
11900SOL     OW47918   2.507   7.706   1.284
11900SOL    HW247919   2.438   7.769   1.305
11900SOL    HW347920   2.534   7.670   1.369
11900SOL    MW447921   2.501   7.709   1.297
11901SOL     OW47922   3.451   7.673   0.297
11901SOL    HW247923   3.444   7.677   0.392
11901SOL    HW347924   3.463   7.764   0.270
11901SOL    MW447925   3.452   7.686   0.305
11902SOL     OW47926   2.523   7.761   2.382
11902SOL    HW247927   2.581   7.837   2.384
11902SOL    HW347928   2.458   7.782   2.315
11902SOL    MW447929   2.522   7.773   2.373
11903SOL     OW47930   2.286   7.784   2.234
11903SOL    HW247931   2.260   7.746   2.150
11903SOL    HW347932   2.223   7.854   2.250
11903SOL    MW447933   2.275   7.787   2.225
11904SOL     OW47934   2.575   7.834   3.589
11904SOL    HW247935   2.585   7.760   3.529
11904SOL    HW347936   2.611   7.803   3.672
11904SOL    MW447937   2.581   7.820   3.591
11905SOL     OW47938   2.611   7.623   3.386
11905SOL    HW247939   2.588   7.531   3.388
11905SOL    HW347940   2.697   7.625   3.343
11905SOL    MW447941   2.618   7.613   3.382
11906SOL     OW47942   2.290   7.709   3.451
11906SOL    HW247943   2.211   7.727   3.503
11906SOL    HW347944   2.285   7.771   3.378
11906SOL    MW447945   2.280   7.719   3.448
11907SOL     OW47946   2.844   7.583   1.922
11907SOL    HW247947   2.900   7.575   1.844
11907SOL    HW347948   2.821   7.493   1.944
11907SOL    MW447949   2.849   7.570   1.915
11908SOL     OW47950   2.255   7.531   3.657
11908SOL    HW247951   2.183   7.496   3.605
11908SOL    HW347952   2.313   7.572   3.592
11908SOL    MW447953   2.253   7.532   3.642
11909SOL     OW47954   2.625   7.561   2.569
11909SOL    HW247955   2.554   7.622   2.551
11909SOL    HW347956   2.676   7.558   2.488
11909SOL    MW447957   2.621   7.567   2.556
11910SOL     OW47958   2.266   7.843   2.909
11910SOL    HW247959   2.296   7.757   2.880
11910SOL    HW347960   2.171   7.836   2.912
11910SOL    MW447961   2.258   7.832   2.907
11911SOL     OW47962   2.409   7.621   2.800
11911SOL    HW247963   2.419   7.530   2.826
11911SOL    HW347964   2.365   7.617   2.715
11911SOL    MW447965   2.405   7.609   2.792
11912SOL     OW47966   3.194   7.535   2.080
11912SOL    HW247967   3.268   7.579   2.123
11912SOL    HW347968   3.118   7.589   2.102
11912SOL    MW447969   3.194   7.547   2.088
11913SOL     OW47970   2.614   7.753   2.912
11913SOL    HW247971   2.587   7.755   3.003
11913SOL    HW347972   2.544   7.705   2.867
11913SOL    MW447973   2.602   7.749   2.919
11914SOL     OW47974   2.054   7.582   2.295
11914SOL    HW247975   2.125   7.603   2.234
11914SOL    HW347976   2.008   7.510   2.253
11914SOL    MW447977   2.058   7.576   2.281
11915SOL     OW47978   2.507   7.706   3.152
11915SOL    HW247979   2.438   7.769   3.173
11915SOL    HW347980   2.534   7.670   3.237
11915SOL    MW447981   2.501   7.709   3.165
11916SOL     OW47982   3.451   7.673   2.165
11916SOL    HW247983   3.444   7.677   2.260
11916SOL    HW347984   3.463   7.764   2.138
11916SOL    MW447985   3.452   7.686   2.173
11917SOL     OW47986   2.179   7.626   2.052
11917SOL    HW247987   2.108   7.681   2.020
11917SOL    HW347988   2.221   7.592   1.973
11917SOL    MW447989   2.175   7.628   2.038
11918SOL     OW47990   1.935   7.725   1.901
11918SOL    HW247991   1.902   7.804   1.945
11918SOL    HW347992   1.990   7.758   1.830
11918SOL    MW447993   1.938   7.739   1.898
11919SOL     OW47994   2.523   7.761   4.250
11919SOL    HW247995   2.581   7.837   4.252
11919SOL    HW347996   2.458   7.782   4.183
11919SOL    MW447997   2.522   7.773   4.241
11920SOL     OW47998   2.286   7.784   4.102
11920SOL    HW247999   2.260   7.746   4.018
11920SOL    HW348000   2.223   7.854   4.118
11920SOL    MW448001   2.275   7.787   4.093
11921SOL     OW48002   2.575   7.834   5.457
11921SOL    HW248003   2.585   7.760   5.397
11921SOL    HW348004   2.611   7.803   5.540
11921SOL    MW448005   2.581   7.820   5.459
11922SOL     OW48006   2.611   7.623   5.254
11922SOL    HW248007   2.588   7.531   5.256
11922SOL    HW348008   2.697   7.625   5.211
11922SOL    MW448009   2.618   7.613   5.250
11923SOL     OW48010   2.290   7.709   5.319
11923SOL    HW248011   2.211   7.727   5.371
11923SOL    HW348012   2.285   7.771   5.246
11923SOL    MW448013   2.280   7.719   5.316
11924SOL     OW48014   2.844   7.583   3.790
11924SOL    HW248015   2.900   7.575   3.712
11924SOL    HW348016   2.821   7.493   3.812
11924SOL    MW448017   2.849   7.570   3.783
11925SOL     OW48018   2.255   7.531   5.525
11925SOL    HW248019   2.183   7.496   5.473
11925SOL    HW348020   2.313   7.572   5.460
11925SOL    MW448021   2.253   7.532   5.510
11926SOL     OW48022   2.625   7.561   4.437
11926SOL    HW248023   2.554   7.622   4.419
11926SOL    HW348024   2.676   7.558   4.356
11926SOL    MW448025   2.621   7.567   4.424
11927SOL     OW48026   2.266   7.843   4.777
11927SOL    HW248027   2.296   7.757   4.748
11927SOL    HW348028   2.171   7.836   4.780
11927SOL    MW448029   2.258   7.832   4.775
11928SOL     OW48030   2.409   7.621   4.668
11928SOL    HW248031   2.419   7.530   4.694
11928SOL    HW348032   2.365   7.617   4.583
11928SOL    MW448033   2.405   7.609   4.660
11929SOL     OW48034   3.194   7.535   3.948
11929SOL    HW248035   3.268   7.579   3.991
11929SOL    HW348036   3.118   7.589   3.970
11929SOL    MW448037   3.194   7.547   3.956
11930SOL     OW48038   2.614   7.753   4.780
11930SOL    HW248039   2.587   7.755   4.871
11930SOL    HW348040   2.544   7.705   4.735
11930SOL    MW448041   2.602   7.749   4.787
11931SOL     OW48042   2.054   7.582   4.163
11931SOL    HW248043   2.125   7.603   4.102
11931SOL    HW348044   2.008   7.510   4.121
11931SOL    MW448045   2.058   7.576   4.149
11932SOL     OW48046   2.507   7.706   5.020
11932SOL    HW248047   2.438   7.769   5.041
11932SOL    HW348048   2.534   7.670   5.105
11932SOL    MW448049   2.501   7.709   5.033
11933SOL     OW48050   3.451   7.673   4.033
11933SOL    HW248051   3.444   7.677   4.128
11933SOL    HW348052   3.463   7.764   4.006
11933SOL    MW448053   3.452   7.686   4.041
11934SOL     OW48054   2.179   7.626   3.920
11934SOL    HW248055   2.108   7.681   3.888
11934SOL    HW348056   2.221   7.592   3.841
11934SOL    MW448057   2.175   7.628   3.906
11935SOL     OW48058   1.935   7.725   3.769
11935SOL    HW248059   1.902   7.804   3.813
11935SOL    HW348060   1.990   7.758   3.698
11935SOL    MW448061   1.938   7.739   3.766
11936SOL     OW48062   2.523   7.761   6.119
11936SOL    HW248063   2.581   7.837   6.121
11936SOL    HW348064   2.458   7.782   6.052
11936SOL    MW448065   2.522   7.773   6.110
11937SOL     OW48066   2.286   7.784   5.971
11937SOL    HW248067   2.260   7.746   5.887
11937SOL    HW348068   2.223   7.854   5.987
11937SOL    MW448069   2.275   7.787   5.962
11938SOL     OW48070   2.844   7.583   5.659
11938SOL    HW248071   2.900   7.575   5.581
11938SOL    HW348072   2.821   7.493   5.681
11938SOL    MW448073   2.849   7.570   5.652
11939SOL     OW48074   2.625   7.561   6.306
11939SOL    HW248075   2.554   7.622   6.288
11939SOL    HW348076   2.676   7.558   6.225
11939SOL    MW448077   2.621   7.567   6.293
11940SOL     OW48078   2.409   7.621   6.537
11940SOL    HW248079   2.419   7.530   6.563
11940SOL    HW348080   2.365   7.617   6.452
11940SOL    MW448081   2.405   7.609   6.529
11941SOL     OW48082   3.194   7.535   5.817
11941SOL    HW248083   3.268   7.579   5.860
11941SOL    HW348084   3.118   7.589   5.839
11941SOL    MW448085   3.194   7.547   5.825
11942SOL     OW48086   2.054   7.582   6.032
11942SOL    HW248087   2.125   7.603   5.971
11942SOL    HW348088   2.008   7.510   5.990
11942SOL    MW448089   2.058   7.576   6.018
11943SOL     OW48090   3.451   7.673   5.902
11943SOL    HW248091   3.444   7.677   5.997
11943SOL    HW348092   3.463   7.764   5.875
11943SOL    MW448093   3.452   7.686   5.910
11944SOL     OW48094   2.179   7.626   5.789
11944SOL    HW248095   2.108   7.681   5.757
11944SOL    HW348096   2.221   7.592   5.710
11944SOL    MW448097   2.175   7.628   5.775
11945SOL     OW48098   1.935   7.725   5.638
11945SOL    HW248099   1.902   7.804   5.682
11945SOL    HW348100   1.990   7.758   5.567
11945SOL    MW448101   1.938   7.739   5.635
11946SOL     OW48102   4.443   7.834   1.721
11946SOL    HW248103   4.453   7.760   1.661
11946SOL    HW348104   4.479   7.803   1.804
11946SOL    MW448105   4.449   7.820   1.723
11947SOL     OW48106   4.712   7.583   0.054
11947SOL    HW248107   4.768   7.575  -0.024
11947SOL    HW348108   4.689   7.493   0.076
11947SOL    MW448109   4.717   7.570   0.047
11948SOL     OW48110   4.134   7.843   1.041
11948SOL    HW248111   4.164   7.757   1.012
11948SOL    HW348112   4.039   7.836   1.044
11948SOL    MW448113   4.126   7.832   1.039
11949SOL     OW48114   5.062   7.535   0.212
11949SOL    HW248115   5.136   7.579   0.255
11949SOL    HW348116   4.986   7.589   0.234
11949SOL    MW448117   5.062   7.547   0.220
11950SOL     OW48118   5.319   7.673   0.297
11950SOL    HW248119   5.312   7.677   0.392
11950SOL    HW348120   5.331   7.764   0.270
11950SOL    MW448121   5.320   7.686   0.305
11951SOL     OW48122   3.803   7.725   0.033
11951SOL    HW248123   3.770   7.804   0.077
11951SOL    HW348124   3.858   7.758  -0.038
11951SOL    MW448125   3.806   7.739   0.030
11952SOL     OW48126   4.443   7.834   3.589
11952SOL    HW248127   4.453   7.760   3.529
11952SOL    HW348128   4.479   7.803   3.672
11952SOL    MW448129   4.449   7.820   3.591
11953SOL     OW48130   4.712   7.583   1.922
11953SOL    HW248131   4.768   7.575   1.844
11953SOL    HW348132   4.689   7.493   1.944
11953SOL    MW448133   4.717   7.570   1.915
11954SOL     OW48134   4.134   7.843   2.909
11954SOL    HW248135   4.164   7.757   2.880
11954SOL    HW348136   4.039   7.836   2.912
11954SOL    MW448137   4.126   7.832   2.907
11955SOL     OW48138   5.062   7.535   2.080
11955SOL    HW248139   5.136   7.579   2.123
11955SOL    HW348140   4.986   7.589   2.102
11955SOL    MW448141   5.062   7.547   2.088
11956SOL     OW48142   5.319   7.673   2.165
11956SOL    HW248143   5.312   7.677   2.260
11956SOL    HW348144   5.331   7.764   2.138
11956SOL    MW448145   5.320   7.686   2.173
11957SOL     OW48146   3.803   7.725   1.901
11957SOL    HW248147   3.770   7.804   1.945
11957SOL    HW348148   3.858   7.758   1.830
11957SOL    MW448149   3.806   7.739   1.898
11958SOL     OW48150   4.443   7.834   5.457
11958SOL    HW248151   4.453   7.760   5.397
11958SOL    HW348152   4.479   7.803   5.540
11958SOL    MW448153   4.449   7.820   5.459
11959SOL     OW48154   4.712   7.583   3.790
11959SOL    HW248155   4.768   7.575   3.712
11959SOL    HW348156   4.689   7.493   3.812
11959SOL    MW448157   4.717   7.570   3.783
11960SOL     OW48158   4.134   7.843   4.777
11960SOL    HW248159   4.164   7.757   4.748
11960SOL    HW348160   4.039   7.836   4.780
11960SOL    MW448161   4.126   7.832   4.775
11961SOL     OW48162   5.062   7.535   3.948
11961SOL    HW248163   5.136   7.579   3.991
11961SOL    HW348164   4.986   7.589   3.970
11961SOL    MW448165   5.062   7.547   3.956
11962SOL     OW48166   5.319   7.673   4.033
11962SOL    HW248167   5.312   7.677   4.128
11962SOL    HW348168   5.331   7.764   4.006
11962SOL    MW448169   5.320   7.686   4.041
11963SOL     OW48170   3.803   7.725   3.769
11963SOL    HW248171   3.770   7.804   3.813
11963SOL    HW348172   3.858   7.758   3.698
11963SOL    MW448173   3.806   7.739   3.766
11964SOL     OW48174   4.712   7.583   5.659
11964SOL    HW248175   4.768   7.575   5.581
11964SOL    HW348176   4.689   7.493   5.681
11964SOL    MW448177   4.717   7.570   5.652
11965SOL     OW48178   4.134   7.843   6.646
11965SOL    HW248179   4.164   7.757   6.617
11965SOL    HW348180   4.039   7.836   6.649
11965SOL    MW448181   4.126   7.832   6.644
11966SOL     OW48182   5.062   7.535   5.817
11966SOL    HW248183   5.136   7.579   5.860
11966SOL    HW348184   4.986   7.589   5.839
11966SOL    MW448185   5.062   7.547   5.825
11967SOL     OW48186   5.319   7.673   5.902
11967SOL    HW248187   5.312   7.677   5.997
11967SOL    HW348188   5.331   7.764   5.875
11967SOL    MW448189   5.320   7.686   5.910
11968SOL     OW48190   3.803   7.725   5.638
11968SOL    HW248191   3.770   7.804   5.682
11968SOL    HW348192   3.858   7.758   5.567
11968SOL    MW448193   3.806   7.739   5.635
11969SOL     OW48194   6.260   7.761   0.514
11969SOL    HW248195   6.318   7.837   0.516
11969SOL    HW348196   6.195   7.782   0.447
11969SOL    MW448197   6.259   7.773   0.505
11970SOL     OW48198   6.312   7.834   1.721
11970SOL    HW248199   6.322   7.760   1.661
11970SOL    HW348200   6.348   7.803   1.804
11970SOL    MW448201   6.318   7.820   1.723
11971SOL     OW48202   6.003   7.843   1.041
11971SOL    HW248203   6.033   7.757   1.012
11971SOL    HW348204   5.908   7.836   1.044
11971SOL    MW448205   5.995   7.832   1.039
11972SOL     OW48206   7.188   7.673   0.297
11972SOL    HW248207   7.181   7.677   0.392
11972SOL    HW348208   7.200   7.764   0.270
11972SOL    MW448209   7.189   7.686   0.305
11973SOL     OW48210   6.312   7.834   3.589
11973SOL    HW248211   6.322   7.760   3.529
11973SOL    HW348212   6.348   7.803   3.672
11973SOL    MW448213   6.318   7.820   3.591
11974SOL     OW48214   6.581   7.583   1.922
11974SOL    HW248215   6.637   7.575   1.844
11974SOL    HW348216   6.558   7.493   1.944
11974SOL    MW448217   6.586   7.570   1.915
11975SOL     OW48218   6.003   7.843   2.909
11975SOL    HW248219   6.033   7.757   2.880
11975SOL    HW348220   5.908   7.836   2.912
11975SOL    MW448221   5.995   7.832   2.907
11976SOL     OW48222   6.931   7.535   2.080
11976SOL    HW248223   7.005   7.579   2.123
11976SOL    HW348224   6.855   7.589   2.102
11976SOL    MW448225   6.931   7.547   2.088
11977SOL     OW48226   7.188   7.673   2.165
11977SOL    HW248227   7.181   7.677   2.260
11977SOL    HW348228   7.200   7.764   2.138
11977SOL    MW448229   7.189   7.686   2.173
11978SOL     OW48230   5.672   7.725   1.901
11978SOL    HW248231   5.639   7.804   1.945
11978SOL    HW348232   5.727   7.758   1.830
11978SOL    MW448233   5.675   7.739   1.898
11979SOL     OW48234   6.312   7.834   5.457
11979SOL    HW248235   6.322   7.760   5.397
11979SOL    HW348236   6.348   7.803   5.540
11979SOL    MW448237   6.318   7.820   5.459
11980SOL     OW48238   6.581   7.583   3.790
11980SOL    HW248239   6.637   7.575   3.712
11980SOL    HW348240   6.558   7.493   3.812
11980SOL    MW448241   6.586   7.570   3.783
11981SOL     OW48242   6.003   7.843   4.777
11981SOL    HW248243   6.033   7.757   4.748
11981SOL    HW348244   5.908   7.836   4.780
11981SOL    MW448245   5.995   7.832   4.775
11982SOL     OW48246   6.931   7.535   3.948
11982SOL    HW248247   7.005   7.579   3.991
11982SOL    HW348248   6.855   7.589   3.970
11982SOL    MW448249   6.931   7.547   3.956
11983SOL     OW48250   7.188   7.673   4.033
11983SOL    HW248251   7.181   7.677   4.128
11983SOL    HW348252   7.200   7.764   4.006
11983SOL    MW448253   7.189   7.686   4.041
11984SOL     OW48254   5.672   7.725   3.769
11984SOL    HW248255   5.639   7.804   3.813
11984SOL    HW348256   5.727   7.758   3.698
11984SOL    MW448257   5.675   7.739   3.766
11985SOL     OW48258   6.581   7.583   5.659
11985SOL    HW248259   6.637   7.575   5.581
11985SOL    HW348260   6.558   7.493   5.681
11985SOL    MW448261   6.586   7.570   5.652
11986SOL     OW48262   6.931   7.535   5.817
11986SOL    HW248263   7.005   7.579   5.860
11986SOL    HW348264   6.855   7.589   5.839
11986SOL    MW448265   6.931   7.547   5.825
11987SOL     OW48266   7.188   7.673   5.902
11987SOL    HW248267   7.181   7.677   5.997
11987SOL    HW348268   7.200   7.764   5.875
11987SOL    MW448269   7.189   7.686   5.910
11988SOL     OW48270   5.672   7.725   5.638
11988SOL    HW248271   5.639   7.804   5.682
11988SOL    HW348272   5.727   7.758   5.567
11988SOL    MW448273   5.675   7.739   5.635
11989SOL     OW48274   7.756   0.506   0.427
11989SOL    HW248275   7.788   0.594   0.409
11989SOL    HW348276   7.744   0.504   0.522
11989SOL    MW448277   7.759   0.518   0.439
11990SOL     OW48278   7.834   0.919   1.328
11990SOL    HW248279   7.897   0.866   1.279
11990SOL    HW348280   7.815   0.993   1.271
11990SOL    MW448281   7.840   0.921   1.315
11991SOL     OW48282   8.019   0.692   0.680
11991SOL    HW248283   8.004   0.612   0.731
11991SOL    HW348284   8.101   0.727   0.714
11991SOL    MW448285   8.027   0.684   0.692
11992SOL     OW48286   7.907   0.932   0.961
11992SOL    HW248287   7.862   0.939   0.877
11992SOL    HW348288   7.887   1.015   1.005
11992SOL    MW448289   7.899   0.944   0.955
11993SOL     OW48290   7.604   1.778   0.836
11993SOL    HW248291   7.693   1.770   0.871
11993SOL    HW348292   7.568   1.690   0.841
11993SOL    MW448293   7.611   1.765   0.841
11994SOL     OW48294   7.868   1.305   0.871
11994SOL    HW248295   7.844   1.358   0.947
11994SOL    HW348296   7.924   1.363   0.819
11994SOL    MW448297   7.872   1.320   0.874
11995SOL     OW48298   7.838   1.601   1.466
11995SOL    HW248299   7.746   1.577   1.451
11995SOL    HW348300   7.882   1.518   1.483
11995SOL    MW448301   7.832   1.586   1.465
11996SOL     OW48302   7.753   1.245   0.403
11996SOL    HW248303   7.701   1.313   0.359
11996SOL    HW348304   7.750   1.171   0.343
11996SOL    MW448305   7.745   1.244   0.390
11997SOL     OW48306   7.636   1.599   1.130
11997SOL    HW248307   7.619   1.545   1.207
11997SOL    HW348308   7.624   1.689   1.160
11997SOL    MW448309   7.633   1.603   1.144
11998SOL     OW48310   7.943   1.701   0.636
11998SOL    HW248311   7.975   1.789   0.614
11998SOL    HW348312   7.896   1.673   0.558
11998SOL    MW448313   7.942   1.709   0.623
11999SOL     OW48314   7.688   0.220   0.659
11999SOL    HW248315   7.679   0.160   0.585
11999SOL    HW348316   7.621   0.191   0.722
11999SOL    MW448317   7.678   0.207   0.657
12000SOL     OW48318   7.619   0.668   1.192
12000SOL    HW248319   7.681   0.698   1.258
12000SOL    HW348320   7.553   0.737   1.186
12000SOL    MW448321   7.618   0.681   1.199
12001SOL     OW48322   7.714   1.777   1.644
12001SOL    HW248323   7.688   1.845   1.582
12001SOL    HW348324   7.762   1.714   1.592
12001SOL    MW448325   7.716   1.777   1.630
12002SOL     OW48326   7.766   1.096   1.151
12002SOL    HW248327   7.819   1.171   1.176
12002SOL    HW348328   7.685   1.134   1.117
12002SOL    MW448329   7.762   1.111   1.151
12003SOL     OW48330   7.621   0.865   0.557
12003SOL    HW248331   7.712   0.880   0.584
12003SOL    HW348332   7.624   0.786   0.503
12003SOL    MW448333   7.633   0.857   0.555
12004SOL     OW48334   7.857   0.573   1.811
12004SOL    HW248335   7.804   0.653   1.818
12004SOL    HW348336   7.927   0.585   1.876
12004SOL    MW448337   7.859   0.586   1.819
12005SOL     OW48338   8.243   0.123   1.518
12005SOL    HW248339   8.220   0.031   1.520
12005SOL    HW348340   8.329   0.125   1.475
12005SOL    MW448341   8.250   0.113   1.514
12006SOL     OW48342   7.629   1.477   0.596
12006SOL    HW248343   7.601   1.516   0.678
12006SOL    HW348344   7.649   1.386   0.618
12006SOL    MW448345   7.627   1.469   0.609
12007SOL     OW48346   8.152   0.939   0.771
12007SOL    HW248347   8.063   0.930   0.804
12007SOL    HW348348   8.156   1.029   0.739
12007SOL    MW448349   8.141   0.950   0.771
12008SOL     OW48350   7.826   1.621   0.425
12008SOL    HW248351   7.787   1.668   0.351
12008SOL    HW348352   7.760   1.556   0.450
12008SOL    MW448353   7.813   1.619   0.419
12009SOL     OW48354   7.633   1.208   0.716
12009SOL    HW248355   7.697   1.240   0.779
12009SOL    HW348356   7.682   1.144   0.664
12009SOL    MW448357   7.648   1.204   0.717
12010SOL     OW48358   7.709   1.526   1.838
12010SOL    HW248359   7.765   1.450   1.853
12010SOL    HW348360   7.658   1.504   1.760
12010SOL    MW448361   7.709   1.513   1.829
12011SOL     OW48362   7.887   0.031   1.789
12011SOL    HW248363   7.815  -0.004   1.737
12011SOL    HW348364   7.945   0.072   1.724
12011SOL    MW448365   7.885   0.032   1.774
12012SOL     OW48366   7.911   1.521   1.088
12012SOL    HW248367   7.956   1.583   1.145
12012SOL    HW348368   7.818   1.540   1.101
12012SOL    MW448369   7.904   1.531   1.095
12013SOL     OW48370   8.128   1.294   0.986
12013SOL    HW248371   8.121   1.273   1.080
12013SOL    HW348372   8.046   1.262   0.949
12013SOL    MW448373   8.116   1.288   0.993
12014SOL     OW48374   7.574   1.386   1.649
12014SOL    HW248375   7.618   1.319   1.595
12014SOL    HW348376   7.489   1.348   1.669
12014SOL    MW448377   7.569   1.372   1.645
12015SOL     OW48378   8.015   1.301   0.450
12015SOL    HW248379   8.008   1.333   0.540
12015SOL    HW348380   7.925   1.285   0.422
12015SOL    MW448381   8.003   1.303   0.457
12016SOL     OW48382   7.693   1.188   1.517
12016SOL    HW248383   7.721   1.141   1.595
12016SOL    HW348384   7.614   1.143   1.488
12016SOL    MW448385   7.686   1.177   1.523
12017SOL     OW48386   7.856   0.911   0.697
12017SOL    HW248387   7.914   0.967   0.645
12017SOL    HW348388   7.900   0.826   0.699
12017SOL    MW448389   7.869   0.908   0.690
12018SOL     OW48390   7.563   1.511   0.869
12018SOL    HW248391   7.595   1.515   0.960
12018SOL    HW348392   7.468   1.519   0.877
12018SOL    MW448393   7.555   1.514   0.882
12019SOL     OW48394   7.944   0.376   1.305
12019SOL    HW248395   7.977   0.457   1.345
12019SOL    HW348396   7.917   0.402   1.217
12019SOL    MW448397   7.943   0.390   1.299
12020SOL     OW48398   7.962   1.273   1.221
12020SOL    HW248399   7.974   1.300   1.312
12020SOL    HW348400   7.943   1.354   1.174
12020SOL    MW448401   7.961   1.288   1.226
12021SOL     OW48402   7.888   1.728   0.894
12021SOL    HW248403   7.892   1.639   0.929
12021SOL    HW348404   7.914   1.719   0.803
12021SOL    MW448405   7.891   1.716   0.886
12022SOL     OW48406   7.594   1.481   1.388
12022SOL    HW248407   7.584   1.439   1.474
12022SOL    HW348408   7.515   1.534   1.378
12022SOL    MW448409   7.583   1.482   1.399
12023SOL     OW48410   7.520   1.786   1.843
12023SOL    HW248411   7.570   1.764   1.765
12023SOL    HW348412   7.528   1.881   1.851
12023SOL    MW448413   7.528   1.795   1.834
12024SOL     OW48414   8.281   1.544   0.847
12024SOL    HW248415   8.209   1.481   0.860
12024SOL    HW348416   8.242   1.629   0.865
12024SOL    MW448417   8.265   1.547   0.850
12025SOL     OW48418   7.517   0.549   1.570
12025SOL    HW248419   7.581   0.615   1.545
12025SOL    HW348420   7.436   0.576   1.527
12025SOL    MW448421   7.515   0.561   1.562
12026SOL     OW48422   7.702   0.775   1.511
12026SOL    HW248423   7.723   0.844   1.449
12026SOL    HW348424   7.782   0.722   1.516
12026SOL    MW448425   7.715   0.776   1.505
12027SOL     OW48426   7.687   0.790   1.778
12027SOL    HW248427   7.613   0.734   1.804
12027SOL    HW348428   7.682   0.793   1.683
12027SOL    MW448429   7.676   0.783   1.768
12028SOL     OW48430   7.653   0.475   0.695
12028SOL    HW248431   7.715   0.482   0.768
12028SOL    HW348432   7.653   0.382   0.672
12028SOL    MW448433   7.661   0.464   0.702
12029SOL     OW48434   8.139   0.206   1.284
12029SOL    HW248435   8.070   0.269   1.305
12029SOL    HW348436   8.166   0.170   1.369
12029SOL    MW448437   8.133   0.209   1.297
12030SOL     OW48438   7.834   1.024   1.690
12030SOL    HW248439   7.788   0.940   1.692
12030SOL    HW348440   7.891   1.018   1.614
12030SOL    MW448441   7.836   1.012   1.682
12031SOL     OW48442   7.777   0.691   0.974
12031SOL    HW248443   7.727   0.690   1.055
12031SOL    HW348444   7.797   0.783   0.958
12031SOL    MW448445   7.773   0.703   0.982
12032SOL     OW48446   7.699   0.359   1.715
12032SOL    HW248447   7.656   0.418   1.652
12032SOL    HW348448   7.767   0.414   1.755
12032SOL    MW448449   7.703   0.374   1.712
12033SOL     OW48450   7.598  -0.001   1.138
12033SOL    HW248451   7.589   0.000   1.043
12033SOL    HW348452   7.692   0.011   1.153
12033SOL    MW448453   7.610   0.002   1.129
12034SOL     OW48454   7.811   0.126   0.184
12034SOL    HW248455   7.740   0.181   0.152
12034SOL    HW348456   7.853   0.092   0.105
12034SOL    MW448457   7.807   0.128   0.170
12035SOL     OW48458   7.601   1.482   0.222
12035SOL    HW248459   7.618   1.566   0.264
12035SOL    HW348460   7.636   1.491   0.134
12035SOL    MW448461   7.606   1.495   0.216
12036SOL     OW48462   7.756   0.506   2.295
12036SOL    HW248463   7.788   0.594   2.277
12036SOL    HW348464   7.744   0.504   2.390
12036SOL    MW448465   7.759   0.518   2.307
12037SOL     OW48466   7.834   0.919   3.196
12037SOL    HW248467   7.897   0.866   3.147
12037SOL    HW348468   7.815   0.993   3.139
12037SOL    MW448469   7.840   0.921   3.183
12038SOL     OW48470   8.019   0.692   2.548
12038SOL    HW248471   8.004   0.612   2.599
12038SOL    HW348472   8.101   0.727   2.582
12038SOL    MW448473   8.027   0.684   2.560
12039SOL     OW48474   7.907   0.932   2.829
12039SOL    HW248475   7.862   0.939   2.745
12039SOL    HW348476   7.887   1.015   2.873
12039SOL    MW448477   7.899   0.944   2.823
12040SOL     OW48478   7.604   1.778   2.704
12040SOL    HW248479   7.693   1.770   2.739
12040SOL    HW348480   7.568   1.690   2.709
12040SOL    MW448481   7.611   1.765   2.709
12041SOL     OW48482   7.868   1.305   2.739
12041SOL    HW248483   7.844   1.358   2.815
12041SOL    HW348484   7.924   1.363   2.687
12041SOL    MW448485   7.872   1.320   2.742
12042SOL     OW48486   7.838   1.601   3.334
12042SOL    HW248487   7.746   1.577   3.319
12042SOL    HW348488   7.882   1.518   3.351
12042SOL    MW448489   7.832   1.586   3.333
12043SOL     OW48490   7.753   1.245   2.271
12043SOL    HW248491   7.701   1.313   2.227
12043SOL    HW348492   7.750   1.171   2.211
12043SOL    MW448493   7.745   1.244   2.258
12044SOL     OW48494   7.636   1.599   2.998
12044SOL    HW248495   7.619   1.545   3.075
12044SOL    HW348496   7.624   1.689   3.028
12044SOL    MW448497   7.633   1.603   3.012
12045SOL     OW48498   7.943   1.701   2.504
12045SOL    HW248499   7.975   1.789   2.482
12045SOL    HW348500   7.896   1.673   2.426
12045SOL    MW448501   7.942   1.709   2.491
12046SOL     OW48502   7.659   1.761   2.081
12046SOL    HW248503   7.688   1.851   2.073
12046SOL    HW348504   7.609   1.744   2.002
12046SOL    MW448505   7.657   1.769   2.070
12047SOL     OW48506   7.688   0.220   2.527
12047SOL    HW248507   7.679   0.160   2.453
12047SOL    HW348508   7.621   0.191   2.590
12047SOL    MW448509   7.678   0.207   2.525
12048SOL     OW48510   7.619   0.668   3.060
12048SOL    HW248511   7.681   0.698   3.126
12048SOL    HW348512   7.553   0.737   3.054
12048SOL    MW448513   7.618   0.681   3.067
12049SOL     OW48514   7.714   1.777   3.512
12049SOL    HW248515   7.688   1.845   3.450
12049SOL    HW348516   7.762   1.714   3.460
12049SOL    MW448517   7.716   1.777   3.498
12050SOL     OW48518   7.766   1.096   3.019
12050SOL    HW248519   7.819   1.171   3.044
12050SOL    HW348520   7.685   1.134   2.985
12050SOL    MW448521   7.762   1.111   3.019
12051SOL     OW48522   7.621   0.865   2.425
12051SOL    HW248523   7.712   0.880   2.452
12051SOL    HW348524   7.624   0.786   2.371
12051SOL    MW448525   7.633   0.857   2.423
12052SOL     OW48526   7.857   0.573   3.679
12052SOL    HW248527   7.804   0.653   3.686
12052SOL    HW348528   7.927   0.585   3.744
12052SOL    MW448529   7.859   0.586   3.687
12053SOL     OW48530   8.243   0.123   3.386
12053SOL    HW248531   8.220   0.031   3.388
12053SOL    HW348532   8.329   0.125   3.343
12053SOL    MW448533   8.250   0.113   3.382
12054SOL     OW48534   7.629   1.477   2.464
12054SOL    HW248535   7.601   1.516   2.546
12054SOL    HW348536   7.649   1.386   2.486
12054SOL    MW448537   7.627   1.469   2.477
12055SOL     OW48538   8.152   0.939   2.639
12055SOL    HW248539   8.063   0.930   2.672
12055SOL    HW348540   8.156   1.029   2.607
12055SOL    MW448541   8.141   0.950   2.639
12056SOL     OW48542   7.826   1.621   2.293
12056SOL    HW248543   7.787   1.668   2.219
12056SOL    HW348544   7.760   1.556   2.318
12056SOL    MW448545   7.813   1.619   2.287
12057SOL     OW48546   7.633   1.208   2.584
12057SOL    HW248547   7.697   1.240   2.647
12057SOL    HW348548   7.682   1.144   2.532
12057SOL    MW448549   7.648   1.204   2.585
12058SOL     OW48550   7.709   1.526   3.706
12058SOL    HW248551   7.765   1.450   3.721
12058SOL    HW348552   7.658   1.504   3.628
12058SOL    MW448553   7.709   1.513   3.697
12059SOL     OW48554   7.887   0.031   3.657
12059SOL    HW248555   7.815  -0.004   3.605
12059SOL    HW348556   7.945   0.072   3.592
12059SOL    MW448557   7.885   0.032   3.642
12060SOL     OW48558   7.911   1.521   2.956
12060SOL    HW248559   7.956   1.583   3.013
12060SOL    HW348560   7.818   1.540   2.969
12060SOL    MW448561   7.904   1.531   2.963
12061SOL     OW48562   8.128   1.294   2.854
12061SOL    HW248563   8.121   1.273   2.948
12061SOL    HW348564   8.046   1.262   2.817
12061SOL    MW448565   8.116   1.288   2.861
12062SOL     OW48566   7.574   1.386   3.517
12062SOL    HW248567   7.618   1.319   3.463
12062SOL    HW348568   7.489   1.348   3.537
12062SOL    MW448569   7.569   1.372   3.513
12063SOL     OW48570   8.015   1.301   2.318
12063SOL    HW248571   8.008   1.333   2.408
12063SOL    HW348572   7.925   1.285   2.290
12063SOL    MW448573   8.003   1.303   2.325
12064SOL     OW48574   8.018   0.585   2.032
12064SOL    HW248575   7.984   0.641   2.102
12064SOL    HW348576   8.089   0.535   2.072
12064SOL    MW448577   8.024   0.586   2.046
12065SOL     OW48578   7.693   1.188   3.385
12065SOL    HW248579   7.721   1.141   3.463
12065SOL    HW348580   7.614   1.143   3.356
12065SOL    MW448581   7.686   1.177   3.391
12066SOL     OW48582   7.856   0.911   2.565
12066SOL    HW248583   7.914   0.967   2.513
12066SOL    HW348584   7.900   0.826   2.567
12066SOL    MW448585   7.869   0.908   2.558
12067SOL     OW48586   7.563   1.511   2.737
12067SOL    HW248587   7.595   1.515   2.828
12067SOL    HW348588   7.468   1.519   2.745
12067SOL    MW448589   7.555   1.514   2.750
12068SOL     OW48590   7.518   0.637   2.284
12068SOL    HW248591   7.458   0.609   2.354
12068SOL    HW348592   7.592   0.577   2.290
12068SOL    MW448593   7.520   0.626   2.293
12069SOL     OW48594   7.944   0.376   3.173
12069SOL    HW248595   7.977   0.457   3.213
12069SOL    HW348596   7.917   0.402   3.085
12069SOL    MW448597   7.943   0.390   3.167
12070SOL     OW48598   7.962   1.273   3.089
12070SOL    HW248599   7.974   1.300   3.180
12070SOL    HW348600   7.943   1.354   3.042
12070SOL    MW448601   7.961   1.288   3.094
12071SOL     OW48602   7.734   0.985   2.182
12071SOL    HW248603   7.671   1.001   2.111
12071SOL    HW348604   7.681   0.948   2.253
12071SOL    MW448605   7.719   0.982   2.182
12072SOL     OW48606   7.888   1.728   2.762
12072SOL    HW248607   7.892   1.639   2.797
12072SOL    HW348608   7.914   1.719   2.671
12072SOL    MW448609   7.891   1.716   2.754
12073SOL     OW48610   7.594   1.481   3.256
12073SOL    HW248611   7.584   1.439   3.342
12073SOL    HW348612   7.515   1.534   3.246
12073SOL    MW448613   7.583   1.482   3.267
12074SOL     OW48614   7.520   1.786   3.711
12074SOL    HW248615   7.570   1.764   3.633
12074SOL    HW348616   7.528   1.881   3.719
12074SOL    MW448617   7.528   1.795   3.702
12075SOL     OW48618   8.281   1.544   2.715
12075SOL    HW248619   8.209   1.481   2.728
12075SOL    HW348620   8.242   1.629   2.733
12075SOL    MW448621   8.265   1.547   2.718
12076SOL     OW48622   7.686   0.082   2.295
12076SOL    HW248623   7.757   0.103   2.234
12076SOL    HW348624   7.640   0.010   2.253
12076SOL    MW448625   7.690   0.076   2.281
12077SOL     OW48626   7.517   0.549   3.438
12077SOL    HW248627   7.581   0.615   3.413
12077SOL    HW348628   7.436   0.576   3.395
12077SOL    MW448629   7.515   0.561   3.430
12078SOL     OW48630   7.702   0.775   3.379
12078SOL    HW248631   7.723   0.844   3.317
12078SOL    HW348632   7.782   0.722   3.384
12078SOL    MW448633   7.715   0.776   3.373
12079SOL     OW48634   7.687   0.790   3.646
12079SOL    HW248635   7.613   0.734   3.672
12079SOL    HW348636   7.682   0.793   3.551
12079SOL    MW448637   7.676   0.783   3.636
12080SOL     OW48638   7.653   0.475   2.563
12080SOL    HW248639   7.715   0.482   2.636
12080SOL    HW348640   7.653   0.382   2.540
12080SOL    MW448641   7.661   0.464   2.570
12081SOL     OW48642   8.139   0.206   3.152
12081SOL    HW248643   8.070   0.269   3.173
12081SOL    HW348644   8.166   0.170   3.237
12081SOL    MW448645   8.133   0.209   3.165
12082SOL     OW48646   7.522   1.047   2.021
12082SOL    HW248647   7.491   1.112   2.084
12082SOL    HW348648   7.471   0.969   2.040
12082SOL    MW448649   7.512   1.044   2.031
12083SOL     OW48650   7.834   1.024   3.558
12083SOL    HW248651   7.788   0.940   3.560
12083SOL    HW348652   7.891   1.018   3.482
12083SOL    MW448653   7.836   1.012   3.550
12084SOL     OW48654   7.777   0.691   2.842
12084SOL    HW248655   7.727   0.690   2.923
12084SOL    HW348656   7.797   0.783   2.826
12084SOL    MW448657   7.773   0.703   2.850
12085SOL     OW48658   7.699   0.359   3.583
12085SOL    HW248659   7.656   0.418   3.520
12085SOL    HW348660   7.767   0.414   3.623
12085SOL    MW448661   7.703   0.374   3.580
12086SOL     OW48662   7.598  -0.001   3.006
12086SOL    HW248663   7.589   0.000   2.911
12086SOL    HW348664   7.692   0.011   3.021
12086SOL    MW448665   7.610   0.002   2.997
12087SOL     OW48666   7.811   0.126   2.052
12087SOL    HW248667   7.740   0.181   2.020
12087SOL    HW348668   7.853   0.092   1.973
12087SOL    MW448669   7.807   0.128   2.038
12088SOL     OW48670   7.567   0.225   1.901
12088SOL    HW248671   7.534   0.304   1.945
12088SOL    HW348672   7.622   0.258   1.830
12088SOL    MW448673   7.570   0.239   1.898
12089SOL     OW48674   7.601   1.482   2.090
12089SOL    HW248675   7.618   1.566   2.132
12089SOL    HW348676   7.636   1.491   2.002
12089SOL    MW448677   7.606   1.495   2.084
12090SOL     OW48678   7.756   0.506   4.163
12090SOL    HW248679   7.788   0.594   4.145
12090SOL    HW348680   7.744   0.504   4.258
12090SOL    MW448681   7.759   0.518   4.175
12091SOL     OW48682   7.834   0.919   5.064
12091SOL    HW248683   7.897   0.866   5.015
12091SOL    HW348684   7.815   0.993   5.007
12091SOL    MW448685   7.840   0.921   5.051
12092SOL     OW48686   8.019   0.692   4.416
12092SOL    HW248687   8.004   0.612   4.467
12092SOL    HW348688   8.101   0.727   4.450
12092SOL    MW448689   8.027   0.684   4.428
12093SOL     OW48690   7.907   0.932   4.697
12093SOL    HW248691   7.862   0.939   4.613
12093SOL    HW348692   7.887   1.015   4.741
12093SOL    MW448693   7.899   0.944   4.691
12094SOL     OW48694   7.604   1.778   4.572
12094SOL    HW248695   7.693   1.770   4.607
12094SOL    HW348696   7.568   1.690   4.577
12094SOL    MW448697   7.611   1.765   4.577
12095SOL     OW48698   7.868   1.305   4.607
12095SOL    HW248699   7.844   1.358   4.683
12095SOL    HW348700   7.924   1.363   4.555
12095SOL    MW448701   7.872   1.320   4.610
12096SOL     OW48702   7.838   1.601   5.202
12096SOL    HW248703   7.746   1.577   5.187
12096SOL    HW348704   7.882   1.518   5.219
12096SOL    MW448705   7.832   1.586   5.201
12097SOL     OW48706   7.753   1.245   4.139
12097SOL    HW248707   7.701   1.313   4.095
12097SOL    HW348708   7.750   1.171   4.079
12097SOL    MW448709   7.745   1.244   4.126
12098SOL     OW48710   7.636   1.599   4.866
12098SOL    HW248711   7.619   1.545   4.943
12098SOL    HW348712   7.624   1.689   4.896
12098SOL    MW448713   7.633   1.603   4.880
12099SOL     OW48714   7.943   1.701   4.372
12099SOL    HW248715   7.975   1.789   4.350
12099SOL    HW348716   7.896   1.673   4.294
12099SOL    MW448717   7.942   1.709   4.359
12100SOL     OW48718   7.659   1.761   3.949
12100SOL    HW248719   7.688   1.851   3.941
12100SOL    HW348720   7.609   1.744   3.870
12100SOL    MW448721   7.657   1.769   3.938
12101SOL     OW48722   7.688   0.220   4.395
12101SOL    HW248723   7.679   0.160   4.321
12101SOL    HW348724   7.621   0.191   4.458
12101SOL    MW448725   7.678   0.207   4.393
12102SOL     OW48726   7.619   0.668   4.928
12102SOL    HW248727   7.681   0.698   4.994
12102SOL    HW348728   7.553   0.737   4.922
12102SOL    MW448729   7.618   0.681   4.935
12103SOL     OW48730   7.714   1.777   5.380
12103SOL    HW248731   7.688   1.845   5.318
12103SOL    HW348732   7.762   1.714   5.328
12103SOL    MW448733   7.716   1.777   5.366
12104SOL     OW48734   7.766   1.096   4.887
12104SOL    HW248735   7.819   1.171   4.912
12104SOL    HW348736   7.685   1.134   4.853
12104SOL    MW448737   7.762   1.111   4.887
12105SOL     OW48738   7.621   0.865   4.293
12105SOL    HW248739   7.712   0.880   4.320
12105SOL    HW348740   7.624   0.786   4.239
12105SOL    MW448741   7.633   0.857   4.291
12106SOL     OW48742   7.857   0.573   5.547
12106SOL    HW248743   7.804   0.653   5.554
12106SOL    HW348744   7.927   0.585   5.612
12106SOL    MW448745   7.859   0.586   5.555
12107SOL     OW48746   8.243   0.123   5.254
12107SOL    HW248747   8.220   0.031   5.256
12107SOL    HW348748   8.329   0.125   5.211
12107SOL    MW448749   8.250   0.113   5.250
12108SOL     OW48750   7.629   1.477   4.332
12108SOL    HW248751   7.601   1.516   4.414
12108SOL    HW348752   7.649   1.386   4.354
12108SOL    MW448753   7.627   1.469   4.345
12109SOL     OW48754   8.152   0.939   4.507
12109SOL    HW248755   8.063   0.930   4.540
12109SOL    HW348756   8.156   1.029   4.475
12109SOL    MW448757   8.141   0.950   4.507
12110SOL     OW48758   7.826   1.621   4.161
12110SOL    HW248759   7.787   1.668   4.087
12110SOL    HW348760   7.760   1.556   4.186
12110SOL    MW448761   7.813   1.619   4.155
12111SOL     OW48762   7.633   1.208   4.452
12111SOL    HW248763   7.697   1.240   4.515
12111SOL    HW348764   7.682   1.144   4.400
12111SOL    MW448765   7.648   1.204   4.453
12112SOL     OW48766   7.709   1.526   5.574
12112SOL    HW248767   7.765   1.450   5.589
12112SOL    HW348768   7.658   1.504   5.496
12112SOL    MW448769   7.709   1.513   5.565
12113SOL     OW48770   7.887   0.031   5.525
12113SOL    HW248771   7.815  -0.004   5.473
12113SOL    HW348772   7.945   0.072   5.460
12113SOL    MW448773   7.885   0.032   5.510
12114SOL     OW48774   7.911   1.521   4.824
12114SOL    HW248775   7.956   1.583   4.881
12114SOL    HW348776   7.818   1.540   4.837
12114SOL    MW448777   7.904   1.531   4.831
12115SOL     OW48778   8.128   1.294   4.722
12115SOL    HW248779   8.121   1.273   4.816
12115SOL    HW348780   8.046   1.262   4.685
12115SOL    MW448781   8.116   1.288   4.729
12116SOL     OW48782   7.574   1.386   5.385
12116SOL    HW248783   7.618   1.319   5.331
12116SOL    HW348784   7.489   1.348   5.405
12116SOL    MW448785   7.569   1.372   5.381
12117SOL     OW48786   8.015   1.301   4.186
12117SOL    HW248787   8.008   1.333   4.276
12117SOL    HW348788   7.925   1.285   4.158
12117SOL    MW448789   8.003   1.303   4.193
12118SOL     OW48790   8.018   0.585   3.900
12118SOL    HW248791   7.984   0.641   3.970
12118SOL    HW348792   8.089   0.535   3.940
12118SOL    MW448793   8.024   0.586   3.914
12119SOL     OW48794   7.693   1.188   5.253
12119SOL    HW248795   7.721   1.141   5.331
12119SOL    HW348796   7.614   1.143   5.224
12119SOL    MW448797   7.686   1.177   5.259
12120SOL     OW48798   7.856   0.911   4.433
12120SOL    HW248799   7.914   0.967   4.381
12120SOL    HW348800   7.900   0.826   4.435
12120SOL    MW448801   7.869   0.908   4.426
12121SOL     OW48802   7.563   1.511   4.605
12121SOL    HW248803   7.595   1.515   4.696
12121SOL    HW348804   7.468   1.519   4.613
12121SOL    MW448805   7.555   1.514   4.618
12122SOL     OW48806   7.518   0.637   4.152
12122SOL    HW248807   7.458   0.609   4.222
12122SOL    HW348808   7.592   0.577   4.158
12122SOL    MW448809   7.520   0.626   4.161
12123SOL     OW48810   7.944   0.376   5.041
12123SOL    HW248811   7.977   0.457   5.081
12123SOL    HW348812   7.917   0.402   4.953
12123SOL    MW448813   7.943   0.390   5.035
12124SOL     OW48814   7.962   1.273   4.957
12124SOL    HW248815   7.974   1.300   5.048
12124SOL    HW348816   7.943   1.354   4.910
12124SOL    MW448817   7.961   1.288   4.962
12125SOL     OW48818   7.734   0.985   4.050
12125SOL    HW248819   7.671   1.001   3.979
12125SOL    HW348820   7.681   0.948   4.121
12125SOL    MW448821   7.719   0.982   4.050
12126SOL     OW48822   7.888   1.728   4.630
12126SOL    HW248823   7.892   1.639   4.665
12126SOL    HW348824   7.914   1.719   4.539
12126SOL    MW448825   7.891   1.716   4.622
12127SOL     OW48826   7.594   1.481   5.124
12127SOL    HW248827   7.584   1.439   5.210
12127SOL    HW348828   7.515   1.534   5.114
12127SOL    MW448829   7.583   1.482   5.135
12128SOL     OW48830   7.520   1.786   5.579
12128SOL    HW248831   7.570   1.764   5.501
12128SOL    HW348832   7.528   1.881   5.587
12128SOL    MW448833   7.528   1.795   5.570
12129SOL     OW48834   8.281   1.544   4.583
12129SOL    HW248835   8.209   1.481   4.596
12129SOL    HW348836   8.242   1.629   4.601
12129SOL    MW448837   8.265   1.547   4.586
12130SOL     OW48838   7.686   0.082   4.163
12130SOL    HW248839   7.757   0.103   4.102
12130SOL    HW348840   7.640   0.010   4.121
12130SOL    MW448841   7.690   0.076   4.149
12131SOL     OW48842   7.517   0.549   5.306
12131SOL    HW248843   7.581   0.615   5.281
12131SOL    HW348844   7.436   0.576   5.263
12131SOL    MW448845   7.515   0.561   5.298
12132SOL     OW48846   7.702   0.775   5.247
12132SOL    HW248847   7.723   0.844   5.185
12132SOL    HW348848   7.782   0.722   5.252
12132SOL    MW448849   7.715   0.776   5.241
12133SOL     OW48850   7.687   0.790   5.514
12133SOL    HW248851   7.613   0.734   5.540
12133SOL    HW348852   7.682   0.793   5.419
12133SOL    MW448853   7.676   0.783   5.504
12134SOL     OW48854   7.653   0.475   4.431
12134SOL    HW248855   7.715   0.482   4.504
12134SOL    HW348856   7.653   0.382   4.408
12134SOL    MW448857   7.661   0.464   4.438
12135SOL     OW48858   8.139   0.206   5.020
12135SOL    HW248859   8.070   0.269   5.041
12135SOL    HW348860   8.166   0.170   5.105
12135SOL    MW448861   8.133   0.209   5.033
12136SOL     OW48862   7.522   1.047   3.889
12136SOL    HW248863   7.491   1.112   3.952
12136SOL    HW348864   7.471   0.969   3.908
12136SOL    MW448865   7.512   1.044   3.899
12137SOL     OW48866   7.834   1.024   5.426
12137SOL    HW248867   7.788   0.940   5.428
12137SOL    HW348868   7.891   1.018   5.350
12137SOL    MW448869   7.836   1.012   5.418
12138SOL     OW48870   7.777   0.691   4.710
12138SOL    HW248871   7.727   0.690   4.791
12138SOL    HW348872   7.797   0.783   4.694
12138SOL    MW448873   7.773   0.703   4.718
12139SOL     OW48874   7.699   0.359   5.451
12139SOL    HW248875   7.656   0.418   5.388
12139SOL    HW348876   7.767   0.414   5.491
12139SOL    MW448877   7.703   0.374   5.448
12140SOL     OW48878   7.598  -0.001   4.874
12140SOL    HW248879   7.589   0.000   4.779
12140SOL    HW348880   7.692   0.011   4.889
12140SOL    MW448881   7.610   0.002   4.865
12141SOL     OW48882   7.811   0.126   3.920
12141SOL    HW248883   7.740   0.181   3.888
12141SOL    HW348884   7.853   0.092   3.841
12141SOL    MW448885   7.807   0.128   3.906
12142SOL     OW48886   7.567   0.225   3.769
12142SOL    HW248887   7.534   0.304   3.813
12142SOL    HW348888   7.622   0.258   3.698
12142SOL    MW448889   7.570   0.239   3.766
12143SOL     OW48890   7.601   1.482   3.958
12143SOL    HW248891   7.618   1.566   4.000
12143SOL    HW348892   7.636   1.491   3.870
12143SOL    MW448893   7.606   1.495   3.952
12144SOL     OW48894   7.756   0.506   6.032
12144SOL    HW248895   7.788   0.594   6.014
12144SOL    HW348896   7.744   0.504   6.127
12144SOL    MW448897   7.759   0.518   6.044
12145SOL     OW48898   8.019   0.692   6.285
12145SOL    HW248899   8.004   0.612   6.336
12145SOL    HW348900   8.101   0.727   6.319
12145SOL    MW448901   8.027   0.684   6.297
12146SOL     OW48902   7.907   0.932   6.566
12146SOL    HW248903   7.862   0.939   6.482
12146SOL    HW348904   7.887   1.015   6.610
12146SOL    MW448905   7.899   0.944   6.560
12147SOL     OW48906   7.604   1.778   6.441
12147SOL    HW248907   7.693   1.770   6.476
12147SOL    HW348908   7.568   1.690   6.446
12147SOL    MW448909   7.611   1.765   6.446
12148SOL     OW48910   7.753   1.245   6.008
12148SOL    HW248911   7.701   1.313   5.964
12148SOL    HW348912   7.750   1.171   5.948
12148SOL    MW448913   7.745   1.244   5.995
12149SOL     OW48914   7.943   1.701   6.241
12149SOL    HW248915   7.975   1.789   6.219
12149SOL    HW348916   7.896   1.673   6.163
12149SOL    MW448917   7.942   1.709   6.228
12150SOL     OW48918   7.659   1.761   5.818
12150SOL    HW248919   7.688   1.851   5.810
12150SOL    HW348920   7.609   1.744   5.739
12150SOL    MW448921   7.657   1.769   5.807
12151SOL     OW48922   7.688   0.220   6.264
12151SOL    HW248923   7.679   0.160   6.190
12151SOL    HW348924   7.621   0.191   6.327
12151SOL    MW448925   7.678   0.207   6.262
12152SOL     OW48926   7.621   0.865   6.162
12152SOL    HW248927   7.712   0.880   6.189
12152SOL    HW348928   7.624   0.786   6.108
12152SOL    MW448929   7.633   0.857   6.160
12153SOL     OW48930   7.629   1.477   6.201
12153SOL    HW248931   7.601   1.516   6.283
12153SOL    HW348932   7.649   1.386   6.223
12153SOL    MW448933   7.627   1.469   6.214
12154SOL     OW48934   8.152   0.939   6.376
12154SOL    HW248935   8.063   0.930   6.409
12154SOL    HW348936   8.156   1.029   6.344
12154SOL    MW448937   8.141   0.950   6.376
12155SOL     OW48938   7.826   1.621   6.030
12155SOL    HW248939   7.787   1.668   5.956
12155SOL    HW348940   7.760   1.556   6.055
12155SOL    MW448941   7.813   1.619   6.024
12156SOL     OW48942   7.633   1.208   6.321
12156SOL    HW248943   7.697   1.240   6.384
12156SOL    HW348944   7.682   1.144   6.269
12156SOL    MW448945   7.648   1.204   6.322
12157SOL     OW48946   7.911   1.521   6.693
12157SOL    HW248947   7.956   1.583   6.750
12157SOL    HW348948   7.818   1.540   6.706
12157SOL    MW448949   7.904   1.531   6.700
12158SOL     OW48950   8.015   1.301   6.055
12158SOL    HW248951   8.008   1.333   6.145
12158SOL    HW348952   7.925   1.285   6.027
12158SOL    MW448953   8.003   1.303   6.062
12159SOL     OW48954   8.018   0.585   5.769
12159SOL    HW248955   7.984   0.641   5.839
12159SOL    HW348956   8.089   0.535   5.809
12159SOL    MW448957   8.024   0.586   5.783
12160SOL     OW48958   7.856   0.911   6.302
12160SOL    HW248959   7.914   0.967   6.250
12160SOL    HW348960   7.900   0.826   6.304
12160SOL    MW448961   7.869   0.908   6.295
12161SOL     OW48962   7.518   0.637   6.021
12161SOL    HW248963   7.458   0.609   6.091
12161SOL    HW348964   7.592   0.577   6.027
12161SOL    MW448965   7.520   0.626   6.030
12162SOL     OW48966   7.734   0.985   5.919
12162SOL    HW248967   7.671   1.001   5.848
12162SOL    HW348968   7.681   0.948   5.990
12162SOL    MW448969   7.719   0.982   5.919
12163SOL     OW48970   7.888   1.728   6.499
12163SOL    HW248971   7.892   1.639   6.534
12163SOL    HW348972   7.914   1.719   6.408
12163SOL    MW448973   7.891   1.716   6.491
12164SOL     OW48974   8.281   1.544   6.452
12164SOL    HW248975   8.209   1.481   6.465
12164SOL    HW348976   8.242   1.629   6.470
12164SOL    MW448977   8.265   1.547   6.455
12165SOL     OW48978   7.686   0.082   6.032
12165SOL    HW248979   7.757   0.103   5.971
12165SOL    HW348980   7.640   0.010   5.990
12165SOL    MW448981   7.690   0.076   6.018
12166SOL     OW48982   7.653   0.475   6.300
12166SOL    HW248983   7.715   0.482   6.373
12166SOL    HW348984   7.653   0.382   6.277
12166SOL    MW448985   7.661   0.464   6.307
12167SOL     OW48986   7.522   1.047   5.758
12167SOL    HW248987   7.491   1.112   5.821
12167SOL    HW348988   7.471   0.969   5.777
12167SOL    MW448989   7.512   1.044   5.768
12168SOL     OW48990   7.811   0.126   5.789
12168SOL    HW248991   7.740   0.181   5.757
12168SOL    HW348992   7.853   0.092   5.710
12168SOL    MW448993   7.807   0.128   5.775
12169SOL     OW48994   7.567   0.225   5.638
12169SOL    HW248995   7.534   0.304   5.682
12169SOL    HW348996   7.622   0.258   5.567
12169SOL    MW448997   7.570   0.239   5.635
12170SOL     OW48998   7.601   1.482   5.827
12170SOL    HW248999   7.618   1.566   5.869
12170SOL    HW349000   7.636   1.491   5.739
12170SOL    MW449001   7.606   1.495   5.821
12171SOL     OW49002   7.756   2.374   0.427
12171SOL    HW249003   7.788   2.462   0.409
12171SOL    HW349004   7.744   2.372   0.522
12171SOL    MW449005   7.759   2.386   0.439
12172SOL     OW49006   7.834   2.787   1.328
12172SOL    HW249007   7.897   2.734   1.279
12172SOL    HW349008   7.815   2.861   1.271
12172SOL    MW449009   7.840   2.789   1.315
12173SOL     OW49010   8.019   2.560   0.680
12173SOL    HW249011   8.004   2.480   0.731
12173SOL    HW349012   8.101   2.595   0.714
12173SOL    MW449013   8.027   2.552   0.692
12174SOL     OW49014   7.907   2.800   0.961
12174SOL    HW249015   7.862   2.807   0.877
12174SOL    HW349016   7.887   2.883   1.005
12174SOL    MW449017   7.899   2.812   0.955
12175SOL     OW49018   7.604   3.646   0.836
12175SOL    HW249019   7.693   3.638   0.871
12175SOL    HW349020   7.568   3.558   0.841
12175SOL    MW449021   7.611   3.633   0.841
12176SOL     OW49022   7.868   3.173   0.871
12176SOL    HW249023   7.844   3.226   0.947
12176SOL    HW349024   7.924   3.231   0.819
12176SOL    MW449025   7.872   3.188   0.874
12177SOL     OW49026   7.838   3.469   1.466
12177SOL    HW249027   7.746   3.445   1.451
12177SOL    HW349028   7.882   3.386   1.483
12177SOL    MW449029   7.832   3.454   1.465
12178SOL     OW49030   7.918   2.152   0.366
12178SOL    HW249031   7.892   2.114   0.282
12178SOL    HW349032   7.855   2.222   0.382
12178SOL    MW449033   7.907   2.155   0.357
12179SOL     OW49034   7.753   3.113   0.403
12179SOL    HW249035   7.701   3.181   0.359
12179SOL    HW349036   7.750   3.039   0.343
12179SOL    MW449037   7.745   3.112   0.390
12180SOL     OW49038   7.636   3.467   1.130
12180SOL    HW249039   7.619   3.413   1.207
12180SOL    HW349040   7.624   3.557   1.160
12180SOL    MW449041   7.633   3.471   1.144
12181SOL     OW49042   7.943   3.569   0.636
12181SOL    HW249043   7.975   3.657   0.614
12181SOL    HW349044   7.896   3.541   0.558
12181SOL    MW449045   7.942   3.577   0.623
12182SOL     OW49046   7.659   3.629   0.213
12182SOL    HW249047   7.688   3.719   0.205
12182SOL    HW349048   7.609   3.612   0.134
12182SOL    MW449049   7.657   3.637   0.202
12183SOL     OW49050   7.688   2.088   0.659
12183SOL    HW249051   7.679   2.028   0.585
12183SOL    HW349052   7.621   2.059   0.722
12183SOL    MW449053   7.678   2.075   0.657
12184SOL     OW49054   7.635   2.261   1.022
12184SOL    HW249055   7.607   2.352   1.031
12184SOL    HW349056   7.572   2.222   0.961
12184SOL    MW449057   7.622   2.267   1.016
12185SOL     OW49058   7.619   2.536   1.192
12185SOL    HW249059   7.681   2.566   1.258
12185SOL    HW349060   7.553   2.605   1.186
12185SOL    MW449061   7.618   2.549   1.199
12186SOL     OW49062   7.714   3.645   1.644
12186SOL    HW249063   7.688   3.713   1.582
12186SOL    HW349064   7.762   3.582   1.592
12186SOL    MW449065   7.716   3.645   1.630
12187SOL     OW49066   7.766   2.964   1.151
12187SOL    HW249067   7.819   3.039   1.176
12187SOL    HW349068   7.685   3.002   1.117
12187SOL    MW449069   7.762   2.979   1.151
12188SOL     OW49070   7.621   2.733   0.557
12188SOL    HW249071   7.712   2.748   0.584
12188SOL    HW349072   7.624   2.654   0.503
12188SOL    MW449073   7.633   2.725   0.555
12189SOL     OW49074   7.857   2.441   1.811
12189SOL    HW249075   7.804   2.521   1.818
12189SOL    HW349076   7.927   2.453   1.876
12189SOL    MW449077   7.859   2.454   1.819
12190SOL     OW49078   7.629   3.345   0.596
12190SOL    HW249079   7.601   3.384   0.678
12190SOL    HW349080   7.649   3.254   0.618
12190SOL    MW449081   7.627   3.337   0.609
12191SOL     OW49082   8.152   2.807   0.771
12191SOL    HW249083   8.063   2.798   0.804
12191SOL    HW349084   8.156   2.897   0.739
12191SOL    MW449085   8.141   2.818   0.771
12192SOL     OW49086   7.922   2.077   1.583
12192SOL    HW249087   7.843   2.095   1.635
12192SOL    HW349088   7.917   2.139   1.510
12192SOL    MW449089   7.912   2.087   1.580
12193SOL     OW49090   7.826   3.489   0.425
12193SOL    HW249091   7.787   3.536   0.351
12193SOL    HW349092   7.760   3.424   0.450
12193SOL    MW449093   7.813   3.487   0.419
12194SOL     OW49094   7.633   3.076   0.716
12194SOL    HW249095   7.697   3.108   0.779
12194SOL    HW349096   7.682   3.012   0.664
12194SOL    MW449097   7.648   3.072   0.717
12195SOL     OW49098   7.709   3.394   1.838
12195SOL    HW249099   7.765   3.318   1.853
12195SOL    HW349100   7.658   3.372   1.760
12195SOL    MW449101   7.709   3.381   1.829
12196SOL     OW49102   7.911   3.389   1.088
12196SOL    HW249103   7.956   3.451   1.145
12196SOL    HW349104   7.818   3.408   1.101
12196SOL    MW449105   7.904   3.399   1.095
12197SOL     OW49106   8.128   3.162   0.986
12197SOL    HW249107   8.121   3.141   1.080
12197SOL    HW349108   8.046   3.130   0.949
12197SOL    MW449109   8.116   3.156   0.993
12198SOL     OW49110   7.574   3.254   1.649
12198SOL    HW249111   7.618   3.187   1.595
12198SOL    HW349112   7.489   3.216   1.669
12198SOL    MW449113   7.569   3.240   1.645
12199SOL     OW49114   8.015   3.169   0.450
12199SOL    HW249115   8.008   3.201   0.540
12199SOL    HW349116   7.925   3.153   0.422
12199SOL    MW449117   8.003   3.171   0.457
12200SOL     OW49118   7.934   1.994   0.657
12200SOL    HW249119   7.984   2.037   0.588
12200SOL    HW349120   7.849   2.038   0.657
12200SOL    MW449121   7.931   2.007   0.648
12201SOL     OW49122   7.693   3.056   1.517
12201SOL    HW249123   7.721   3.009   1.595
12201SOL    HW349124   7.614   3.011   1.488
12201SOL    MW449125   7.686   3.045   1.523
12202SOL     OW49126   7.856   2.779   0.697
12202SOL    HW249127   7.914   2.835   0.645
12202SOL    HW349128   7.900   2.694   0.699
12202SOL    MW449129   7.869   2.776   0.690
12203SOL     OW49130   7.563   3.379   0.869
12203SOL    HW249131   7.595   3.383   0.960
12203SOL    HW349132   7.468   3.387   0.877
12203SOL    MW449133   7.555   3.382   0.882
12204SOL     OW49134   7.944   2.244   1.305
12204SOL    HW249135   7.977   2.325   1.345
12204SOL    HW349136   7.917   2.270   1.217
12204SOL    MW449137   7.943   2.258   1.299
12205SOL     OW49138   7.898   2.211   1.041
12205SOL    HW249139   7.928   2.125   1.012
12205SOL    HW349140   7.803   2.204   1.044
12205SOL    MW449141   7.890   2.200   1.039
12206SOL     OW49142   7.962   3.141   1.221
12206SOL    HW249143   7.974   3.168   1.312
12206SOL    HW349144   7.943   3.222   1.174
12206SOL    MW449145   7.961   3.156   1.226
12207SOL     OW49146   7.888   3.596   0.894
12207SOL    HW249147   7.892   3.507   0.929
12207SOL    HW349148   7.914   3.587   0.803
12207SOL    MW449149   7.891   3.584   0.886
12208SOL     OW49150   7.594   3.349   1.388
12208SOL    HW249151   7.584   3.307   1.474
12208SOL    HW349152   7.515   3.402   1.378
12208SOL    MW449153   7.583   3.350   1.399
12209SOL     OW49154   7.520   3.654   1.843
12209SOL    HW249155   7.570   3.632   1.765
12209SOL    HW349156   7.528   3.749   1.851
12209SOL    MW449157   7.528   3.663   1.834
12210SOL     OW49158   8.281   3.412   0.847
12210SOL    HW249159   8.209   3.349   0.860
12210SOL    HW349160   8.242   3.497   0.865
12210SOL    MW449161   8.265   3.415   0.850
12211SOL     OW49162   7.517   2.417   1.570
12211SOL    HW249163   7.581   2.483   1.545
12211SOL    HW349164   7.436   2.444   1.527
12211SOL    MW449165   7.515   2.429   1.562
12212SOL     OW49166   7.702   2.643   1.511
12212SOL    HW249167   7.723   2.712   1.449
12212SOL    HW349168   7.782   2.590   1.516
12212SOL    MW449169   7.715   2.644   1.505
12213SOL     OW49170   7.687   2.658   1.778
12213SOL    HW249171   7.613   2.602   1.804
12213SOL    HW349172   7.682   2.661   1.683
12213SOL    MW449173   7.676   2.651   1.768
12214SOL     OW49174   7.853   1.945   1.228
12214SOL    HW249175   7.896   2.029   1.248
12214SOL    HW349176   7.926   1.883   1.221
12214SOL    MW449177   7.868   1.948   1.229
12215SOL     OW49178   7.653   2.343   0.695
12215SOL    HW249179   7.715   2.350   0.768
12215SOL    HW349180   7.653   2.250   0.672
12215SOL    MW449181   7.661   2.332   0.702
12216SOL     OW49182   8.139   2.074   1.284
12216SOL    HW249183   8.070   2.137   1.305
12216SOL    HW349184   8.166   2.038   1.369
12216SOL    MW449185   8.133   2.077   1.297
12217SOL     OW49186   7.834   2.892   1.690
12217SOL    HW249187   7.788   2.808   1.692
12217SOL    HW349188   7.891   2.886   1.614
12217SOL    MW449189   7.836   2.880   1.682
12218SOL     OW49190   7.777   2.559   0.974
12218SOL    HW249191   7.727   2.558   1.055
12218SOL    HW349192   7.797   2.651   0.958
12218SOL    MW449193   7.773   2.571   0.982
12219SOL     OW49194   7.699   2.227   1.715
12219SOL    HW249195   7.656   2.286   1.652
12219SOL    HW349196   7.767   2.282   1.755
12219SOL    MW449197   7.703   2.242   1.712
12220SOL     OW49198   7.598   1.867   1.138
12220SOL    HW249199   7.589   1.868   1.043
12220SOL    HW349200   7.692   1.879   1.153
12220SOL    MW449201   7.610   1.870   1.129
12221SOL     OW49202   7.601   3.350   0.222
12221SOL    HW249203   7.618   3.434   0.264
12221SOL    HW349204   7.636   3.359   0.134
12221SOL    MW449205   7.606   3.363   0.216
12222SOL     OW49206   7.756   2.374   2.295
12222SOL    HW249207   7.788   2.462   2.277
12222SOL    HW349208   7.744   2.372   2.390
12222SOL    MW449209   7.759   2.386   2.307
12223SOL     OW49210   7.834   2.787   3.196
12223SOL    HW249211   7.897   2.734   3.147
12223SOL    HW349212   7.815   2.861   3.139
12223SOL    MW449213   7.840   2.789   3.183
12224SOL     OW49214   8.019   2.560   2.548
12224SOL    HW249215   8.004   2.480   2.599
12224SOL    HW349216   8.101   2.595   2.582
12224SOL    MW449217   8.027   2.552   2.560
12225SOL     OW49218   7.907   2.800   2.829
12225SOL    HW249219   7.862   2.807   2.745
12225SOL    HW349220   7.887   2.883   2.873
12225SOL    MW449221   7.899   2.812   2.823
12226SOL     OW49222   7.604   3.646   2.704
12226SOL    HW249223   7.693   3.638   2.739
12226SOL    HW349224   7.568   3.558   2.709
12226SOL    MW449225   7.611   3.633   2.709
12227SOL     OW49226   7.868   3.173   2.739
12227SOL    HW249227   7.844   3.226   2.815
12227SOL    HW349228   7.924   3.231   2.687
12227SOL    MW449229   7.872   3.188   2.742
12228SOL     OW49230   7.838   3.469   3.334
12228SOL    HW249231   7.746   3.445   3.319
12228SOL    HW349232   7.882   3.386   3.351
12228SOL    MW449233   7.832   3.454   3.333
12229SOL     OW49234   7.918   2.152   2.234
12229SOL    HW249235   7.892   2.114   2.150
12229SOL    HW349236   7.855   2.222   2.250
12229SOL    MW449237   7.907   2.155   2.225
12230SOL     OW49238   7.753   3.113   2.271
12230SOL    HW249239   7.701   3.181   2.227
12230SOL    HW349240   7.750   3.039   2.211
12230SOL    MW449241   7.745   3.112   2.258
12231SOL     OW49242   7.636   3.467   2.998
12231SOL    HW249243   7.619   3.413   3.075
12231SOL    HW349244   7.624   3.557   3.028
12231SOL    MW449245   7.633   3.471   3.012
12232SOL     OW49246   7.943   3.569   2.504
12232SOL    HW249247   7.975   3.657   2.482
12232SOL    HW349248   7.896   3.541   2.426
12232SOL    MW449249   7.942   3.577   2.491
12233SOL     OW49250   7.659   3.629   2.081
12233SOL    HW249251   7.688   3.719   2.073
12233SOL    HW349252   7.609   3.612   2.002
12233SOL    MW449253   7.657   3.637   2.070
12234SOL     OW49254   7.688   2.088   2.527
12234SOL    HW249255   7.679   2.028   2.453
12234SOL    HW349256   7.621   2.059   2.590
12234SOL    MW449257   7.678   2.075   2.525
12235SOL     OW49258   7.635   2.261   2.890
12235SOL    HW249259   7.607   2.352   2.899
12235SOL    HW349260   7.572   2.222   2.829
12235SOL    MW449261   7.622   2.267   2.884
12236SOL     OW49262   7.619   2.536   3.060
12236SOL    HW249263   7.681   2.566   3.126
12236SOL    HW349264   7.553   2.605   3.054
12236SOL    MW449265   7.618   2.549   3.067
12237SOL     OW49266   7.714   3.645   3.512
12237SOL    HW249267   7.688   3.713   3.450
12237SOL    HW349268   7.762   3.582   3.460
12237SOL    MW449269   7.716   3.645   3.498
12238SOL     OW49270   7.766   2.964   3.019
12238SOL    HW249271   7.819   3.039   3.044
12238SOL    HW349272   7.685   3.002   2.985
12238SOL    MW449273   7.762   2.979   3.019
12239SOL     OW49274   7.621   2.733   2.425
12239SOL    HW249275   7.712   2.748   2.452
12239SOL    HW349276   7.624   2.654   2.371
12239SOL    MW449277   7.633   2.725   2.423
12240SOL     OW49278   7.857   2.441   3.679
12240SOL    HW249279   7.804   2.521   3.686
12240SOL    HW349280   7.927   2.453   3.744
12240SOL    MW449281   7.859   2.454   3.687
12241SOL     OW49282   7.629   3.345   2.464
12241SOL    HW249283   7.601   3.384   2.546
12241SOL    HW349284   7.649   3.254   2.486
12241SOL    MW449285   7.627   3.337   2.477
12242SOL     OW49286   8.152   2.807   2.639
12242SOL    HW249287   8.063   2.798   2.672
12242SOL    HW349288   8.156   2.897   2.607
12242SOL    MW449289   8.141   2.818   2.639
12243SOL     OW49290   7.922   2.077   3.451
12243SOL    HW249291   7.843   2.095   3.503
12243SOL    HW349292   7.917   2.139   3.378
12243SOL    MW449293   7.912   2.087   3.448
12244SOL     OW49294   7.826   3.489   2.293
12244SOL    HW249295   7.787   3.536   2.219
12244SOL    HW349296   7.760   3.424   2.318
12244SOL    MW449297   7.813   3.487   2.287
12245SOL     OW49298   7.633   3.076   2.584
12245SOL    HW249299   7.697   3.108   2.647
12245SOL    HW349300   7.682   3.012   2.532
12245SOL    MW449301   7.648   3.072   2.585
12246SOL     OW49302   7.709   3.394   3.706
12246SOL    HW249303   7.765   3.318   3.721
12246SOL    HW349304   7.658   3.372   3.628
12246SOL    MW449305   7.709   3.381   3.697
12247SOL     OW49306   7.911   3.389   2.956
12247SOL    HW249307   7.956   3.451   3.013
12247SOL    HW349308   7.818   3.408   2.969
12247SOL    MW449309   7.904   3.399   2.963
12248SOL     OW49310   8.128   3.162   2.854
12248SOL    HW249311   8.121   3.141   2.948
12248SOL    HW349312   8.046   3.130   2.817
12248SOL    MW449313   8.116   3.156   2.861
12249SOL     OW49314   7.574   3.254   3.517
12249SOL    HW249315   7.618   3.187   3.463
12249SOL    HW349316   7.489   3.216   3.537
12249SOL    MW449317   7.569   3.240   3.513
12250SOL     OW49318   8.015   3.169   2.318
12250SOL    HW249319   8.008   3.201   2.408
12250SOL    HW349320   7.925   3.153   2.290
12250SOL    MW449321   8.003   3.171   2.325
12251SOL     OW49322   8.018   2.453   2.032
12251SOL    HW249323   7.984   2.509   2.102
12251SOL    HW349324   8.089   2.403   2.072
12251SOL    MW449325   8.024   2.454   2.046
12252SOL     OW49326   7.934   1.994   2.525
12252SOL    HW249327   7.984   2.037   2.456
12252SOL    HW349328   7.849   2.038   2.525
12252SOL    MW449329   7.931   2.007   2.516
12253SOL     OW49330   7.693   3.056   3.385
12253SOL    HW249331   7.721   3.009   3.463
12253SOL    HW349332   7.614   3.011   3.356
12253SOL    MW449333   7.686   3.045   3.391
12254SOL     OW49334   7.856   2.779   2.565
12254SOL    HW249335   7.914   2.835   2.513
12254SOL    HW349336   7.900   2.694   2.567
12254SOL    MW449337   7.869   2.776   2.558
12255SOL     OW49338   7.563   3.379   2.737
12255SOL    HW249339   7.595   3.383   2.828
12255SOL    HW349340   7.468   3.387   2.745
12255SOL    MW449341   7.555   3.382   2.750
12256SOL     OW49342   7.518   2.505   2.284
12256SOL    HW249343   7.458   2.477   2.354
12256SOL    HW349344   7.592   2.445   2.290
12256SOL    MW449345   7.520   2.494   2.293
12257SOL     OW49346   7.944   2.244   3.173
12257SOL    HW249347   7.977   2.325   3.213
12257SOL    HW349348   7.917   2.270   3.085
12257SOL    MW449349   7.943   2.258   3.167
12258SOL     OW49350   7.898   2.211   2.909
12258SOL    HW249351   7.928   2.125   2.880
12258SOL    HW349352   7.803   2.204   2.912
12258SOL    MW449353   7.890   2.200   2.907
12259SOL     OW49354   7.962   3.141   3.089
12259SOL    HW249355   7.974   3.168   3.180
12259SOL    HW349356   7.943   3.222   3.042
12259SOL    MW449357   7.961   3.156   3.094
12260SOL     OW49358   7.734   2.853   2.182
12260SOL    HW249359   7.671   2.869   2.111
12260SOL    HW349360   7.681   2.816   2.253
12260SOL    MW449361   7.719   2.850   2.182
12261SOL     OW49362   7.888   3.596   2.762
12261SOL    HW249363   7.892   3.507   2.797
12261SOL    HW349364   7.914   3.587   2.671
12261SOL    MW449365   7.891   3.584   2.754
12262SOL     OW49366   7.594   3.349   3.256
12262SOL    HW249367   7.584   3.307   3.342
12262SOL    HW349368   7.515   3.402   3.246
12262SOL    MW449369   7.583   3.350   3.267
12263SOL     OW49370   7.520   3.654   3.711
12263SOL    HW249371   7.570   3.632   3.633
12263SOL    HW349372   7.528   3.749   3.719
12263SOL    MW449373   7.528   3.663   3.702
12264SOL     OW49374   8.281   3.412   2.715
12264SOL    HW249375   8.209   3.349   2.728
12264SOL    HW349376   8.242   3.497   2.733
12264SOL    MW449377   8.265   3.415   2.718
12265SOL     OW49378   7.686   1.950   2.295
12265SOL    HW249379   7.757   1.971   2.234
12265SOL    HW349380   7.640   1.878   2.253
12265SOL    MW449381   7.690   1.944   2.281
12266SOL     OW49382   7.517   2.417   3.438
12266SOL    HW249383   7.581   2.483   3.413
12266SOL    HW349384   7.436   2.444   3.395
12266SOL    MW449385   7.515   2.429   3.430
12267SOL     OW49386   7.702   2.643   3.379
12267SOL    HW249387   7.723   2.712   3.317
12267SOL    HW349388   7.782   2.590   3.384
12267SOL    MW449389   7.715   2.644   3.373
12268SOL     OW49390   7.687   2.658   3.646
12268SOL    HW249391   7.613   2.602   3.672
12268SOL    HW349392   7.682   2.661   3.551
12268SOL    MW449393   7.676   2.651   3.636
12269SOL     OW49394   7.853   1.945   3.096
12269SOL    HW249395   7.896   2.029   3.116
12269SOL    HW349396   7.926   1.883   3.089
12269SOL    MW449397   7.868   1.948   3.097
12270SOL     OW49398   7.653   2.343   2.563
12270SOL    HW249399   7.715   2.350   2.636
12270SOL    HW349400   7.653   2.250   2.540
12270SOL    MW449401   7.661   2.332   2.570
12271SOL     OW49402   8.139   2.074   3.152
12271SOL    HW249403   8.070   2.137   3.173
12271SOL    HW349404   8.166   2.038   3.237
12271SOL    MW449405   8.133   2.077   3.165
12272SOL     OW49406   7.522   2.915   2.021
12272SOL    HW249407   7.491   2.980   2.084
12272SOL    HW349408   7.471   2.837   2.040
12272SOL    MW449409   7.512   2.912   2.031
12273SOL     OW49410   7.834   2.892   3.558
12273SOL    HW249411   7.788   2.808   3.560
12273SOL    HW349412   7.891   2.886   3.482
12273SOL    MW449413   7.836   2.880   3.550
12274SOL     OW49414   7.777   2.559   2.842
12274SOL    HW249415   7.727   2.558   2.923
12274SOL    HW349416   7.797   2.651   2.826
12274SOL    MW449417   7.773   2.571   2.850
12275SOL     OW49418   7.699   2.227   3.583
12275SOL    HW249419   7.656   2.286   3.520
12275SOL    HW349420   7.767   2.282   3.623
12275SOL    MW449421   7.703   2.242   3.580
12276SOL     OW49422   7.598   1.867   3.006
12276SOL    HW249423   7.589   1.868   2.911
12276SOL    HW349424   7.692   1.879   3.021
12276SOL    MW449425   7.610   1.870   2.997
12277SOL     OW49426   7.811   1.994   2.052
12277SOL    HW249427   7.740   2.049   2.020
12277SOL    HW349428   7.853   1.960   1.973
12277SOL    MW449429   7.807   1.996   2.038
12278SOL     OW49430   7.567   2.093   1.901
12278SOL    HW249431   7.534   2.172   1.945
12278SOL    HW349432   7.622   2.126   1.830
12278SOL    MW449433   7.570   2.107   1.898
12279SOL     OW49434   7.601   3.350   2.090
12279SOL    HW249435   7.618   3.434   2.132
12279SOL    HW349436   7.636   3.359   2.002
12279SOL    MW449437   7.606   3.363   2.084
12280SOL     OW49438   7.756   2.374   4.163
12280SOL    HW249439   7.788   2.462   4.145
12280SOL    HW349440   7.744   2.372   4.258
12280SOL    MW449441   7.759   2.386   4.175
12281SOL     OW49442   7.834   2.787   5.064
12281SOL    HW249443   7.897   2.734   5.015
12281SOL    HW349444   7.815   2.861   5.007
12281SOL    MW449445   7.840   2.789   5.051
12282SOL     OW49446   8.019   2.560   4.416
12282SOL    HW249447   8.004   2.480   4.467
12282SOL    HW349448   8.101   2.595   4.450
12282SOL    MW449449   8.027   2.552   4.428
12283SOL     OW49450   7.907   2.800   4.697
12283SOL    HW249451   7.862   2.807   4.613
12283SOL    HW349452   7.887   2.883   4.741
12283SOL    MW449453   7.899   2.812   4.691
12284SOL     OW49454   7.604   3.646   4.572
12284SOL    HW249455   7.693   3.638   4.607
12284SOL    HW349456   7.568   3.558   4.577
12284SOL    MW449457   7.611   3.633   4.577
12285SOL     OW49458   7.868   3.173   4.607
12285SOL    HW249459   7.844   3.226   4.683
12285SOL    HW349460   7.924   3.231   4.555
12285SOL    MW449461   7.872   3.188   4.610
12286SOL     OW49462   7.838   3.469   5.202
12286SOL    HW249463   7.746   3.445   5.187
12286SOL    HW349464   7.882   3.386   5.219
12286SOL    MW449465   7.832   3.454   5.201
12287SOL     OW49466   7.918   2.152   4.102
12287SOL    HW249467   7.892   2.114   4.018
12287SOL    HW349468   7.855   2.222   4.118
12287SOL    MW449469   7.907   2.155   4.093
12288SOL     OW49470   7.753   3.113   4.139
12288SOL    HW249471   7.701   3.181   4.095
12288SOL    HW349472   7.750   3.039   4.079
12288SOL    MW449473   7.745   3.112   4.126
12289SOL     OW49474   7.636   3.467   4.866
12289SOL    HW249475   7.619   3.413   4.943
12289SOL    HW349476   7.624   3.557   4.896
12289SOL    MW449477   7.633   3.471   4.880
12290SOL     OW49478   7.943   3.569   4.372
12290SOL    HW249479   7.975   3.657   4.350
12290SOL    HW349480   7.896   3.541   4.294
12290SOL    MW449481   7.942   3.577   4.359
12291SOL     OW49482   7.659   3.629   3.949
12291SOL    HW249483   7.688   3.719   3.941
12291SOL    HW349484   7.609   3.612   3.870
12291SOL    MW449485   7.657   3.637   3.938
12292SOL     OW49486   7.688   2.088   4.395
12292SOL    HW249487   7.679   2.028   4.321
12292SOL    HW349488   7.621   2.059   4.458
12292SOL    MW449489   7.678   2.075   4.393
12293SOL     OW49490   7.635   2.261   4.758
12293SOL    HW249491   7.607   2.352   4.767
12293SOL    HW349492   7.572   2.222   4.697
12293SOL    MW449493   7.622   2.267   4.752
12294SOL     OW49494   7.619   2.536   4.928
12294SOL    HW249495   7.681   2.566   4.994
12294SOL    HW349496   7.553   2.605   4.922
12294SOL    MW449497   7.618   2.549   4.935
12295SOL     OW49498   7.714   3.645   5.380
12295SOL    HW249499   7.688   3.713   5.318
12295SOL    HW349500   7.762   3.582   5.328
12295SOL    MW449501   7.716   3.645   5.366
12296SOL     OW49502   7.766   2.964   4.887
12296SOL    HW249503   7.819   3.039   4.912
12296SOL    HW349504   7.685   3.002   4.853
12296SOL    MW449505   7.762   2.979   4.887
12297SOL     OW49506   7.621   2.733   4.293
12297SOL    HW249507   7.712   2.748   4.320
12297SOL    HW349508   7.624   2.654   4.239
12297SOL    MW449509   7.633   2.725   4.291
12298SOL     OW49510   7.857   2.441   5.547
12298SOL    HW249511   7.804   2.521   5.554
12298SOL    HW349512   7.927   2.453   5.612
12298SOL    MW449513   7.859   2.454   5.555
12299SOL     OW49514   7.629   3.345   4.332
12299SOL    HW249515   7.601   3.384   4.414
12299SOL    HW349516   7.649   3.254   4.354
12299SOL    MW449517   7.627   3.337   4.345
12300SOL     OW49518   8.152   2.807   4.507
12300SOL    HW249519   8.063   2.798   4.540
12300SOL    HW349520   8.156   2.897   4.475
12300SOL    MW449521   8.141   2.818   4.507
12301SOL     OW49522   7.922   2.077   5.319
12301SOL    HW249523   7.843   2.095   5.371
12301SOL    HW349524   7.917   2.139   5.246
12301SOL    MW449525   7.912   2.087   5.316
12302SOL     OW49526   7.826   3.489   4.161
12302SOL    HW249527   7.787   3.536   4.087
12302SOL    HW349528   7.760   3.424   4.186
12302SOL    MW449529   7.813   3.487   4.155
12303SOL     OW49530   7.633   3.076   4.452
12303SOL    HW249531   7.697   3.108   4.515
12303SOL    HW349532   7.682   3.012   4.400
12303SOL    MW449533   7.648   3.072   4.453
12304SOL     OW49534   7.709   3.394   5.574
12304SOL    HW249535   7.765   3.318   5.589
12304SOL    HW349536   7.658   3.372   5.496
12304SOL    MW449537   7.709   3.381   5.565
12305SOL     OW49538   7.911   3.389   4.824
12305SOL    HW249539   7.956   3.451   4.881
12305SOL    HW349540   7.818   3.408   4.837
12305SOL    MW449541   7.904   3.399   4.831
12306SOL     OW49542   8.128   3.162   4.722
12306SOL    HW249543   8.121   3.141   4.816
12306SOL    HW349544   8.046   3.130   4.685
12306SOL    MW449545   8.116   3.156   4.729
12307SOL     OW49546   7.574   3.254   5.385
12307SOL    HW249547   7.618   3.187   5.331
12307SOL    HW349548   7.489   3.216   5.405
12307SOL    MW449549   7.569   3.240   5.381
12308SOL     OW49550   8.015   3.169   4.186
12308SOL    HW249551   8.008   3.201   4.276
12308SOL    HW349552   7.925   3.153   4.158
12308SOL    MW449553   8.003   3.171   4.193
12309SOL     OW49554   8.018   2.453   3.900
12309SOL    HW249555   7.984   2.509   3.970
12309SOL    HW349556   8.089   2.403   3.940
12309SOL    MW449557   8.024   2.454   3.914
12310SOL     OW49558   7.934   1.994   4.393
12310SOL    HW249559   7.984   2.037   4.324
12310SOL    HW349560   7.849   2.038   4.393
12310SOL    MW449561   7.931   2.007   4.384
12311SOL     OW49562   7.693   3.056   5.253
12311SOL    HW249563   7.721   3.009   5.331
12311SOL    HW349564   7.614   3.011   5.224
12311SOL    MW449565   7.686   3.045   5.259
12312SOL     OW49566   7.856   2.779   4.433
12312SOL    HW249567   7.914   2.835   4.381
12312SOL    HW349568   7.900   2.694   4.435
12312SOL    MW449569   7.869   2.776   4.426
12313SOL     OW49570   7.563   3.379   4.605
12313SOL    HW249571   7.595   3.383   4.696
12313SOL    HW349572   7.468   3.387   4.613
12313SOL    MW449573   7.555   3.382   4.618
12314SOL     OW49574   7.518   2.505   4.152
12314SOL    HW249575   7.458   2.477   4.222
12314SOL    HW349576   7.592   2.445   4.158
12314SOL    MW449577   7.520   2.494   4.161
12315SOL     OW49578   7.944   2.244   5.041
12315SOL    HW249579   7.977   2.325   5.081
12315SOL    HW349580   7.917   2.270   4.953
12315SOL    MW449581   7.943   2.258   5.035
12316SOL     OW49582   7.898   2.211   4.777
12316SOL    HW249583   7.928   2.125   4.748
12316SOL    HW349584   7.803   2.204   4.780
12316SOL    MW449585   7.890   2.200   4.775
12317SOL     OW49586   7.962   3.141   4.957
12317SOL    HW249587   7.974   3.168   5.048
12317SOL    HW349588   7.943   3.222   4.910
12317SOL    MW449589   7.961   3.156   4.962
12318SOL     OW49590   7.734   2.853   4.050
12318SOL    HW249591   7.671   2.869   3.979
12318SOL    HW349592   7.681   2.816   4.121
12318SOL    MW449593   7.719   2.850   4.050
12319SOL     OW49594   7.888   3.596   4.630
12319SOL    HW249595   7.892   3.507   4.665
12319SOL    HW349596   7.914   3.587   4.539
12319SOL    MW449597   7.891   3.584   4.622
12320SOL     OW49598   7.594   3.349   5.124
12320SOL    HW249599   7.584   3.307   5.210
12320SOL    HW349600   7.515   3.402   5.114
12320SOL    MW449601   7.583   3.350   5.135
12321SOL     OW49602   7.520   3.654   5.579
12321SOL    HW249603   7.570   3.632   5.501
12321SOL    HW349604   7.528   3.749   5.587
12321SOL    MW449605   7.528   3.663   5.570
12322SOL     OW49606   8.281   3.412   4.583
12322SOL    HW249607   8.209   3.349   4.596
12322SOL    HW349608   8.242   3.497   4.601
12322SOL    MW449609   8.265   3.415   4.586
12323SOL     OW49610   7.686   1.950   4.163
12323SOL    HW249611   7.757   1.971   4.102
12323SOL    HW349612   7.640   1.878   4.121
12323SOL    MW449613   7.690   1.944   4.149
12324SOL     OW49614   7.517   2.417   5.306
12324SOL    HW249615   7.581   2.483   5.281
12324SOL    HW349616   7.436   2.444   5.263
12324SOL    MW449617   7.515   2.429   5.298
12325SOL     OW49618   7.702   2.643   5.247
12325SOL    HW249619   7.723   2.712   5.185
12325SOL    HW349620   7.782   2.590   5.252
12325SOL    MW449621   7.715   2.644   5.241
12326SOL     OW49622   7.687   2.658   5.514
12326SOL    HW249623   7.613   2.602   5.540
12326SOL    HW349624   7.682   2.661   5.419
12326SOL    MW449625   7.676   2.651   5.504
12327SOL     OW49626   7.853   1.945   4.964
12327SOL    HW249627   7.896   2.029   4.984
12327SOL    HW349628   7.926   1.883   4.957
12327SOL    MW449629   7.868   1.948   4.965
12328SOL     OW49630   7.653   2.343   4.431
12328SOL    HW249631   7.715   2.350   4.504
12328SOL    HW349632   7.653   2.250   4.408
12328SOL    MW449633   7.661   2.332   4.438
12329SOL     OW49634   8.139   2.074   5.020
12329SOL    HW249635   8.070   2.137   5.041
12329SOL    HW349636   8.166   2.038   5.105
12329SOL    MW449637   8.133   2.077   5.033
12330SOL     OW49638   7.522   2.915   3.889
12330SOL    HW249639   7.491   2.980   3.952
12330SOL    HW349640   7.471   2.837   3.908
12330SOL    MW449641   7.512   2.912   3.899
12331SOL     OW49642   7.834   2.892   5.426
12331SOL    HW249643   7.788   2.808   5.428
12331SOL    HW349644   7.891   2.886   5.350
12331SOL    MW449645   7.836   2.880   5.418
12332SOL     OW49646   7.777   2.559   4.710
12332SOL    HW249647   7.727   2.558   4.791
12332SOL    HW349648   7.797   2.651   4.694
12332SOL    MW449649   7.773   2.571   4.718
12333SOL     OW49650   7.699   2.227   5.451
12333SOL    HW249651   7.656   2.286   5.388
12333SOL    HW349652   7.767   2.282   5.491
12333SOL    MW449653   7.703   2.242   5.448
12334SOL     OW49654   7.598   1.867   4.874
12334SOL    HW249655   7.589   1.868   4.779
12334SOL    HW349656   7.692   1.879   4.889
12334SOL    MW449657   7.610   1.870   4.865
12335SOL     OW49658   7.811   1.994   3.920
12335SOL    HW249659   7.740   2.049   3.888
12335SOL    HW349660   7.853   1.960   3.841
12335SOL    MW449661   7.807   1.996   3.906
12336SOL     OW49662   7.567   2.093   3.769
12336SOL    HW249663   7.534   2.172   3.813
12336SOL    HW349664   7.622   2.126   3.698
12336SOL    MW449665   7.570   2.107   3.766
12337SOL     OW49666   7.601   3.350   3.958
12337SOL    HW249667   7.618   3.434   4.000
12337SOL    HW349668   7.636   3.359   3.870
12337SOL    MW449669   7.606   3.363   3.952
12338SOL     OW49670   7.756   2.374   6.032
12338SOL    HW249671   7.788   2.462   6.014
12338SOL    HW349672   7.744   2.372   6.127
12338SOL    MW449673   7.759   2.386   6.044
12339SOL     OW49674   8.019   2.560   6.285
12339SOL    HW249675   8.004   2.480   6.336
12339SOL    HW349676   8.101   2.595   6.319
12339SOL    MW449677   8.027   2.552   6.297
12340SOL     OW49678   7.907   2.800   6.566
12340SOL    HW249679   7.862   2.807   6.482
12340SOL    HW349680   7.887   2.883   6.610
12340SOL    MW449681   7.899   2.812   6.560
12341SOL     OW49682   7.604   3.646   6.441
12341SOL    HW249683   7.693   3.638   6.476
12341SOL    HW349684   7.568   3.558   6.446
12341SOL    MW449685   7.611   3.633   6.446
12342SOL     OW49686   7.918   2.152   5.971
12342SOL    HW249687   7.892   2.114   5.887
12342SOL    HW349688   7.855   2.222   5.987
12342SOL    MW449689   7.907   2.155   5.962
12343SOL     OW49690   7.753   3.113   6.008
12343SOL    HW249691   7.701   3.181   5.964
12343SOL    HW349692   7.750   3.039   5.948
12343SOL    MW449693   7.745   3.112   5.995
12344SOL     OW49694   7.943   3.569   6.241
12344SOL    HW249695   7.975   3.657   6.219
12344SOL    HW349696   7.896   3.541   6.163
12344SOL    MW449697   7.942   3.577   6.228
12345SOL     OW49698   7.659   3.629   5.818
12345SOL    HW249699   7.688   3.719   5.810
12345SOL    HW349700   7.609   3.612   5.739
12345SOL    MW449701   7.657   3.637   5.807
12346SOL     OW49702   7.688   2.088   6.264
12346SOL    HW249703   7.679   2.028   6.190
12346SOL    HW349704   7.621   2.059   6.327
12346SOL    MW449705   7.678   2.075   6.262
12347SOL     OW49706   7.621   2.733   6.162
12347SOL    HW249707   7.712   2.748   6.189
12347SOL    HW349708   7.624   2.654   6.108
12347SOL    MW449709   7.633   2.725   6.160
12348SOL     OW49710   7.629   3.345   6.201
12348SOL    HW249711   7.601   3.384   6.283
12348SOL    HW349712   7.649   3.254   6.223
12348SOL    MW449713   7.627   3.337   6.214
12349SOL     OW49714   8.152   2.807   6.376
12349SOL    HW249715   8.063   2.798   6.409
12349SOL    HW349716   8.156   2.897   6.344
12349SOL    MW449717   8.141   2.818   6.376
12350SOL     OW49718   7.826   3.489   6.030
12350SOL    HW249719   7.787   3.536   5.956
12350SOL    HW349720   7.760   3.424   6.055
12350SOL    MW449721   7.813   3.487   6.024
12351SOL     OW49722   7.633   3.076   6.321
12351SOL    HW249723   7.697   3.108   6.384
12351SOL    HW349724   7.682   3.012   6.269
12351SOL    MW449725   7.648   3.072   6.322
12352SOL     OW49726   7.911   3.389   6.693
12352SOL    HW249727   7.956   3.451   6.750
12352SOL    HW349728   7.818   3.408   6.706
12352SOL    MW449729   7.904   3.399   6.700
12353SOL     OW49730   8.015   3.169   6.055
12353SOL    HW249731   8.008   3.201   6.145
12353SOL    HW349732   7.925   3.153   6.027
12353SOL    MW449733   8.003   3.171   6.062
12354SOL     OW49734   8.018   2.453   5.769
12354SOL    HW249735   7.984   2.509   5.839
12354SOL    HW349736   8.089   2.403   5.809
12354SOL    MW449737   8.024   2.454   5.783
12355SOL     OW49738   7.934   1.994   6.262
12355SOL    HW249739   7.984   2.037   6.193
12355SOL    HW349740   7.849   2.038   6.262
12355SOL    MW449741   7.931   2.007   6.253
12356SOL     OW49742   7.856   2.779   6.302
12356SOL    HW249743   7.914   2.835   6.250
12356SOL    HW349744   7.900   2.694   6.304
12356SOL    MW449745   7.869   2.776   6.295
12357SOL     OW49746   7.518   2.505   6.021
12357SOL    HW249747   7.458   2.477   6.091
12357SOL    HW349748   7.592   2.445   6.027
12357SOL    MW449749   7.520   2.494   6.030
12358SOL     OW49750   7.734   2.853   5.919
12358SOL    HW249751   7.671   2.869   5.848
12358SOL    HW349752   7.681   2.816   5.990
12358SOL    MW449753   7.719   2.850   5.919
12359SOL     OW49754   7.888   3.596   6.499
12359SOL    HW249755   7.892   3.507   6.534
12359SOL    HW349756   7.914   3.587   6.408
12359SOL    MW449757   7.891   3.584   6.491
12360SOL     OW49758   8.281   3.412   6.452
12360SOL    HW249759   8.209   3.349   6.465
12360SOL    HW349760   8.242   3.497   6.470
12360SOL    MW449761   8.265   3.415   6.455
12361SOL     OW49762   7.686   1.950   6.032
12361SOL    HW249763   7.757   1.971   5.971
12361SOL    HW349764   7.640   1.878   5.990
12361SOL    MW449765   7.690   1.944   6.018
12362SOL     OW49766   7.653   2.343   6.300
12362SOL    HW249767   7.715   2.350   6.373
12362SOL    HW349768   7.653   2.250   6.277
12362SOL    MW449769   7.661   2.332   6.307
12363SOL     OW49770   7.522   2.915   5.758
12363SOL    HW249771   7.491   2.980   5.821
12363SOL    HW349772   7.471   2.837   5.777
12363SOL    MW449773   7.512   2.912   5.768
12364SOL     OW49774   7.811   1.994   5.789
12364SOL    HW249775   7.740   2.049   5.757
12364SOL    HW349776   7.853   1.960   5.710
12364SOL    MW449777   7.807   1.996   5.775
12365SOL     OW49778   7.567   2.093   5.638
12365SOL    HW249779   7.534   2.172   5.682
12365SOL    HW349780   7.622   2.126   5.567
12365SOL    MW449781   7.570   2.107   5.635
12366SOL     OW49782   7.601   3.350   5.827
12366SOL    HW249783   7.618   3.434   5.869
12366SOL    HW349784   7.636   3.359   5.739
12366SOL    MW449785   7.606   3.363   5.821
12367SOL     OW49786   7.756   4.242   0.427
12367SOL    HW249787   7.788   4.330   0.409
12367SOL    HW349788   7.744   4.240   0.522
12367SOL    MW449789   7.759   4.254   0.439
12368SOL     OW49790   7.834   4.655   1.328
12368SOL    HW249791   7.897   4.602   1.279
12368SOL    HW349792   7.815   4.729   1.271
12368SOL    MW449793   7.840   4.657   1.315
12369SOL     OW49794   8.019   4.428   0.680
12369SOL    HW249795   8.004   4.348   0.731
12369SOL    HW349796   8.101   4.463   0.714
12369SOL    MW449797   8.027   4.420   0.692
12370SOL     OW49798   7.907   4.668   0.961
12370SOL    HW249799   7.862   4.675   0.877
12370SOL    HW349800   7.887   4.751   1.005
12370SOL    MW449801   7.899   4.680   0.955
12371SOL     OW49802   7.604   5.514   0.836
12371SOL    HW249803   7.693   5.506   0.871
12371SOL    HW349804   7.568   5.426   0.841
12371SOL    MW449805   7.611   5.501   0.841
12372SOL     OW49806   7.868   5.041   0.871
12372SOL    HW249807   7.844   5.094   0.947
12372SOL    HW349808   7.924   5.099   0.819
12372SOL    MW449809   7.872   5.056   0.874
12373SOL     OW49810   7.838   5.337   1.466
12373SOL    HW249811   7.746   5.313   1.451
12373SOL    HW349812   7.882   5.254   1.483
12373SOL    MW449813   7.832   5.322   1.465
12374SOL     OW49814   7.918   4.020   0.366
12374SOL    HW249815   7.892   3.982   0.282
12374SOL    HW349816   7.855   4.090   0.382
12374SOL    MW449817   7.907   4.023   0.357
12375SOL     OW49818   7.753   4.981   0.403
12375SOL    HW249819   7.701   5.049   0.359
12375SOL    HW349820   7.750   4.907   0.343
12375SOL    MW449821   7.745   4.980   0.390
12376SOL     OW49822   7.636   5.335   1.130
12376SOL    HW249823   7.619   5.281   1.207
12376SOL    HW349824   7.624   5.425   1.160
12376SOL    MW449825   7.633   5.339   1.144
12377SOL     OW49826   7.943   5.437   0.636
12377SOL    HW249827   7.975   5.525   0.614
12377SOL    HW349828   7.896   5.409   0.558
12377SOL    MW449829   7.942   5.445   0.623
12378SOL     OW49830   7.688   3.956   0.659
12378SOL    HW249831   7.679   3.896   0.585
12378SOL    HW349832   7.621   3.927   0.722
12378SOL    MW449833   7.678   3.943   0.657
12379SOL     OW49834   7.635   4.129   1.022
12379SOL    HW249835   7.607   4.220   1.031
12379SOL    HW349836   7.572   4.090   0.961
12379SOL    MW449837   7.622   4.135   1.016
12380SOL     OW49838   7.619   4.404   1.192
12380SOL    HW249839   7.681   4.434   1.258
12380SOL    HW349840   7.553   4.473   1.186
12380SOL    MW449841   7.618   4.417   1.199
12381SOL     OW49842   7.714   5.513   1.644
12381SOL    HW249843   7.688   5.581   1.582
12381SOL    HW349844   7.762   5.450   1.592
12381SOL    MW449845   7.716   5.513   1.630
12382SOL     OW49846   7.766   4.832   1.151
12382SOL    HW249847   7.819   4.907   1.176
12382SOL    HW349848   7.685   4.870   1.117
12382SOL    MW449849   7.762   4.847   1.151
12383SOL     OW49850   7.621   4.601   0.557
12383SOL    HW249851   7.712   4.616   0.584
12383SOL    HW349852   7.624   4.522   0.503
12383SOL    MW449853   7.633   4.593   0.555
12384SOL     OW49854   7.857   4.309   1.811
12384SOL    HW249855   7.804   4.389   1.818
12384SOL    HW349856   7.927   4.321   1.876
12384SOL    MW449857   7.859   4.322   1.819
12385SOL     OW49858   7.629   5.213   0.596
12385SOL    HW249859   7.601   5.252   0.678
12385SOL    HW349860   7.649   5.122   0.618
12385SOL    MW449861   7.627   5.205   0.609
12386SOL     OW49862   8.152   4.675   0.771
12386SOL    HW249863   8.063   4.666   0.804
12386SOL    HW349864   8.156   4.765   0.739
12386SOL    MW449865   8.141   4.686   0.771
12387SOL     OW49866   7.922   3.945   1.583
12387SOL    HW249867   7.843   3.963   1.635
12387SOL    HW349868   7.917   4.007   1.510
12387SOL    MW449869   7.912   3.955   1.580
12388SOL     OW49870   7.826   5.357   0.425
12388SOL    HW249871   7.787   5.404   0.351
12388SOL    HW349872   7.760   5.292   0.450
12388SOL    MW449873   7.813   5.355   0.419
12389SOL     OW49874   7.633   4.944   0.716
12389SOL    HW249875   7.697   4.976   0.779
12389SOL    HW349876   7.682   4.880   0.664
12389SOL    MW449877   7.648   4.940   0.717
12390SOL     OW49878   7.709   5.262   1.838
12390SOL    HW249879   7.765   5.186   1.853
12390SOL    HW349880   7.658   5.240   1.760
12390SOL    MW449881   7.709   5.249   1.829
12391SOL     OW49882   7.911   5.257   1.088
12391SOL    HW249883   7.956   5.319   1.145
12391SOL    HW349884   7.818   5.276   1.101
12391SOL    MW449885   7.904   5.267   1.095
12392SOL     OW49886   8.128   5.030   0.986
12392SOL    HW249887   8.121   5.009   1.080
12392SOL    HW349888   8.046   4.998   0.949
12392SOL    MW449889   8.116   5.024   0.993
12393SOL     OW49890   7.574   5.122   1.649
12393SOL    HW249891   7.618   5.055   1.595
12393SOL    HW349892   7.489   5.084   1.669
12393SOL    MW449893   7.569   5.108   1.645
12394SOL     OW49894   8.015   5.037   0.450
12394SOL    HW249895   8.008   5.069   0.540
12394SOL    HW349896   7.925   5.021   0.422
12394SOL    MW449897   8.003   5.039   0.457
12395SOL     OW49898   7.934   3.862   0.657
12395SOL    HW249899   7.984   3.905   0.588
12395SOL    HW349900   7.849   3.906   0.657
12395SOL    MW449901   7.931   3.875   0.648
12396SOL     OW49902   7.693   4.924   1.517
12396SOL    HW249903   7.721   4.877   1.595
12396SOL    HW349904   7.614   4.879   1.488
12396SOL    MW449905   7.686   4.913   1.523
12397SOL     OW49906   7.856   4.647   0.697
12397SOL    HW249907   7.914   4.703   0.645
12397SOL    HW349908   7.900   4.562   0.699
12397SOL    MW449909   7.869   4.644   0.690
12398SOL     OW49910   7.563   5.247   0.869
12398SOL    HW249911   7.595   5.251   0.960
12398SOL    HW349912   7.468   5.255   0.877
12398SOL    MW449913   7.555   5.250   0.882
12399SOL     OW49914   7.518   4.373   0.416
12399SOL    HW249915   7.458   4.345   0.486
12399SOL    HW349916   7.592   4.313   0.422
12399SOL    MW449917   7.520   4.362   0.425
12400SOL     OW49918   7.944   4.112   1.305
12400SOL    HW249919   7.977   4.193   1.345
12400SOL    HW349920   7.917   4.138   1.217
12400SOL    MW449921   7.943   4.126   1.299
12401SOL     OW49922   7.898   4.079   1.041
12401SOL    HW249923   7.928   3.993   1.012
12401SOL    HW349924   7.803   4.072   1.044
12401SOL    MW449925   7.890   4.068   1.039
12402SOL     OW49926   7.962   5.009   1.221
12402SOL    HW249927   7.974   5.036   1.312
12402SOL    HW349928   7.943   5.090   1.174
12402SOL    MW449929   7.961   5.024   1.226
12403SOL     OW49930   7.734   4.721   0.314
12403SOL    HW249931   7.671   4.737   0.243
12403SOL    HW349932   7.681   4.684   0.385
12403SOL    MW449933   7.719   4.718   0.314
12404SOL     OW49934   7.888   5.464   0.894
12404SOL    HW249935   7.892   5.375   0.929
12404SOL    HW349936   7.914   5.455   0.803
12404SOL    MW449937   7.891   5.452   0.886
12405SOL     OW49938   7.594   5.217   1.388
12405SOL    HW249939   7.584   5.175   1.474
12405SOL    HW349940   7.515   5.270   1.378
12405SOL    MW449941   7.583   5.218   1.399
12406SOL     OW49942   7.520   5.522   1.843
12406SOL    HW249943   7.570   5.500   1.765
12406SOL    HW349944   7.528   5.617   1.851
12406SOL    MW449945   7.528   5.531   1.834
12407SOL     OW49946   8.281   5.280   0.847
12407SOL    HW249947   8.209   5.217   0.860
12407SOL    HW349948   8.242   5.365   0.865
12407SOL    MW449949   8.265   5.283   0.850
12408SOL     OW49950   7.686   3.818   0.427
12408SOL    HW249951   7.757   3.839   0.366
12408SOL    HW349952   7.640   3.746   0.385
12408SOL    MW449953   7.690   3.812   0.413
12409SOL     OW49954   7.517   4.285   1.570
12409SOL    HW249955   7.581   4.351   1.545
12409SOL    HW349956   7.436   4.312   1.527
12409SOL    MW449957   7.515   4.297   1.562
12410SOL     OW49958   7.702   4.511   1.511
12410SOL    HW249959   7.723   4.580   1.449
12410SOL    HW349960   7.782   4.458   1.516
12410SOL    MW449961   7.715   4.512   1.505
12411SOL     OW49962   7.687   4.526   1.778
12411SOL    HW249963   7.613   4.470   1.804
12411SOL    HW349964   7.682   4.529   1.683
12411SOL    MW449965   7.676   4.519   1.768
12412SOL     OW49966   7.853   3.813   1.228
12412SOL    HW249967   7.896   3.897   1.248
12412SOL    HW349968   7.926   3.751   1.221
12412SOL    MW449969   7.868   3.816   1.229
12413SOL     OW49970   7.653   4.211   0.695
12413SOL    HW249971   7.715   4.218   0.768
12413SOL    HW349972   7.653   4.118   0.672
12413SOL    MW449973   7.661   4.200   0.702
12414SOL     OW49974   8.139   3.942   1.284
12414SOL    HW249975   8.070   4.005   1.305
12414SOL    HW349976   8.166   3.906   1.369
12414SOL    MW449977   8.133   3.945   1.297
12415SOL     OW49978   7.834   4.760   1.690
12415SOL    HW249979   7.788   4.676   1.692
12415SOL    HW349980   7.891   4.754   1.614
12415SOL    MW449981   7.836   4.748   1.682
12416SOL     OW49982   7.777   4.427   0.974
12416SOL    HW249983   7.727   4.426   1.055
12416SOL    HW349984   7.797   4.519   0.958
12416SOL    MW449985   7.773   4.439   0.982
12417SOL     OW49986   7.699   4.095   1.715
12417SOL    HW249987   7.656   4.154   1.652
12417SOL    HW349988   7.767   4.150   1.755
12417SOL    MW449989   7.703   4.110   1.712
12418SOL     OW49990   7.598   3.735   1.138
12418SOL    HW249991   7.589   3.736   1.043
12418SOL    HW349992   7.692   3.747   1.153
12418SOL    MW449993   7.610   3.738   1.129
12419SOL     OW49994   7.756   4.242   2.295
12419SOL    HW249995   7.788   4.330   2.277
12419SOL    HW349996   7.744   4.240   2.390
12419SOL    MW449997   7.759   4.254   2.307
12420SOL     OW49998   7.834   4.655   3.196
12420SOL    HW249999   7.897   4.602   3.147
12420SOL    HW350000   7.815   4.729   3.139
12420SOL    MW450001   7.840   4.657   3.183
12421SOL     OW50002   8.019   4.428   2.548
12421SOL    HW250003   8.004   4.348   2.599
12421SOL    HW350004   8.101   4.463   2.582
12421SOL    MW450005   8.027   4.420   2.560
12422SOL     OW50006   7.907   4.668   2.829
12422SOL    HW250007   7.862   4.675   2.745
12422SOL    HW350008   7.887   4.751   2.873
12422SOL    MW450009   7.899   4.680   2.823
12423SOL     OW50010   7.604   5.514   2.704
12423SOL    HW250011   7.693   5.506   2.739
12423SOL    HW350012   7.568   5.426   2.709
12423SOL    MW450013   7.611   5.501   2.709
12424SOL     OW50014   7.868   5.041   2.739
12424SOL    HW250015   7.844   5.094   2.815
12424SOL    HW350016   7.924   5.099   2.687
12424SOL    MW450017   7.872   5.056   2.742
12425SOL     OW50018   7.838   5.337   3.334
12425SOL    HW250019   7.746   5.313   3.319
12425SOL    HW350020   7.882   5.254   3.351
12425SOL    MW450021   7.832   5.322   3.333
12426SOL     OW50022   7.918   4.020   2.234
12426SOL    HW250023   7.892   3.982   2.150
12426SOL    HW350024   7.855   4.090   2.250
12426SOL    MW450025   7.907   4.023   2.225
12427SOL     OW50026   7.753   4.981   2.271
12427SOL    HW250027   7.701   5.049   2.227
12427SOL    HW350028   7.750   4.907   2.211
12427SOL    MW450029   7.745   4.980   2.258
12428SOL     OW50030   7.636   5.335   2.998
12428SOL    HW250031   7.619   5.281   3.075
12428SOL    HW350032   7.624   5.425   3.028
12428SOL    MW450033   7.633   5.339   3.012
12429SOL     OW50034   7.943   5.437   2.504
12429SOL    HW250035   7.975   5.525   2.482
12429SOL    HW350036   7.896   5.409   2.426
12429SOL    MW450037   7.942   5.445   2.491
12430SOL     OW50038   7.659   5.497   2.081
12430SOL    HW250039   7.688   5.587   2.073
12430SOL    HW350040   7.609   5.480   2.002
12430SOL    MW450041   7.657   5.505   2.070
12431SOL     OW50042   7.688   3.956   2.527
12431SOL    HW250043   7.679   3.896   2.453
12431SOL    HW350044   7.621   3.927   2.590
12431SOL    MW450045   7.678   3.943   2.525
12432SOL     OW50046   7.635   4.129   2.890
12432SOL    HW250047   7.607   4.220   2.899
12432SOL    HW350048   7.572   4.090   2.829
12432SOL    MW450049   7.622   4.135   2.884
12433SOL     OW50050   7.619   4.404   3.060
12433SOL    HW250051   7.681   4.434   3.126
12433SOL    HW350052   7.553   4.473   3.054
12433SOL    MW450053   7.618   4.417   3.067
12434SOL     OW50054   7.714   5.513   3.512
12434SOL    HW250055   7.688   5.581   3.450
12434SOL    HW350056   7.762   5.450   3.460
12434SOL    MW450057   7.716   5.513   3.498
12435SOL     OW50058   7.766   4.832   3.019
12435SOL    HW250059   7.819   4.907   3.044
12435SOL    HW350060   7.685   4.870   2.985
12435SOL    MW450061   7.762   4.847   3.019
12436SOL     OW50062   7.621   4.601   2.425
12436SOL    HW250063   7.712   4.616   2.452
12436SOL    HW350064   7.624   4.522   2.371
12436SOL    MW450065   7.633   4.593   2.423
12437SOL     OW50066   7.857   4.309   3.679
12437SOL    HW250067   7.804   4.389   3.686
12437SOL    HW350068   7.927   4.321   3.744
12437SOL    MW450069   7.859   4.322   3.687
12438SOL     OW50070   7.629   5.213   2.464
12438SOL    HW250071   7.601   5.252   2.546
12438SOL    HW350072   7.649   5.122   2.486
12438SOL    MW450073   7.627   5.205   2.477
12439SOL     OW50074   8.152   4.675   2.639
12439SOL    HW250075   8.063   4.666   2.672
12439SOL    HW350076   8.156   4.765   2.607
12439SOL    MW450077   8.141   4.686   2.639
12440SOL     OW50078   7.922   3.945   3.451
12440SOL    HW250079   7.843   3.963   3.503
12440SOL    HW350080   7.917   4.007   3.378
12440SOL    MW450081   7.912   3.955   3.448
12441SOL     OW50082   7.826   5.357   2.293
12441SOL    HW250083   7.787   5.404   2.219
12441SOL    HW350084   7.760   5.292   2.318
12441SOL    MW450085   7.813   5.355   2.287
12442SOL     OW50086   7.633   4.944   2.584
12442SOL    HW250087   7.697   4.976   2.647
12442SOL    HW350088   7.682   4.880   2.532
12442SOL    MW450089   7.648   4.940   2.585
12443SOL     OW50090   7.709   5.262   3.706
12443SOL    HW250091   7.765   5.186   3.721
12443SOL    HW350092   7.658   5.240   3.628
12443SOL    MW450093   7.709   5.249   3.697
12444SOL     OW50094   7.911   5.257   2.956
12444SOL    HW250095   7.956   5.319   3.013
12444SOL    HW350096   7.818   5.276   2.969
12444SOL    MW450097   7.904   5.267   2.963
12445SOL     OW50098   8.128   5.030   2.854
12445SOL    HW250099   8.121   5.009   2.948
12445SOL    HW350100   8.046   4.998   2.817
12445SOL    MW450101   8.116   5.024   2.861
12446SOL     OW50102   7.574   5.122   3.517
12446SOL    HW250103   7.618   5.055   3.463
12446SOL    HW350104   7.489   5.084   3.537
12446SOL    MW450105   7.569   5.108   3.513
12447SOL     OW50106   8.015   5.037   2.318
12447SOL    HW250107   8.008   5.069   2.408
12447SOL    HW350108   7.925   5.021   2.290
12447SOL    MW450109   8.003   5.039   2.325
12448SOL     OW50110   8.018   4.321   2.032
12448SOL    HW250111   7.984   4.377   2.102
12448SOL    HW350112   8.089   4.271   2.072
12448SOL    MW450113   8.024   4.322   2.046
12449SOL     OW50114   7.934   3.862   2.525
12449SOL    HW250115   7.984   3.905   2.456
12449SOL    HW350116   7.849   3.906   2.525
12449SOL    MW450117   7.931   3.875   2.516
12450SOL     OW50118   7.693   4.924   3.385
12450SOL    HW250119   7.721   4.877   3.463
12450SOL    HW350120   7.614   4.879   3.356
12450SOL    MW450121   7.686   4.913   3.391
12451SOL     OW50122   7.856   4.647   2.565
12451SOL    HW250123   7.914   4.703   2.513
12451SOL    HW350124   7.900   4.562   2.567
12451SOL    MW450125   7.869   4.644   2.558
12452SOL     OW50126   7.563   5.247   2.737
12452SOL    HW250127   7.595   5.251   2.828
12452SOL    HW350128   7.468   5.255   2.745
12452SOL    MW450129   7.555   5.250   2.750
12453SOL     OW50130   7.518   4.373   2.284
12453SOL    HW250131   7.458   4.345   2.354
12453SOL    HW350132   7.592   4.313   2.290
12453SOL    MW450133   7.520   4.362   2.293
12454SOL     OW50134   7.944   4.112   3.173
12454SOL    HW250135   7.977   4.193   3.213
12454SOL    HW350136   7.917   4.138   3.085
12454SOL    MW450137   7.943   4.126   3.167
12455SOL     OW50138   7.898   4.079   2.909
12455SOL    HW250139   7.928   3.993   2.880
12455SOL    HW350140   7.803   4.072   2.912
12455SOL    MW450141   7.890   4.068   2.907
12456SOL     OW50142   7.962   5.009   3.089
12456SOL    HW250143   7.974   5.036   3.180
12456SOL    HW350144   7.943   5.090   3.042
12456SOL    MW450145   7.961   5.024   3.094
12457SOL     OW50146   7.734   4.721   2.182
12457SOL    HW250147   7.671   4.737   2.111
12457SOL    HW350148   7.681   4.684   2.253
12457SOL    MW450149   7.719   4.718   2.182
12458SOL     OW50150   7.888   5.464   2.762
12458SOL    HW250151   7.892   5.375   2.797
12458SOL    HW350152   7.914   5.455   2.671
12458SOL    MW450153   7.891   5.452   2.754
12459SOL     OW50154   7.594   5.217   3.256
12459SOL    HW250155   7.584   5.175   3.342
12459SOL    HW350156   7.515   5.270   3.246
12459SOL    MW450157   7.583   5.218   3.267
12460SOL     OW50158   7.520   5.522   3.711
12460SOL    HW250159   7.570   5.500   3.633
12460SOL    HW350160   7.528   5.617   3.719
12460SOL    MW450161   7.528   5.531   3.702
12461SOL     OW50162   8.281   5.280   2.715
12461SOL    HW250163   8.209   5.217   2.728
12461SOL    HW350164   8.242   5.365   2.733
12461SOL    MW450165   8.265   5.283   2.718
12462SOL     OW50166   7.686   3.818   2.295
12462SOL    HW250167   7.757   3.839   2.234
12462SOL    HW350168   7.640   3.746   2.253
12462SOL    MW450169   7.690   3.812   2.281
12463SOL     OW50170   7.517   4.285   3.438
12463SOL    HW250171   7.581   4.351   3.413
12463SOL    HW350172   7.436   4.312   3.395
12463SOL    MW450173   7.515   4.297   3.430
12464SOL     OW50174   7.702   4.511   3.379
12464SOL    HW250175   7.723   4.580   3.317
12464SOL    HW350176   7.782   4.458   3.384
12464SOL    MW450177   7.715   4.512   3.373
12465SOL     OW50178   7.687   4.526   3.646
12465SOL    HW250179   7.613   4.470   3.672
12465SOL    HW350180   7.682   4.529   3.551
12465SOL    MW450181   7.676   4.519   3.636
12466SOL     OW50182   7.853   3.813   3.096
12466SOL    HW250183   7.896   3.897   3.116
12466SOL    HW350184   7.926   3.751   3.089
12466SOL    MW450185   7.868   3.816   3.097
12467SOL     OW50186   7.653   4.211   2.563
12467SOL    HW250187   7.715   4.218   2.636
12467SOL    HW350188   7.653   4.118   2.540
12467SOL    MW450189   7.661   4.200   2.570
12468SOL     OW50190   8.139   3.942   3.152
12468SOL    HW250191   8.070   4.005   3.173
12468SOL    HW350192   8.166   3.906   3.237
12468SOL    MW450193   8.133   3.945   3.165
12469SOL     OW50194   7.522   4.783   2.021
12469SOL    HW250195   7.491   4.848   2.084
12469SOL    HW350196   7.471   4.705   2.040
12469SOL    MW450197   7.512   4.780   2.031
12470SOL     OW50198   7.834   4.760   3.558
12470SOL    HW250199   7.788   4.676   3.560
12470SOL    HW350200   7.891   4.754   3.482
12470SOL    MW450201   7.836   4.748   3.550
12471SOL     OW50202   7.777   4.427   2.842
12471SOL    HW250203   7.727   4.426   2.923
12471SOL    HW350204   7.797   4.519   2.826
12471SOL    MW450205   7.773   4.439   2.850
12472SOL     OW50206   7.699   4.095   3.583
12472SOL    HW250207   7.656   4.154   3.520
12472SOL    HW350208   7.767   4.150   3.623
12472SOL    MW450209   7.703   4.110   3.580
12473SOL     OW50210   7.598   3.735   3.006
12473SOL    HW250211   7.589   3.736   2.911
12473SOL    HW350212   7.692   3.747   3.021
12473SOL    MW450213   7.610   3.738   2.997
12474SOL     OW50214   7.811   3.862   2.052
12474SOL    HW250215   7.740   3.917   2.020
12474SOL    HW350216   7.853   3.828   1.973
12474SOL    MW450217   7.807   3.864   2.038
12475SOL     OW50218   7.567   3.961   1.901
12475SOL    HW250219   7.534   4.040   1.945
12475SOL    HW350220   7.622   3.994   1.830
12475SOL    MW450221   7.570   3.975   1.898
12476SOL     OW50222   7.601   5.218   2.090
12476SOL    HW250223   7.618   5.302   2.132
12476SOL    HW350224   7.636   5.227   2.002
12476SOL    MW450225   7.606   5.231   2.084
12477SOL     OW50226   7.756   4.242   4.163
12477SOL    HW250227   7.788   4.330   4.145
12477SOL    HW350228   7.744   4.240   4.258
12477SOL    MW450229   7.759   4.254   4.175
12478SOL     OW50230   7.834   4.655   5.064
12478SOL    HW250231   7.897   4.602   5.015
12478SOL    HW350232   7.815   4.729   5.007
12478SOL    MW450233   7.840   4.657   5.051
12479SOL     OW50234   8.019   4.428   4.416
12479SOL    HW250235   8.004   4.348   4.467
12479SOL    HW350236   8.101   4.463   4.450
12479SOL    MW450237   8.027   4.420   4.428
12480SOL     OW50238   7.907   4.668   4.697
12480SOL    HW250239   7.862   4.675   4.613
12480SOL    HW350240   7.887   4.751   4.741
12480SOL    MW450241   7.899   4.680   4.691
12481SOL     OW50242   7.604   5.514   4.572
12481SOL    HW250243   7.693   5.506   4.607
12481SOL    HW350244   7.568   5.426   4.577
12481SOL    MW450245   7.611   5.501   4.577
12482SOL     OW50246   7.868   5.041   4.607
12482SOL    HW250247   7.844   5.094   4.683
12482SOL    HW350248   7.924   5.099   4.555
12482SOL    MW450249   7.872   5.056   4.610
12483SOL     OW50250   7.838   5.337   5.202
12483SOL    HW250251   7.746   5.313   5.187
12483SOL    HW350252   7.882   5.254   5.219
12483SOL    MW450253   7.832   5.322   5.201
12484SOL     OW50254   7.918   4.020   4.102
12484SOL    HW250255   7.892   3.982   4.018
12484SOL    HW350256   7.855   4.090   4.118
12484SOL    MW450257   7.907   4.023   4.093
12485SOL     OW50258   7.753   4.981   4.139
12485SOL    HW250259   7.701   5.049   4.095
12485SOL    HW350260   7.750   4.907   4.079
12485SOL    MW450261   7.745   4.980   4.126
12486SOL     OW50262   7.636   5.335   4.866
12486SOL    HW250263   7.619   5.281   4.943
12486SOL    HW350264   7.624   5.425   4.896
12486SOL    MW450265   7.633   5.339   4.880
12487SOL     OW50266   7.943   5.437   4.372
12487SOL    HW250267   7.975   5.525   4.350
12487SOL    HW350268   7.896   5.409   4.294
12487SOL    MW450269   7.942   5.445   4.359
12488SOL     OW50270   7.659   5.497   3.949
12488SOL    HW250271   7.688   5.587   3.941
12488SOL    HW350272   7.609   5.480   3.870
12488SOL    MW450273   7.657   5.505   3.938
12489SOL     OW50274   7.688   3.956   4.395
12489SOL    HW250275   7.679   3.896   4.321
12489SOL    HW350276   7.621   3.927   4.458
12489SOL    MW450277   7.678   3.943   4.393
12490SOL     OW50278   7.635   4.129   4.758
12490SOL    HW250279   7.607   4.220   4.767
12490SOL    HW350280   7.572   4.090   4.697
12490SOL    MW450281   7.622   4.135   4.752
12491SOL     OW50282   7.619   4.404   4.928
12491SOL    HW250283   7.681   4.434   4.994
12491SOL    HW350284   7.553   4.473   4.922
12491SOL    MW450285   7.618   4.417   4.935
12492SOL     OW50286   7.714   5.513   5.380
12492SOL    HW250287   7.688   5.581   5.318
12492SOL    HW350288   7.762   5.450   5.328
12492SOL    MW450289   7.716   5.513   5.366
12493SOL     OW50290   7.766   4.832   4.887
12493SOL    HW250291   7.819   4.907   4.912
12493SOL    HW350292   7.685   4.870   4.853
12493SOL    MW450293   7.762   4.847   4.887
12494SOL     OW50294   7.621   4.601   4.293
12494SOL    HW250295   7.712   4.616   4.320
12494SOL    HW350296   7.624   4.522   4.239
12494SOL    MW450297   7.633   4.593   4.291
12495SOL     OW50298   7.857   4.309   5.547
12495SOL    HW250299   7.804   4.389   5.554
12495SOL    HW350300   7.927   4.321   5.612
12495SOL    MW450301   7.859   4.322   5.555
12496SOL     OW50302   7.629   5.213   4.332
12496SOL    HW250303   7.601   5.252   4.414
12496SOL    HW350304   7.649   5.122   4.354
12496SOL    MW450305   7.627   5.205   4.345
12497SOL     OW50306   8.152   4.675   4.507
12497SOL    HW250307   8.063   4.666   4.540
12497SOL    HW350308   8.156   4.765   4.475
12497SOL    MW450309   8.141   4.686   4.507
12498SOL     OW50310   7.922   3.945   5.319
12498SOL    HW250311   7.843   3.963   5.371
12498SOL    HW350312   7.917   4.007   5.246
12498SOL    MW450313   7.912   3.955   5.316
12499SOL     OW50314   7.826   5.357   4.161
12499SOL    HW250315   7.787   5.404   4.087
12499SOL    HW350316   7.760   5.292   4.186
12499SOL    MW450317   7.813   5.355   4.155
12500SOL     OW50318   7.633   4.944   4.452
12500SOL    HW250319   7.697   4.976   4.515
12500SOL    HW350320   7.682   4.880   4.400
12500SOL    MW450321   7.648   4.940   4.453
12501SOL     OW50322   7.709   5.262   5.574
12501SOL    HW250323   7.765   5.186   5.589
12501SOL    HW350324   7.658   5.240   5.496
12501SOL    MW450325   7.709   5.249   5.565
12502SOL     OW50326   7.911   5.257   4.824
12502SOL    HW250327   7.956   5.319   4.881
12502SOL    HW350328   7.818   5.276   4.837
12502SOL    MW450329   7.904   5.267   4.831
12503SOL     OW50330   8.128   5.030   4.722
12503SOL    HW250331   8.121   5.009   4.816
12503SOL    HW350332   8.046   4.998   4.685
12503SOL    MW450333   8.116   5.024   4.729
12504SOL     OW50334   7.574   5.122   5.385
12504SOL    HW250335   7.618   5.055   5.331
12504SOL    HW350336   7.489   5.084   5.405
12504SOL    MW450337   7.569   5.108   5.381
12505SOL     OW50338   8.015   5.037   4.186
12505SOL    HW250339   8.008   5.069   4.276
12505SOL    HW350340   7.925   5.021   4.158
12505SOL    MW450341   8.003   5.039   4.193
12506SOL     OW50342   8.018   4.321   3.900
12506SOL    HW250343   7.984   4.377   3.970
12506SOL    HW350344   8.089   4.271   3.940
12506SOL    MW450345   8.024   4.322   3.914
12507SOL     OW50346   7.934   3.862   4.393
12507SOL    HW250347   7.984   3.905   4.324
12507SOL    HW350348   7.849   3.906   4.393
12507SOL    MW450349   7.931   3.875   4.384
12508SOL     OW50350   7.693   4.924   5.253
12508SOL    HW250351   7.721   4.877   5.331
12508SOL    HW350352   7.614   4.879   5.224
12508SOL    MW450353   7.686   4.913   5.259
12509SOL     OW50354   7.856   4.647   4.433
12509SOL    HW250355   7.914   4.703   4.381
12509SOL    HW350356   7.900   4.562   4.435
12509SOL    MW450357   7.869   4.644   4.426
12510SOL     OW50358   7.563   5.247   4.605
12510SOL    HW250359   7.595   5.251   4.696
12510SOL    HW350360   7.468   5.255   4.613
12510SOL    MW450361   7.555   5.250   4.618
12511SOL     OW50362   7.518   4.373   4.152
12511SOL    HW250363   7.458   4.345   4.222
12511SOL    HW350364   7.592   4.313   4.158
12511SOL    MW450365   7.520   4.362   4.161
12512SOL     OW50366   7.944   4.112   5.041
12512SOL    HW250367   7.977   4.193   5.081
12512SOL    HW350368   7.917   4.138   4.953
12512SOL    MW450369   7.943   4.126   5.035
12513SOL     OW50370   7.898   4.079   4.777
12513SOL    HW250371   7.928   3.993   4.748
12513SOL    HW350372   7.803   4.072   4.780
12513SOL    MW450373   7.890   4.068   4.775
12514SOL     OW50374   7.962   5.009   4.957
12514SOL    HW250375   7.974   5.036   5.048
12514SOL    HW350376   7.943   5.090   4.910
12514SOL    MW450377   7.961   5.024   4.962
12515SOL     OW50378   7.734   4.721   4.050
12515SOL    HW250379   7.671   4.737   3.979
12515SOL    HW350380   7.681   4.684   4.121
12515SOL    MW450381   7.719   4.718   4.050
12516SOL     OW50382   7.888   5.464   4.630
12516SOL    HW250383   7.892   5.375   4.665
12516SOL    HW350384   7.914   5.455   4.539
12516SOL    MW450385   7.891   5.452   4.622
12517SOL     OW50386   7.594   5.217   5.124
12517SOL    HW250387   7.584   5.175   5.210
12517SOL    HW350388   7.515   5.270   5.114
12517SOL    MW450389   7.583   5.218   5.135
12518SOL     OW50390   7.520   5.522   5.579
12518SOL    HW250391   7.570   5.500   5.501
12518SOL    HW350392   7.528   5.617   5.587
12518SOL    MW450393   7.528   5.531   5.570
12519SOL     OW50394   8.281   5.280   4.583
12519SOL    HW250395   8.209   5.217   4.596
12519SOL    HW350396   8.242   5.365   4.601
12519SOL    MW450397   8.265   5.283   4.586
12520SOL     OW50398   7.686   3.818   4.163
12520SOL    HW250399   7.757   3.839   4.102
12520SOL    HW350400   7.640   3.746   4.121
12520SOL    MW450401   7.690   3.812   4.149
12521SOL     OW50402   7.517   4.285   5.306
12521SOL    HW250403   7.581   4.351   5.281
12521SOL    HW350404   7.436   4.312   5.263
12521SOL    MW450405   7.515   4.297   5.298
12522SOL     OW50406   7.702   4.511   5.247
12522SOL    HW250407   7.723   4.580   5.185
12522SOL    HW350408   7.782   4.458   5.252
12522SOL    MW450409   7.715   4.512   5.241
12523SOL     OW50410   7.687   4.526   5.514
12523SOL    HW250411   7.613   4.470   5.540
12523SOL    HW350412   7.682   4.529   5.419
12523SOL    MW450413   7.676   4.519   5.504
12524SOL     OW50414   7.853   3.813   4.964
12524SOL    HW250415   7.896   3.897   4.984
12524SOL    HW350416   7.926   3.751   4.957
12524SOL    MW450417   7.868   3.816   4.965
12525SOL     OW50418   7.653   4.211   4.431
12525SOL    HW250419   7.715   4.218   4.504
12525SOL    HW350420   7.653   4.118   4.408
12525SOL    MW450421   7.661   4.200   4.438
12526SOL     OW50422   8.139   3.942   5.020
12526SOL    HW250423   8.070   4.005   5.041
12526SOL    HW350424   8.166   3.906   5.105
12526SOL    MW450425   8.133   3.945   5.033
12527SOL     OW50426   7.522   4.783   3.889
12527SOL    HW250427   7.491   4.848   3.952
12527SOL    HW350428   7.471   4.705   3.908
12527SOL    MW450429   7.512   4.780   3.899
12528SOL     OW50430   7.834   4.760   5.426
12528SOL    HW250431   7.788   4.676   5.428
12528SOL    HW350432   7.891   4.754   5.350
12528SOL    MW450433   7.836   4.748   5.418
12529SOL     OW50434   7.777   4.427   4.710
12529SOL    HW250435   7.727   4.426   4.791
12529SOL    HW350436   7.797   4.519   4.694
12529SOL    MW450437   7.773   4.439   4.718
12530SOL     OW50438   7.699   4.095   5.451
12530SOL    HW250439   7.656   4.154   5.388
12530SOL    HW350440   7.767   4.150   5.491
12530SOL    MW450441   7.703   4.110   5.448
12531SOL     OW50442   7.598   3.735   4.874
12531SOL    HW250443   7.589   3.736   4.779
12531SOL    HW350444   7.692   3.747   4.889
12531SOL    MW450445   7.610   3.738   4.865
12532SOL     OW50446   7.811   3.862   3.920
12532SOL    HW250447   7.740   3.917   3.888
12532SOL    HW350448   7.853   3.828   3.841
12532SOL    MW450449   7.807   3.864   3.906
12533SOL     OW50450   7.567   3.961   3.769
12533SOL    HW250451   7.534   4.040   3.813
12533SOL    HW350452   7.622   3.994   3.698
12533SOL    MW450453   7.570   3.975   3.766
12534SOL     OW50454   7.601   5.218   3.958
12534SOL    HW250455   7.618   5.302   4.000
12534SOL    HW350456   7.636   5.227   3.870
12534SOL    MW450457   7.606   5.231   3.952
12535SOL     OW50458   7.756   4.242   6.032
12535SOL    HW250459   7.788   4.330   6.014
12535SOL    HW350460   7.744   4.240   6.127
12535SOL    MW450461   7.759   4.254   6.044
12536SOL     OW50462   8.019   4.428   6.285
12536SOL    HW250463   8.004   4.348   6.336
12536SOL    HW350464   8.101   4.463   6.319
12536SOL    MW450465   8.027   4.420   6.297
12537SOL     OW50466   7.604   5.514   6.441
12537SOL    HW250467   7.693   5.506   6.476
12537SOL    HW350468   7.568   5.426   6.446
12537SOL    MW450469   7.611   5.501   6.446
12538SOL     OW50470   7.918   4.020   5.971
12538SOL    HW250471   7.892   3.982   5.887
12538SOL    HW350472   7.855   4.090   5.987
12538SOL    MW450473   7.907   4.023   5.962
12539SOL     OW50474   7.753   4.981   6.008
12539SOL    HW250475   7.701   5.049   5.964
12539SOL    HW350476   7.750   4.907   5.948
12539SOL    MW450477   7.745   4.980   5.995
12540SOL     OW50478   7.636   5.335   6.735
12540SOL    HW250479   7.619   5.281   6.812
12540SOL    HW350480   7.624   5.425   6.765
12540SOL    MW450481   7.633   5.339   6.749
12541SOL     OW50482   7.943   5.437   6.241
12541SOL    HW250483   7.975   5.525   6.219
12541SOL    HW350484   7.896   5.409   6.163
12541SOL    MW450485   7.942   5.445   6.228
12542SOL     OW50486   7.659   5.497   5.818
12542SOL    HW250487   7.688   5.587   5.810
12542SOL    HW350488   7.609   5.480   5.739
12542SOL    MW450489   7.657   5.505   5.807
12543SOL     OW50490   7.688   3.956   6.264
12543SOL    HW250491   7.679   3.896   6.190
12543SOL    HW350492   7.621   3.927   6.327
12543SOL    MW450493   7.678   3.943   6.262
12544SOL     OW50494   7.635   4.129   6.627
12544SOL    HW250495   7.607   4.220   6.636
12544SOL    HW350496   7.572   4.090   6.566
12544SOL    MW450497   7.622   4.135   6.621
12545SOL     OW50498   7.766   4.832   6.756
12545SOL    HW250499   7.819   4.907   6.781
12545SOL    HW350500   7.685   4.870   6.722
12545SOL    MW450501   7.762   4.847   6.756
12546SOL     OW50502   7.621   4.601   6.162
12546SOL    HW250503   7.712   4.616   6.189
12546SOL    HW350504   7.624   4.522   6.108
12546SOL    MW450505   7.633   4.593   6.160
12547SOL     OW50506   7.629   5.213   6.201
12547SOL    HW250507   7.601   5.252   6.283
12547SOL    HW350508   7.649   5.122   6.223
12547SOL    MW450509   7.627   5.205   6.214
12548SOL     OW50510   8.152   4.675   6.376
12548SOL    HW250511   8.063   4.666   6.409
12548SOL    HW350512   8.156   4.765   6.344
12548SOL    MW450513   8.141   4.686   6.376
12549SOL     OW50514   7.826   5.357   6.030
12549SOL    HW250515   7.787   5.404   5.956
12549SOL    HW350516   7.760   5.292   6.055
12549SOL    MW450517   7.813   5.355   6.024
12550SOL     OW50518   7.633   4.944   6.321
12550SOL    HW250519   7.697   4.976   6.384
12550SOL    HW350520   7.682   4.880   6.269
12550SOL    MW450521   7.648   4.940   6.322
12551SOL     OW50522   7.911   5.257   6.693
12551SOL    HW250523   7.956   5.319   6.750
12551SOL    HW350524   7.818   5.276   6.706
12551SOL    MW450525   7.904   5.267   6.700
12552SOL     OW50526   8.015   5.037   6.055
12552SOL    HW250527   8.008   5.069   6.145
12552SOL    HW350528   7.925   5.021   6.027
12552SOL    MW450529   8.003   5.039   6.062
12553SOL     OW50530   8.018   4.321   5.769
12553SOL    HW250531   7.984   4.377   5.839
12553SOL    HW350532   8.089   4.271   5.809
12553SOL    MW450533   8.024   4.322   5.783
12554SOL     OW50534   7.934   3.862   6.262
12554SOL    HW250535   7.984   3.905   6.193
12554SOL    HW350536   7.849   3.906   6.262
12554SOL    MW450537   7.931   3.875   6.253
12555SOL     OW50538   7.856   4.647   6.302
12555SOL    HW250539   7.914   4.703   6.250
12555SOL    HW350540   7.900   4.562   6.304
12555SOL    MW450541   7.869   4.644   6.295
12556SOL     OW50542   7.563   5.247   6.474
12556SOL    HW250543   7.595   5.251   6.565
12556SOL    HW350544   7.468   5.255   6.482
12556SOL    MW450545   7.555   5.250   6.487
12557SOL     OW50546   7.518   4.373   6.021
12557SOL    HW250547   7.458   4.345   6.091
12557SOL    HW350548   7.592   4.313   6.027
12557SOL    MW450549   7.520   4.362   6.030
12558SOL     OW50550   7.898   4.079   6.646
12558SOL    HW250551   7.928   3.993   6.617
12558SOL    HW350552   7.803   4.072   6.649
12558SOL    MW450553   7.890   4.068   6.644
12559SOL     OW50554   7.734   4.721   5.919
12559SOL    HW250555   7.671   4.737   5.848
12559SOL    HW350556   7.681   4.684   5.990
12559SOL    MW450557   7.719   4.718   5.919
12560SOL     OW50558   7.888   5.464   6.499
12560SOL    HW250559   7.892   5.375   6.534
12560SOL    HW350560   7.914   5.455   6.408
12560SOL    MW450561   7.891   5.452   6.491
12561SOL     OW50562   8.281   5.280   6.452
12561SOL    HW250563   8.209   5.217   6.465
12561SOL    HW350564   8.242   5.365   6.470
12561SOL    MW450565   8.265   5.283   6.455
12562SOL     OW50566   7.686   3.818   6.032
12562SOL    HW250567   7.757   3.839   5.971
12562SOL    HW350568   7.640   3.746   5.990
12562SOL    MW450569   7.690   3.812   6.018
12563SOL     OW50570   7.653   4.211   6.300
12563SOL    HW250571   7.715   4.218   6.373
12563SOL    HW350572   7.653   4.118   6.277
12563SOL    MW450573   7.661   4.200   6.307
12564SOL     OW50574   7.522   4.783   5.758
12564SOL    HW250575   7.491   4.848   5.821
12564SOL    HW350576   7.471   4.705   5.777
12564SOL    MW450577   7.512   4.780   5.768
12565SOL     OW50578   7.811   3.862   5.789
12565SOL    HW250579   7.740   3.917   5.757
12565SOL    HW350580   7.853   3.828   5.710
12565SOL    MW450581   7.807   3.864   5.775
12566SOL     OW50582   7.567   3.961   5.638
12566SOL    HW250583   7.534   4.040   5.682
12566SOL    HW350584   7.622   3.994   5.567
12566SOL    MW450585   7.570   3.975   5.635
12567SOL     OW50586   7.601   5.218   5.827
12567SOL    HW250587   7.618   5.302   5.869
12567SOL    HW350588   7.636   5.227   5.739
12567SOL    MW450589   7.606   5.231   5.821
12568SOL     OW50590   7.756   6.111   0.427
12568SOL    HW250591   7.788   6.199   0.409
12568SOL    HW350592   7.744   6.109   0.522
12568SOL    MW450593   7.759   6.123   0.439
12569SOL     OW50594   7.834   6.524   1.328
12569SOL    HW250595   7.897   6.471   1.279
12569SOL    HW350596   7.815   6.598   1.271
12569SOL    MW450597   7.840   6.526   1.315
12570SOL     OW50598   8.019   6.297   0.680
12570SOL    HW250599   8.004   6.217   0.731
12570SOL    HW350600   8.101   6.332   0.714
12570SOL    MW450601   8.027   6.289   0.692
12571SOL     OW50602   7.907   6.537   0.961
12571SOL    HW250603   7.862   6.544   0.877
12571SOL    HW350604   7.887   6.620   1.005
12571SOL    MW450605   7.899   6.549   0.955
12572SOL     OW50606   7.604   7.383   0.836
12572SOL    HW250607   7.693   7.375   0.871
12572SOL    HW350608   7.568   7.295   0.841
12572SOL    MW450609   7.611   7.370   0.841
12573SOL     OW50610   7.868   6.910   0.871
12573SOL    HW250611   7.844   6.963   0.947
12573SOL    HW350612   7.924   6.968   0.819
12573SOL    MW450613   7.872   6.925   0.874
12574SOL     OW50614   7.838   7.206   1.466
12574SOL    HW250615   7.746   7.182   1.451
12574SOL    HW350616   7.882   7.123   1.483
12574SOL    MW450617   7.832   7.191   1.465
12575SOL     OW50618   7.918   5.889   0.366
12575SOL    HW250619   7.892   5.851   0.282
12575SOL    HW350620   7.855   5.959   0.382
12575SOL    MW450621   7.907   5.892   0.357
12576SOL     OW50622   7.753   6.850   0.403
12576SOL    HW250623   7.701   6.918   0.359
12576SOL    HW350624   7.750   6.776   0.343
12576SOL    MW450625   7.745   6.849   0.390
12577SOL     OW50626   7.636   7.204   1.130
12577SOL    HW250627   7.619   7.150   1.207
12577SOL    HW350628   7.624   7.294   1.160
12577SOL    MW450629   7.633   7.208   1.144
12578SOL     OW50630   7.943   7.306   0.636
12578SOL    HW250631   7.975   7.394   0.614
12578SOL    HW350632   7.896   7.278   0.558
12578SOL    MW450633   7.942   7.314   0.623
12579SOL     OW50634   7.688   5.825   0.659
12579SOL    HW250635   7.679   5.765   0.585
12579SOL    HW350636   7.621   5.796   0.722
12579SOL    MW450637   7.678   5.812   0.657
12580SOL     OW50638   7.635   5.998   1.022
12580SOL    HW250639   7.607   6.089   1.031
12580SOL    HW350640   7.572   5.959   0.961
12580SOL    MW450641   7.622   6.004   1.016
12581SOL     OW50642   7.619   6.273   1.192
12581SOL    HW250643   7.681   6.303   1.258
12581SOL    HW350644   7.553   6.342   1.186
12581SOL    MW450645   7.618   6.286   1.199
12582SOL     OW50646   7.714   7.382   1.644
12582SOL    HW250647   7.688   7.450   1.582
12582SOL    HW350648   7.762   7.319   1.592
12582SOL    MW450649   7.716   7.382   1.630
12583SOL     OW50650   7.766   6.701   1.151
12583SOL    HW250651   7.819   6.776   1.176
12583SOL    HW350652   7.685   6.739   1.117
12583SOL    MW450653   7.762   6.716   1.151
12584SOL     OW50654   7.621   6.470   0.557
12584SOL    HW250655   7.712   6.485   0.584
12584SOL    HW350656   7.624   6.391   0.503
12584SOL    MW450657   7.633   6.462   0.555
12585SOL     OW50658   7.857   6.178   1.811
12585SOL    HW250659   7.804   6.258   1.818
12585SOL    HW350660   7.927   6.190   1.876
12585SOL    MW450661   7.859   6.191   1.819
12586SOL     OW50662   7.629   7.082   0.596
12586SOL    HW250663   7.601   7.121   0.678
12586SOL    HW350664   7.649   6.991   0.618
12586SOL    MW450665   7.627   7.074   0.609
12587SOL     OW50666   8.152   6.544   0.771
12587SOL    HW250667   8.063   6.535   0.804
12587SOL    HW350668   8.156   6.634   0.739
12587SOL    MW450669   8.141   6.555   0.771
12588SOL     OW50670   7.922   5.814   1.583
12588SOL    HW250671   7.843   5.832   1.635
12588SOL    HW350672   7.917   5.876   1.510
12588SOL    MW450673   7.912   5.824   1.580
12589SOL     OW50674   7.826   7.226   0.425
12589SOL    HW250675   7.787   7.273   0.351
12589SOL    HW350676   7.760   7.161   0.450
12589SOL    MW450677   7.813   7.224   0.419
12590SOL     OW50678   7.633   6.813   0.716
12590SOL    HW250679   7.697   6.845   0.779
12590SOL    HW350680   7.682   6.749   0.664
12590SOL    MW450681   7.648   6.809   0.717
12591SOL     OW50682   7.709   7.131   1.838
12591SOL    HW250683   7.765   7.055   1.853
12591SOL    HW350684   7.658   7.109   1.760
12591SOL    MW450685   7.709   7.118   1.829
12592SOL     OW50686   7.911   7.126   1.088
12592SOL    HW250687   7.956   7.188   1.145
12592SOL    HW350688   7.818   7.145   1.101
12592SOL    MW450689   7.904   7.136   1.095
12593SOL     OW50690   8.128   6.899   0.986
12593SOL    HW250691   8.121   6.878   1.080
12593SOL    HW350692   8.046   6.867   0.949
12593SOL    MW450693   8.116   6.893   0.993
12594SOL     OW50694   7.574   6.991   1.649
12594SOL    HW250695   7.618   6.924   1.595
12594SOL    HW350696   7.489   6.953   1.669
12594SOL    MW450697   7.569   6.977   1.645
12595SOL     OW50698   8.015   6.906   0.450
12595SOL    HW250699   8.008   6.938   0.540
12595SOL    HW350700   7.925   6.890   0.422
12595SOL    MW450701   8.003   6.908   0.457
12596SOL     OW50702   8.018   6.190   0.164
12596SOL    HW250703   7.984   6.246   0.234
12596SOL    HW350704   8.089   6.140   0.204
12596SOL    MW450705   8.024   6.191   0.178
12597SOL     OW50706   7.934   5.731   0.657
12597SOL    HW250707   7.984   5.774   0.588
12597SOL    HW350708   7.849   5.775   0.657
12597SOL    MW450709   7.931   5.744   0.648
12598SOL     OW50710   7.693   6.793   1.517
12598SOL    HW250711   7.721   6.746   1.595
12598SOL    HW350712   7.614   6.748   1.488
12598SOL    MW450713   7.686   6.782   1.523
12599SOL     OW50714   7.856   6.516   0.697
12599SOL    HW250715   7.914   6.572   0.645
12599SOL    HW350716   7.900   6.431   0.699
12599SOL    MW450717   7.869   6.513   0.690
12600SOL     OW50718   7.563   7.116   0.869
12600SOL    HW250719   7.595   7.120   0.960
12600SOL    HW350720   7.468   7.124   0.877
12600SOL    MW450721   7.555   7.119   0.882
12601SOL     OW50722   7.518   6.242   0.416
12601SOL    HW250723   7.458   6.214   0.486
12601SOL    HW350724   7.592   6.182   0.422
12601SOL    MW450725   7.520   6.231   0.425
12602SOL     OW50726   7.944   5.981   1.305
12602SOL    HW250727   7.977   6.062   1.345
12602SOL    HW350728   7.917   6.007   1.217
12602SOL    MW450729   7.943   5.995   1.299
12603SOL     OW50730   7.898   5.948   1.041
12603SOL    HW250731   7.928   5.862   1.012
12603SOL    HW350732   7.803   5.941   1.044
12603SOL    MW450733   7.890   5.937   1.039
12604SOL     OW50734   7.962   6.878   1.221
12604SOL    HW250735   7.974   6.905   1.312
12604SOL    HW350736   7.943   6.959   1.174
12604SOL    MW450737   7.961   6.893   1.226
12605SOL     OW50738   7.734   6.590   0.314
12605SOL    HW250739   7.671   6.606   0.243
12605SOL    HW350740   7.681   6.553   0.385
12605SOL    MW450741   7.719   6.587   0.314
12606SOL     OW50742   7.888   7.333   0.894
12606SOL    HW250743   7.892   7.244   0.929
12606SOL    HW350744   7.914   7.324   0.803
12606SOL    MW450745   7.891   7.321   0.886
12607SOL     OW50746   7.594   7.086   1.388
12607SOL    HW250747   7.584   7.044   1.474
12607SOL    HW350748   7.515   7.139   1.378
12607SOL    MW450749   7.583   7.087   1.399
12608SOL     OW50750   7.520   7.391   1.843
12608SOL    HW250751   7.570   7.369   1.765
12608SOL    HW350752   7.528   7.486   1.851
12608SOL    MW450753   7.528   7.400   1.834
12609SOL     OW50754   8.281   7.149   0.847
12609SOL    HW250755   8.209   7.086   0.860
12609SOL    HW350756   8.242   7.234   0.865
12609SOL    MW450757   8.265   7.152   0.850
12610SOL     OW50758   7.686   5.687   0.427
12610SOL    HW250759   7.757   5.708   0.366
12610SOL    HW350760   7.640   5.615   0.385
12610SOL    MW450761   7.690   5.681   0.413
12611SOL     OW50762   7.517   6.154   1.570
12611SOL    HW250763   7.581   6.220   1.545
12611SOL    HW350764   7.436   6.181   1.527
12611SOL    MW450765   7.515   6.166   1.562
12612SOL     OW50766   7.702   6.380   1.511
12612SOL    HW250767   7.723   6.449   1.449
12612SOL    HW350768   7.782   6.327   1.516
12612SOL    MW450769   7.715   6.381   1.505
12613SOL     OW50770   7.687   6.395   1.778
12613SOL    HW250771   7.613   6.339   1.804
12613SOL    HW350772   7.682   6.398   1.683
12613SOL    MW450773   7.676   6.388   1.768
12614SOL     OW50774   7.853   5.682   1.228
12614SOL    HW250775   7.896   5.766   1.248
12614SOL    HW350776   7.926   5.620   1.221
12614SOL    MW450777   7.868   5.685   1.229
12615SOL     OW50778   7.653   6.080   0.695
12615SOL    HW250779   7.715   6.087   0.768
12615SOL    HW350780   7.653   5.987   0.672
12615SOL    MW450781   7.661   6.069   0.702
12616SOL     OW50782   8.139   5.811   1.284
12616SOL    HW250783   8.070   5.874   1.305
12616SOL    HW350784   8.166   5.775   1.369
12616SOL    MW450785   8.133   5.814   1.297
12617SOL     OW50786   7.834   6.629   1.690
12617SOL    HW250787   7.788   6.545   1.692
12617SOL    HW350788   7.891   6.623   1.614
12617SOL    MW450789   7.836   6.617   1.682
12618SOL     OW50790   7.777   6.296   0.974
12618SOL    HW250791   7.727   6.295   1.055
12618SOL    HW350792   7.797   6.388   0.958
12618SOL    MW450793   7.773   6.308   0.982
12619SOL     OW50794   7.699   5.964   1.715
12619SOL    HW250795   7.656   6.023   1.652
12619SOL    HW350796   7.767   6.019   1.755
12619SOL    MW450797   7.703   5.979   1.712
12620SOL     OW50798   7.598   5.604   1.138
12620SOL    HW250799   7.589   5.605   1.043
12620SOL    HW350800   7.692   5.616   1.153
12620SOL    MW450801   7.610   5.607   1.129
12621SOL     OW50802   7.756   6.111   2.295
12621SOL    HW250803   7.788   6.199   2.277
12621SOL    HW350804   7.744   6.109   2.390
12621SOL    MW450805   7.759   6.123   2.307
12622SOL     OW50806   7.834   6.524   3.196
12622SOL    HW250807   7.897   6.471   3.147
12622SOL    HW350808   7.815   6.598   3.139
12622SOL    MW450809   7.840   6.526   3.183
12623SOL     OW50810   8.019   6.297   2.548
12623SOL    HW250811   8.004   6.217   2.599
12623SOL    HW350812   8.101   6.332   2.582
12623SOL    MW450813   8.027   6.289   2.560
12624SOL     OW50814   7.907   6.537   2.829
12624SOL    HW250815   7.862   6.544   2.745
12624SOL    HW350816   7.887   6.620   2.873
12624SOL    MW450817   7.899   6.549   2.823
12625SOL     OW50818   7.604   7.383   2.704
12625SOL    HW250819   7.693   7.375   2.739
12625SOL    HW350820   7.568   7.295   2.709
12625SOL    MW450821   7.611   7.370   2.709
12626SOL     OW50822   7.868   6.910   2.739
12626SOL    HW250823   7.844   6.963   2.815
12626SOL    HW350824   7.924   6.968   2.687
12626SOL    MW450825   7.872   6.925   2.742
12627SOL     OW50826   7.838   7.206   3.334
12627SOL    HW250827   7.746   7.182   3.319
12627SOL    HW350828   7.882   7.123   3.351
12627SOL    MW450829   7.832   7.191   3.333
12628SOL     OW50830   7.918   5.889   2.234
12628SOL    HW250831   7.892   5.851   2.150
12628SOL    HW350832   7.855   5.959   2.250
12628SOL    MW450833   7.907   5.892   2.225
12629SOL     OW50834   7.753   6.850   2.271
12629SOL    HW250835   7.701   6.918   2.227
12629SOL    HW350836   7.750   6.776   2.211
12629SOL    MW450837   7.745   6.849   2.258
12630SOL     OW50838   7.636   7.204   2.998
12630SOL    HW250839   7.619   7.150   3.075
12630SOL    HW350840   7.624   7.294   3.028
12630SOL    MW450841   7.633   7.208   3.012
12631SOL     OW50842   7.943   7.306   2.504
12631SOL    HW250843   7.975   7.394   2.482
12631SOL    HW350844   7.896   7.278   2.426
12631SOL    MW450845   7.942   7.314   2.491
12632SOL     OW50846   7.688   5.825   2.527
12632SOL    HW250847   7.679   5.765   2.453
12632SOL    HW350848   7.621   5.796   2.590
12632SOL    MW450849   7.678   5.812   2.525
12633SOL     OW50850   7.635   5.998   2.890
12633SOL    HW250851   7.607   6.089   2.899
12633SOL    HW350852   7.572   5.959   2.829
12633SOL    MW450853   7.622   6.004   2.884
12634SOL     OW50854   7.619   6.273   3.060
12634SOL    HW250855   7.681   6.303   3.126
12634SOL    HW350856   7.553   6.342   3.054
12634SOL    MW450857   7.618   6.286   3.067
12635SOL     OW50858   7.714   7.382   3.512
12635SOL    HW250859   7.688   7.450   3.450
12635SOL    HW350860   7.762   7.319   3.460
12635SOL    MW450861   7.716   7.382   3.498
12636SOL     OW50862   7.766   6.701   3.019
12636SOL    HW250863   7.819   6.776   3.044
12636SOL    HW350864   7.685   6.739   2.985
12636SOL    MW450865   7.762   6.716   3.019
12637SOL     OW50866   7.621   6.470   2.425
12637SOL    HW250867   7.712   6.485   2.452
12637SOL    HW350868   7.624   6.391   2.371
12637SOL    MW450869   7.633   6.462   2.423
12638SOL     OW50870   7.857   6.178   3.679
12638SOL    HW250871   7.804   6.258   3.686
12638SOL    HW350872   7.927   6.190   3.744
12638SOL    MW450873   7.859   6.191   3.687
12639SOL     OW50874   7.629   7.082   2.464
12639SOL    HW250875   7.601   7.121   2.546
12639SOL    HW350876   7.649   6.991   2.486
12639SOL    MW450877   7.627   7.074   2.477
12640SOL     OW50878   8.152   6.544   2.639
12640SOL    HW250879   8.063   6.535   2.672
12640SOL    HW350880   8.156   6.634   2.607
12640SOL    MW450881   8.141   6.555   2.639
12641SOL     OW50882   7.922   5.814   3.451
12641SOL    HW250883   7.843   5.832   3.503
12641SOL    HW350884   7.917   5.876   3.378
12641SOL    MW450885   7.912   5.824   3.448
12642SOL     OW50886   7.826   7.226   2.293
12642SOL    HW250887   7.787   7.273   2.219
12642SOL    HW350888   7.760   7.161   2.318
12642SOL    MW450889   7.813   7.224   2.287
12643SOL     OW50890   7.633   6.813   2.584
12643SOL    HW250891   7.697   6.845   2.647
12643SOL    HW350892   7.682   6.749   2.532
12643SOL    MW450893   7.648   6.809   2.585
12644SOL     OW50894   7.709   7.131   3.706
12644SOL    HW250895   7.765   7.055   3.721
12644SOL    HW350896   7.658   7.109   3.628
12644SOL    MW450897   7.709   7.118   3.697
12645SOL     OW50898   7.911   7.126   2.956
12645SOL    HW250899   7.956   7.188   3.013
12645SOL    HW350900   7.818   7.145   2.969
12645SOL    MW450901   7.904   7.136   2.963
12646SOL     OW50902   8.128   6.899   2.854
12646SOL    HW250903   8.121   6.878   2.948
12646SOL    HW350904   8.046   6.867   2.817
12646SOL    MW450905   8.116   6.893   2.861
12647SOL     OW50906   7.574   6.991   3.517
12647SOL    HW250907   7.618   6.924   3.463
12647SOL    HW350908   7.489   6.953   3.537
12647SOL    MW450909   7.569   6.977   3.513
12648SOL     OW50910   8.015   6.906   2.318
12648SOL    HW250911   8.008   6.938   2.408
12648SOL    HW350912   7.925   6.890   2.290
12648SOL    MW450913   8.003   6.908   2.325
12649SOL     OW50914   8.018   6.190   2.032
12649SOL    HW250915   7.984   6.246   2.102
12649SOL    HW350916   8.089   6.140   2.072
12649SOL    MW450917   8.024   6.191   2.046
12650SOL     OW50918   7.934   5.731   2.525
12650SOL    HW250919   7.984   5.774   2.456
12650SOL    HW350920   7.849   5.775   2.525
12650SOL    MW450921   7.931   5.744   2.516
12651SOL     OW50922   7.693   6.793   3.385
12651SOL    HW250923   7.721   6.746   3.463
12651SOL    HW350924   7.614   6.748   3.356
12651SOL    MW450925   7.686   6.782   3.391
12652SOL     OW50926   7.856   6.516   2.565
12652SOL    HW250927   7.914   6.572   2.513
12652SOL    HW350928   7.900   6.431   2.567
12652SOL    MW450929   7.869   6.513   2.558
12653SOL     OW50930   7.563   7.116   2.737
12653SOL    HW250931   7.595   7.120   2.828
12653SOL    HW350932   7.468   7.124   2.745
12653SOL    MW450933   7.555   7.119   2.750
12654SOL     OW50934   7.518   6.242   2.284
12654SOL    HW250935   7.458   6.214   2.354
12654SOL    HW350936   7.592   6.182   2.290
12654SOL    MW450937   7.520   6.231   2.293
12655SOL     OW50938   7.944   5.981   3.173
12655SOL    HW250939   7.977   6.062   3.213
12655SOL    HW350940   7.917   6.007   3.085
12655SOL    MW450941   7.943   5.995   3.167
12656SOL     OW50942   7.898   5.948   2.909
12656SOL    HW250943   7.928   5.862   2.880
12656SOL    HW350944   7.803   5.941   2.912
12656SOL    MW450945   7.890   5.937   2.907
12657SOL     OW50946   7.962   6.878   3.089
12657SOL    HW250947   7.974   6.905   3.180
12657SOL    HW350948   7.943   6.959   3.042
12657SOL    MW450949   7.961   6.893   3.094
12658SOL     OW50950   7.734   6.590   2.182
12658SOL    HW250951   7.671   6.606   2.111
12658SOL    HW350952   7.681   6.553   2.253
12658SOL    MW450953   7.719   6.587   2.182
12659SOL     OW50954   7.888   7.333   2.762
12659SOL    HW250955   7.892   7.244   2.797
12659SOL    HW350956   7.914   7.324   2.671
12659SOL    MW450957   7.891   7.321   2.754
12660SOL     OW50958   7.594   7.086   3.256
12660SOL    HW250959   7.584   7.044   3.342
12660SOL    HW350960   7.515   7.139   3.246
12660SOL    MW450961   7.583   7.087   3.267
12661SOL     OW50962   7.520   7.391   3.711
12661SOL    HW250963   7.570   7.369   3.633
12661SOL    HW350964   7.528   7.486   3.719
12661SOL    MW450965   7.528   7.400   3.702
12662SOL     OW50966   8.281   7.149   2.715
12662SOL    HW250967   8.209   7.086   2.728
12662SOL    HW350968   8.242   7.234   2.733
12662SOL    MW450969   8.265   7.152   2.718
12663SOL     OW50970   7.686   5.687   2.295
12663SOL    HW250971   7.757   5.708   2.234
12663SOL    HW350972   7.640   5.615   2.253
12663SOL    MW450973   7.690   5.681   2.281
12664SOL     OW50974   7.517   6.154   3.438
12664SOL    HW250975   7.581   6.220   3.413
12664SOL    HW350976   7.436   6.181   3.395
12664SOL    MW450977   7.515   6.166   3.430
12665SOL     OW50978   7.702   6.380   3.379
12665SOL    HW250979   7.723   6.449   3.317
12665SOL    HW350980   7.782   6.327   3.384
12665SOL    MW450981   7.715   6.381   3.373
12666SOL     OW50982   7.687   6.395   3.646
12666SOL    HW250983   7.613   6.339   3.672
12666SOL    HW350984   7.682   6.398   3.551
12666SOL    MW450985   7.676   6.388   3.636
12667SOL     OW50986   7.853   5.682   3.096
12667SOL    HW250987   7.896   5.766   3.116
12667SOL    HW350988   7.926   5.620   3.089
12667SOL    MW450989   7.868   5.685   3.097
12668SOL     OW50990   7.653   6.080   2.563
12668SOL    HW250991   7.715   6.087   2.636
12668SOL    HW350992   7.653   5.987   2.540
12668SOL    MW450993   7.661   6.069   2.570
12669SOL     OW50994   8.139   5.811   3.152
12669SOL    HW250995   8.070   5.874   3.173
12669SOL    HW350996   8.166   5.775   3.237
12669SOL    MW450997   8.133   5.814   3.165
12670SOL     OW50998   7.522   6.652   2.021
12670SOL    HW250999   7.491   6.717   2.084
12670SOL    HW351000   7.471   6.574   2.040
12670SOL    MW451001   7.512   6.649   2.031
12671SOL     OW51002   7.834   6.629   3.558
12671SOL    HW251003   7.788   6.545   3.560
12671SOL    HW351004   7.891   6.623   3.482
12671SOL    MW451005   7.836   6.617   3.550
12672SOL     OW51006   7.777   6.296   2.842
12672SOL    HW251007   7.727   6.295   2.923
12672SOL    HW351008   7.797   6.388   2.826
12672SOL    MW451009   7.773   6.308   2.850
12673SOL     OW51010   7.699   5.964   3.583
12673SOL    HW251011   7.656   6.023   3.520
12673SOL    HW351012   7.767   6.019   3.623
12673SOL    MW451013   7.703   5.979   3.580
12674SOL     OW51014   7.598   5.604   3.006
12674SOL    HW251015   7.589   5.605   2.911
12674SOL    HW351016   7.692   5.616   3.021
12674SOL    MW451017   7.610   5.607   2.997
12675SOL     OW51018   7.811   5.731   2.052
12675SOL    HW251019   7.740   5.786   2.020
12675SOL    HW351020   7.853   5.697   1.973
12675SOL    MW451021   7.807   5.733   2.038
12676SOL     OW51022   7.567   5.830   1.901
12676SOL    HW251023   7.534   5.909   1.945
12676SOL    HW351024   7.622   5.863   1.830
12676SOL    MW451025   7.570   5.844   1.898
12677SOL     OW51026   7.601   7.087   2.090
12677SOL    HW251027   7.618   7.171   2.132
12677SOL    HW351028   7.636   7.096   2.002
12677SOL    MW451029   7.606   7.100   2.084
12678SOL     OW51030   7.756   6.111   4.163
12678SOL    HW251031   7.788   6.199   4.145
12678SOL    HW351032   7.744   6.109   4.258
12678SOL    MW451033   7.759   6.123   4.175
12679SOL     OW51034   7.834   6.524   5.064
12679SOL    HW251035   7.897   6.471   5.015
12679SOL    HW351036   7.815   6.598   5.007
12679SOL    MW451037   7.840   6.526   5.051
12680SOL     OW51038   8.019   6.297   4.416
12680SOL    HW251039   8.004   6.217   4.467
12680SOL    HW351040   8.101   6.332   4.450
12680SOL    MW451041   8.027   6.289   4.428
12681SOL     OW51042   7.907   6.537   4.697
12681SOL    HW251043   7.862   6.544   4.613
12681SOL    HW351044   7.887   6.620   4.741
12681SOL    MW451045   7.899   6.549   4.691
12682SOL     OW51046   7.604   7.383   4.572
12682SOL    HW251047   7.693   7.375   4.607
12682SOL    HW351048   7.568   7.295   4.577
12682SOL    MW451049   7.611   7.370   4.577
12683SOL     OW51050   7.868   6.910   4.607
12683SOL    HW251051   7.844   6.963   4.683
12683SOL    HW351052   7.924   6.968   4.555
12683SOL    MW451053   7.872   6.925   4.610
12684SOL     OW51054   7.838   7.206   5.202
12684SOL    HW251055   7.746   7.182   5.187
12684SOL    HW351056   7.882   7.123   5.219
12684SOL    MW451057   7.832   7.191   5.201
12685SOL     OW51058   7.918   5.889   4.102
12685SOL    HW251059   7.892   5.851   4.018
12685SOL    HW351060   7.855   5.959   4.118
12685SOL    MW451061   7.907   5.892   4.093
12686SOL     OW51062   7.753   6.850   4.139
12686SOL    HW251063   7.701   6.918   4.095
12686SOL    HW351064   7.750   6.776   4.079
12686SOL    MW451065   7.745   6.849   4.126
12687SOL     OW51066   7.636   7.204   4.866
12687SOL    HW251067   7.619   7.150   4.943
12687SOL    HW351068   7.624   7.294   4.896
12687SOL    MW451069   7.633   7.208   4.880
12688SOL     OW51070   7.943   7.306   4.372
12688SOL    HW251071   7.975   7.394   4.350
12688SOL    HW351072   7.896   7.278   4.294
12688SOL    MW451073   7.942   7.314   4.359
12689SOL     OW51074   7.688   5.825   4.395
12689SOL    HW251075   7.679   5.765   4.321
12689SOL    HW351076   7.621   5.796   4.458
12689SOL    MW451077   7.678   5.812   4.393
12690SOL     OW51078   7.635   5.998   4.758
12690SOL    HW251079   7.607   6.089   4.767
12690SOL    HW351080   7.572   5.959   4.697
12690SOL    MW451081   7.622   6.004   4.752
12691SOL     OW51082   7.619   6.273   4.928
12691SOL    HW251083   7.681   6.303   4.994
12691SOL    HW351084   7.553   6.342   4.922
12691SOL    MW451085   7.618   6.286   4.935
12692SOL     OW51086   7.714   7.382   5.380
12692SOL    HW251087   7.688   7.450   5.318
12692SOL    HW351088   7.762   7.319   5.328
12692SOL    MW451089   7.716   7.382   5.366
12693SOL     OW51090   7.766   6.701   4.887
12693SOL    HW251091   7.819   6.776   4.912
12693SOL    HW351092   7.685   6.739   4.853
12693SOL    MW451093   7.762   6.716   4.887
12694SOL     OW51094   7.621   6.470   4.293
12694SOL    HW251095   7.712   6.485   4.320
12694SOL    HW351096   7.624   6.391   4.239
12694SOL    MW451097   7.633   6.462   4.291
12695SOL     OW51098   7.857   6.178   5.547
12695SOL    HW251099   7.804   6.258   5.554
12695SOL    HW351100   7.927   6.190   5.612
12695SOL    MW451101   7.859   6.191   5.555
12696SOL     OW51102   7.629   7.082   4.332
12696SOL    HW251103   7.601   7.121   4.414
12696SOL    HW351104   7.649   6.991   4.354
12696SOL    MW451105   7.627   7.074   4.345
12697SOL     OW51106   8.152   6.544   4.507
12697SOL    HW251107   8.063   6.535   4.540
12697SOL    HW351108   8.156   6.634   4.475
12697SOL    MW451109   8.141   6.555   4.507
12698SOL     OW51110   7.922   5.814   5.319
12698SOL    HW251111   7.843   5.832   5.371
12698SOL    HW351112   7.917   5.876   5.246
12698SOL    MW451113   7.912   5.824   5.316
12699SOL     OW51114   7.826   7.226   4.161
12699SOL    HW251115   7.787   7.273   4.087
12699SOL    HW351116   7.760   7.161   4.186
12699SOL    MW451117   7.813   7.224   4.155
12700SOL     OW51118   7.633   6.813   4.452
12700SOL    HW251119   7.697   6.845   4.515
12700SOL    HW351120   7.682   6.749   4.400
12700SOL    MW451121   7.648   6.809   4.453
12701SOL     OW51122   7.709   7.131   5.574
12701SOL    HW251123   7.765   7.055   5.589
12701SOL    HW351124   7.658   7.109   5.496
12701SOL    MW451125   7.709   7.118   5.565
12702SOL     OW51126   7.911   7.126   4.824
12702SOL    HW251127   7.956   7.188   4.881
12702SOL    HW351128   7.818   7.145   4.837
12702SOL    MW451129   7.904   7.136   4.831
12703SOL     OW51130   8.128   6.899   4.722
12703SOL    HW251131   8.121   6.878   4.816
12703SOL    HW351132   8.046   6.867   4.685
12703SOL    MW451133   8.116   6.893   4.729
12704SOL     OW51134   7.574   6.991   5.385
12704SOL    HW251135   7.618   6.924   5.331
12704SOL    HW351136   7.489   6.953   5.405
12704SOL    MW451137   7.569   6.977   5.381
12705SOL     OW51138   8.015   6.906   4.186
12705SOL    HW251139   8.008   6.938   4.276
12705SOL    HW351140   7.925   6.890   4.158
12705SOL    MW451141   8.003   6.908   4.193
12706SOL     OW51142   8.018   6.190   3.900
12706SOL    HW251143   7.984   6.246   3.970
12706SOL    HW351144   8.089   6.140   3.940
12706SOL    MW451145   8.024   6.191   3.914
12707SOL     OW51146   7.934   5.731   4.393
12707SOL    HW251147   7.984   5.774   4.324
12707SOL    HW351148   7.849   5.775   4.393
12707SOL    MW451149   7.931   5.744   4.384
12708SOL     OW51150   7.693   6.793   5.253
12708SOL    HW251151   7.721   6.746   5.331
12708SOL    HW351152   7.614   6.748   5.224
12708SOL    MW451153   7.686   6.782   5.259
12709SOL     OW51154   7.856   6.516   4.433
12709SOL    HW251155   7.914   6.572   4.381
12709SOL    HW351156   7.900   6.431   4.435
12709SOL    MW451157   7.869   6.513   4.426
12710SOL     OW51158   7.563   7.116   4.605
12710SOL    HW251159   7.595   7.120   4.696
12710SOL    HW351160   7.468   7.124   4.613
12710SOL    MW451161   7.555   7.119   4.618
12711SOL     OW51162   7.518   6.242   4.152
12711SOL    HW251163   7.458   6.214   4.222
12711SOL    HW351164   7.592   6.182   4.158
12711SOL    MW451165   7.520   6.231   4.161
12712SOL     OW51166   7.944   5.981   5.041
12712SOL    HW251167   7.977   6.062   5.081
12712SOL    HW351168   7.917   6.007   4.953
12712SOL    MW451169   7.943   5.995   5.035
12713SOL     OW51170   7.898   5.948   4.777
12713SOL    HW251171   7.928   5.862   4.748
12713SOL    HW351172   7.803   5.941   4.780
12713SOL    MW451173   7.890   5.937   4.775
12714SOL     OW51174   7.962   6.878   4.957
12714SOL    HW251175   7.974   6.905   5.048
12714SOL    HW351176   7.943   6.959   4.910
12714SOL    MW451177   7.961   6.893   4.962
12715SOL     OW51178   7.734   6.590   4.050
12715SOL    HW251179   7.671   6.606   3.979
12715SOL    HW351180   7.681   6.553   4.121
12715SOL    MW451181   7.719   6.587   4.050
12716SOL     OW51182   7.888   7.333   4.630
12716SOL    HW251183   7.892   7.244   4.665
12716SOL    HW351184   7.914   7.324   4.539
12716SOL    MW451185   7.891   7.321   4.622
12717SOL     OW51186   7.594   7.086   5.124
12717SOL    HW251187   7.584   7.044   5.210
12717SOL    HW351188   7.515   7.139   5.114
12717SOL    MW451189   7.583   7.087   5.135
12718SOL     OW51190   7.520   7.391   5.579
12718SOL    HW251191   7.570   7.369   5.501
12718SOL    HW351192   7.528   7.486   5.587
12718SOL    MW451193   7.528   7.400   5.570
12719SOL     OW51194   8.281   7.149   4.583
12719SOL    HW251195   8.209   7.086   4.596
12719SOL    HW351196   8.242   7.234   4.601
12719SOL    MW451197   8.265   7.152   4.586
12720SOL     OW51198   7.686   5.687   4.163
12720SOL    HW251199   7.757   5.708   4.102
12720SOL    HW351200   7.640   5.615   4.121
12720SOL    MW451201   7.690   5.681   4.149
12721SOL     OW51202   7.517   6.154   5.306
12721SOL    HW251203   7.581   6.220   5.281
12721SOL    HW351204   7.436   6.181   5.263
12721SOL    MW451205   7.515   6.166   5.298
12722SOL     OW51206   7.702   6.380   5.247
12722SOL    HW251207   7.723   6.449   5.185
12722SOL    HW351208   7.782   6.327   5.252
12722SOL    MW451209   7.715   6.381   5.241
12723SOL     OW51210   7.687   6.395   5.514
12723SOL    HW251211   7.613   6.339   5.540
12723SOL    HW351212   7.682   6.398   5.419
12723SOL    MW451213   7.676   6.388   5.504
12724SOL     OW51214   7.853   5.682   4.964
12724SOL    HW251215   7.896   5.766   4.984
12724SOL    HW351216   7.926   5.620   4.957
12724SOL    MW451217   7.868   5.685   4.965
12725SOL     OW51218   7.653   6.080   4.431
12725SOL    HW251219   7.715   6.087   4.504
12725SOL    HW351220   7.653   5.987   4.408
12725SOL    MW451221   7.661   6.069   4.438
12726SOL     OW51222   8.139   5.811   5.020
12726SOL    HW251223   8.070   5.874   5.041
12726SOL    HW351224   8.166   5.775   5.105
12726SOL    MW451225   8.133   5.814   5.033
12727SOL     OW51226   7.522   6.652   3.889
12727SOL    HW251227   7.491   6.717   3.952
12727SOL    HW351228   7.471   6.574   3.908
12727SOL    MW451229   7.512   6.649   3.899
12728SOL     OW51230   7.834   6.629   5.426
12728SOL    HW251231   7.788   6.545   5.428
12728SOL    HW351232   7.891   6.623   5.350
12728SOL    MW451233   7.836   6.617   5.418
12729SOL     OW51234   7.777   6.296   4.710
12729SOL    HW251235   7.727   6.295   4.791
12729SOL    HW351236   7.797   6.388   4.694
12729SOL    MW451237   7.773   6.308   4.718
12730SOL     OW51238   7.699   5.964   5.451
12730SOL    HW251239   7.656   6.023   5.388
12730SOL    HW351240   7.767   6.019   5.491
12730SOL    MW451241   7.703   5.979   5.448
12731SOL     OW51242   7.598   5.604   4.874
12731SOL    HW251243   7.589   5.605   4.779
12731SOL    HW351244   7.692   5.616   4.889
12731SOL    MW451245   7.610   5.607   4.865
12732SOL     OW51246   7.811   5.731   3.920
12732SOL    HW251247   7.740   5.786   3.888
12732SOL    HW351248   7.853   5.697   3.841
12732SOL    MW451249   7.807   5.733   3.906
12733SOL     OW51250   7.567   5.830   3.769
12733SOL    HW251251   7.534   5.909   3.813
12733SOL    HW351252   7.622   5.863   3.698
12733SOL    MW451253   7.570   5.844   3.766
12734SOL     OW51254   7.601   7.087   3.958
12734SOL    HW251255   7.618   7.171   4.000
12734SOL    HW351256   7.636   7.096   3.870
12734SOL    MW451257   7.606   7.100   3.952
12735SOL     OW51258   7.756   6.111   6.032
12735SOL    HW251259   7.788   6.199   6.014
12735SOL    HW351260   7.744   6.109   6.127
12735SOL    MW451261   7.759   6.123   6.044
12736SOL     OW51262   8.019   6.297   6.285
12736SOL    HW251263   8.004   6.217   6.336
12736SOL    HW351264   8.101   6.332   6.319
12736SOL    MW451265   8.027   6.289   6.297
12737SOL     OW51266   7.604   7.383   6.441
12737SOL    HW251267   7.693   7.375   6.476
12737SOL    HW351268   7.568   7.295   6.446
12737SOL    MW451269   7.611   7.370   6.446
12738SOL     OW51270   7.918   5.889   5.971
12738SOL    HW251271   7.892   5.851   5.887
12738SOL    HW351272   7.855   5.959   5.987
12738SOL    MW451273   7.907   5.892   5.962
12739SOL     OW51274   7.753   6.850   6.008
12739SOL    HW251275   7.701   6.918   5.964
12739SOL    HW351276   7.750   6.776   5.948
12739SOL    MW451277   7.745   6.849   5.995
12740SOL     OW51278   7.636   7.204   6.735
12740SOL    HW251279   7.619   7.150   6.812
12740SOL    HW351280   7.624   7.294   6.765
12740SOL    MW451281   7.633   7.208   6.749
12741SOL     OW51282   7.943   7.306   6.241
12741SOL    HW251283   7.975   7.394   6.219
12741SOL    HW351284   7.896   7.278   6.163
12741SOL    MW451285   7.942   7.314   6.228
12742SOL     OW51286   7.688   5.825   6.264
12742SOL    HW251287   7.679   5.765   6.190
12742SOL    HW351288   7.621   5.796   6.327
12742SOL    MW451289   7.678   5.812   6.262
12743SOL     OW51290   7.635   5.998   6.627
12743SOL    HW251291   7.607   6.089   6.636
12743SOL    HW351292   7.572   5.959   6.566
12743SOL    MW451293   7.622   6.004   6.621
12744SOL     OW51294   7.766   6.701   6.756
12744SOL    HW251295   7.819   6.776   6.781
12744SOL    HW351296   7.685   6.739   6.722
12744SOL    MW451297   7.762   6.716   6.756
12745SOL     OW51298   7.621   6.470   6.162
12745SOL    HW251299   7.712   6.485   6.189
12745SOL    HW351300   7.624   6.391   6.108
12745SOL    MW451301   7.633   6.462   6.160
12746SOL     OW51302   7.629   7.082   6.201
12746SOL    HW251303   7.601   7.121   6.283
12746SOL    HW351304   7.649   6.991   6.223
12746SOL    MW451305   7.627   7.074   6.214
12747SOL     OW51306   8.152   6.544   6.376
12747SOL    HW251307   8.063   6.535   6.409
12747SOL    HW351308   8.156   6.634   6.344
12747SOL    MW451309   8.141   6.555   6.376
12748SOL     OW51310   7.826   7.226   6.030
12748SOL    HW251311   7.787   7.273   5.956
12748SOL    HW351312   7.760   7.161   6.055
12748SOL    MW451313   7.813   7.224   6.024
12749SOL     OW51314   7.633   6.813   6.321
12749SOL    HW251315   7.697   6.845   6.384
12749SOL    HW351316   7.682   6.749   6.269
12749SOL    MW451317   7.648   6.809   6.322
12750SOL     OW51318   7.911   7.126   6.693
12750SOL    HW251319   7.956   7.188   6.750
12750SOL    HW351320   7.818   7.145   6.706
12750SOL    MW451321   7.904   7.136   6.700
12751SOL     OW51322   8.128   6.899   6.591
12751SOL    HW251323   8.121   6.878   6.685
12751SOL    HW351324   8.046   6.867   6.554
12751SOL    MW451325   8.116   6.893   6.598
12752SOL     OW51326   8.015   6.906   6.055
12752SOL    HW251327   8.008   6.938   6.145
12752SOL    HW351328   7.925   6.890   6.027
12752SOL    MW451329   8.003   6.908   6.062
12753SOL     OW51330   8.018   6.190   5.769
12753SOL    HW251331   7.984   6.246   5.839
12753SOL    HW351332   8.089   6.140   5.809
12753SOL    MW451333   8.024   6.191   5.783
12754SOL     OW51334   7.934   5.731   6.262
12754SOL    HW251335   7.984   5.774   6.193
12754SOL    HW351336   7.849   5.775   6.262
12754SOL    MW451337   7.931   5.744   6.253
12755SOL     OW51338   7.856   6.516   6.302
12755SOL    HW251339   7.914   6.572   6.250
12755SOL    HW351340   7.900   6.431   6.304
12755SOL    MW451341   7.869   6.513   6.295
12756SOL     OW51342   7.563   7.116   6.474
12756SOL    HW251343   7.595   7.120   6.565
12756SOL    HW351344   7.468   7.124   6.482
12756SOL    MW451345   7.555   7.119   6.487
12757SOL     OW51346   7.518   6.242   6.021
12757SOL    HW251347   7.458   6.214   6.091
12757SOL    HW351348   7.592   6.182   6.027
12757SOL    MW451349   7.520   6.231   6.030
12758SOL     OW51350   7.898   5.948   6.646
12758SOL    HW251351   7.928   5.862   6.617
12758SOL    HW351352   7.803   5.941   6.649
12758SOL    MW451353   7.890   5.937   6.644
12759SOL     OW51354   7.734   6.590   5.919
12759SOL    HW251355   7.671   6.606   5.848
12759SOL    HW351356   7.681   6.553   5.990
12759SOL    MW451357   7.719   6.587   5.919
12760SOL     OW51358   7.888   7.333   6.499
12760SOL    HW251359   7.892   7.244   6.534
12760SOL    HW351360   7.914   7.324   6.408
12760SOL    MW451361   7.891   7.321   6.491
12761SOL     OW51362   8.281   7.149   6.452
12761SOL    HW251363   8.209   7.086   6.465
12761SOL    HW351364   8.242   7.234   6.470
12761SOL    MW451365   8.265   7.152   6.455
12762SOL     OW51366   7.686   5.687   6.032
12762SOL    HW251367   7.757   5.708   5.971
12762SOL    HW351368   7.640   5.615   5.990
12762SOL    MW451369   7.690   5.681   6.018
12763SOL     OW51370   7.653   6.080   6.300
12763SOL    HW251371   7.715   6.087   6.373
12763SOL    HW351372   7.653   5.987   6.277
12763SOL    MW451373   7.661   6.069   6.307
12764SOL     OW51374   7.522   6.652   5.758
12764SOL    HW251375   7.491   6.717   5.821
12764SOL    HW351376   7.471   6.574   5.777
12764SOL    MW451377   7.512   6.649   5.768
12765SOL     OW51378   7.811   5.731   5.789
12765SOL    HW251379   7.740   5.786   5.757
12765SOL    HW351380   7.853   5.697   5.710
12765SOL    MW451381   7.807   5.733   5.775
12766SOL     OW51382   7.567   5.830   5.638
12766SOL    HW251383   7.534   5.909   5.682
12766SOL    HW351384   7.622   5.863   5.567
12766SOL    MW451385   7.570   5.844   5.635
12767SOL     OW51386   7.601   7.087   5.827
12767SOL    HW251387   7.618   7.171   5.869
12767SOL    HW351388   7.636   7.096   5.739
12767SOL    MW451389   7.606   7.100   5.821
12768SOL     OW51390   8.155   7.761   0.514
12768SOL    HW251391   8.213   7.837   0.516
12768SOL    HW351392   8.090   7.782   0.447
12768SOL    MW451393   8.154   7.773   0.505
12769SOL     OW51394   8.155   7.761   2.382
12769SOL    HW251395   8.213   7.837   2.384
12769SOL    HW351396   8.090   7.782   2.315
12769SOL    MW451397   8.154   7.773   2.373
12770SOL     OW51398   7.567   7.725   1.901
12770SOL    HW251399   7.534   7.804   1.945
12770SOL    HW351400   7.622   7.758   1.830
12770SOL    MW451401   7.570   7.739   1.898
12771SOL     OW51402   8.155   7.761   4.250
12771SOL    HW251403   8.213   7.837   4.252
12771SOL    HW351404   8.090   7.782   4.183
12771SOL    MW451405   8.154   7.773   4.241
12772SOL     OW51406   7.567   7.725   3.769
12772SOL    HW251407   7.534   7.804   3.813
12772SOL    HW351408   7.622   7.758   3.698
12772SOL    MW451409   7.570   7.739   3.766
12773SOL     OW51410   8.155   7.761   6.119
12773SOL    HW251411   8.213   7.837   6.121
12773SOL    HW351412   8.090   7.782   6.052
12773SOL    MW451413   8.154   7.773   6.110
12774SOL     OW51414   7.567   7.725   5.638
12774SOL    HW251415   7.534   7.804   5.682
12774SOL    HW351416   7.622   7.758   5.567
12774SOL    MW451417   7.570   7.739   5.635
   7.98234   7.52582   6.51756   0.00000   0.00000   2.66078   0.00000  -2.66078   3.76291
