Gravel Rubs Often Many Awfully Cauterized Sores
  417
    1ASP      N    1   5.236   5.720   1.393
    1ASP     H1    2   5.279   5.717   1.483
    1ASP     H2    3   5.237   5.629   1.352
    1ASP     H3    4   5.286   5.784   1.335
    1ASP     CA    5   5.096   5.766   1.407
    1ASP     HA    6   5.105   5.858   1.445
    1ASP     CB    7   5.030   5.771   1.270
    1ASP    HB1    8   4.985   5.684   1.250
    1ASP    HB2    9   5.099   5.789   1.199
    1ASP     CG   10   4.929   5.884   1.273
    1ASP    OD1   11   4.977   5.996   1.298
    1ASP    OD2   12   4.808   5.852   1.266
    1ASP      C   13   5.012   5.690   1.511
    1ASP      O   14   4.925   5.748   1.575
    2SER      N   15   5.037   5.561   1.539
    2SER      H   16   5.119   5.519   1.500
    2SER     CA   17   4.948   5.479   1.625
    2SER     HA   18   4.860   5.528   1.616
    2SER     CB   19   4.941   5.336   1.570
    2SER    HB1   20   4.871   5.283   1.618
    2SER    HB2   21   5.030   5.290   1.578
    2SER     OG   22   4.907   5.342   1.433
    2SER     HG   23   4.902   5.249   1.396
    2SER      C   24   4.977   5.479   1.776
    2SER      O   25   4.909   5.408   1.850
    3HIS      N   26   5.074   5.556   1.826
    3HIS      H   27   5.126   5.615   1.764
    3HIS     CA   28   5.107   5.557   1.970
    3HIS     HA   29   5.090   5.464   2.001
    3HIS     CB   30   5.256   5.590   1.989
    3HIS    HB1   31   5.269   5.688   1.979
    3HIS    HB2   32   5.309   5.542   1.920
    3HIS     CG   33   5.307   5.549   2.125
    3HIS    ND1   34   5.305   5.421   2.178
    3HIS    CE1   35   5.359   5.425   2.301
    3HIS    HE1   36   5.370   5.346   2.361
    3HIS    NE2   37   5.396   5.550   2.330
    3HIS    HE2   38   5.438   5.581   2.416
    3HIS    CD2   39   5.365   5.629   2.220
    3HIS    HD2   40   5.382   5.727   2.211
    3HIS      C   41   5.014   5.648   2.053
    3HIS      O   42   4.981   5.615   2.167
    4ALA      N   43   4.959   5.755   1.993
    4ALA      H   44   4.982   5.772   1.897
    4ALA     CA   45   4.869   5.849   2.061
    4ALA     HA   46   4.912   5.869   2.149
    4ALA     CB   47   4.859   5.975   1.974
    4ALA    HB1   48   4.798   6.041   2.018
    4ALA    HB2   49   4.950   6.015   1.963
    4ALA    HB3   50   4.822   5.950   1.884
    4ALA      C   51   4.730   5.790   2.092
    4ALA      O   52   4.668   5.824   2.192
    5LYS      N   53   4.683   5.694   2.011
    5LYS      H   54   4.741   5.664   1.935
    5LYS     CA   55   4.551   5.630   2.029
    5LYS     HA   56   4.488   5.706   2.044
    5LYS     CB   57   4.513   5.553   1.901
    5LYS    HB1   58   4.431   5.498   1.919
    5LYS    HB2   59   4.589   5.492   1.876
    5LYS     CG   60   4.484   5.648   1.784
    5LYS    HG1   61   4.568   5.700   1.764
    5LYS    HG2   62   4.412   5.711   1.812
    5LYS     CD   63   4.440   5.574   1.657
    5LYS    HD1   64   4.357   5.522   1.676
    5LYS    HD2   65   4.513   5.512   1.628
    5LYS     CE   66   4.413   5.677   1.546
    5LYS    HE1   67   4.494   5.734   1.533
    5LYS    HE2   68   4.336   5.736   1.573
    5LYS     NZ   69   4.379   5.615   1.416
    5LYS    HZ1   70   4.362   5.686   1.348
    5LYS    HZ2   71   4.455   5.557   1.386
    5LYS    HZ3   72   4.297   5.559   1.426
    5LYS      C   73   4.543   5.540   2.152
    5LYS      O   74   4.437   5.526   2.212
    6ARG      N   75   4.657   5.485   2.196
    6ARG      H   76   4.742   5.504   2.147
    6ARG     CA   77   4.662   5.399   2.315
    6ARG     HA   78   4.582   5.339   2.312
    6ARG     CB   79   4.789   5.312   2.308
    6ARG    HB1   80   4.863   5.361   2.355
    6ARG    HB2   81   4.813   5.298   2.212
    6ARG     CG   82   4.772   5.174   2.375
    6ARG    HG1   83   4.685   5.134   2.346
    6ARG    HG2   84   4.772   5.185   2.474
    6ARG     CD   85   4.887   5.081   2.334
    6ARG    HD1   86   4.975   5.128   2.349
    6ARG    HD2   87   4.879   5.057   2.238
    6ARG     NE   88   4.889   4.956   2.413
    6ARG     HE   89   4.853   4.962   2.506
    6ARG     CZ   90   4.931   4.837   2.373
    6ARG    NH1   91   4.971   4.813   2.251
    6ARG   HH11   92   4.971   4.887   2.184
    6ARG   HH12   93   5.002   4.722   2.226
    6ARG    NH2   94   4.934   4.737   2.457
    6ARG   HH21   95   4.905   4.751   2.552
    6ARG   HH22   96   4.966   4.648   2.427
    6ARG      C   97   4.646   5.479   2.444
    6ARG      O   98   4.598   5.423   2.542
    7HIS      N   99   4.675   5.610   2.443
    7HIS      H  100   4.701   5.651   2.355
    7HIS     CA  101   4.672   5.696   2.561
    7HIS     HA  102   4.701   5.636   2.635
    7HIS     CB  103   4.773   5.812   2.544
    7HIS    HB1  104   4.723   5.898   2.546
    7HIS    HB2  105   4.818   5.802   2.455
    7HIS     CG  106   4.879   5.817   2.651
    7HIS    ND1  107   4.895   5.917   2.744
    7HIS    CE1  108   5.009   5.893   2.812
    7HIS    HE1  109   5.048   5.953   2.882
    7HIS    NE2  110   5.061   5.776   2.773
    7HIS    HE2  111   5.140   5.729   2.814
    7HIS    CD2  112   4.985   5.731   2.665
    7HIS    HD2  113   5.004   5.651   2.609
    7HIS      C  114   4.532   5.744   2.603
    7HIS      O  115   4.505   5.761   2.722
    8HIS      N  116   4.441   5.760   2.507
    8HIS      H  117   4.467   5.740   2.413
    8HIS     CA  118   4.304   5.804   2.535
    8HIS     HA  119   4.311   5.866   2.612
    8HIS     CB  120   4.249   5.877   2.412
    8HIS    HB1  121   4.149   5.880   2.417
    8HIS    HB2  122   4.277   5.828   2.329
    8HIS     CG  123   4.301   6.018   2.404
    8HIS    ND1  124   4.254   6.125   2.476
    8HIS    CE1  125   4.327   6.233   2.444
    8HIS    HE1  126   4.313   6.325   2.481
    8HIS    NE2  127   4.421   6.200   2.355
    8HIS    HE2  128   4.490   6.261   2.315
    8HIS    CD2  129   4.405   6.064   2.327
    8HIS    HD2  130   4.460   6.010   2.263
    8HIS      C  131   4.211   5.691   2.582
    8HIS      O  132   4.115   5.716   2.655
    9GLY      N  133   4.240   5.565   2.546
    9GLY      H  134   4.321   5.549   2.490
    9GLY     CA  135   4.160   5.449   2.586
    9GLY    HA1  136   4.185   5.373   2.526
    9GLY    HA2  137   4.064   5.473   2.570
    9GLY      C  138   4.178   5.408   2.732
    9GLY      O  139   4.081   5.375   2.800
   10TYR      N  140   4.301   5.412   2.785
   10TYR      H  141   4.377   5.448   2.730
   10TYR     CA  142   4.329   5.366   2.922
   10TYR     HA  143   4.266   5.289   2.934
   10TYR     CB  144   4.474   5.317   2.934
   10TYR    HB1  145   4.495   5.260   2.855
   10TYR    HB2  146   4.481   5.261   3.017
   10TYR     CG  147   4.578   5.426   2.943
   10TYR    CD1  148   4.670   5.445   2.838
   10TYR    HD1  149   4.666   5.386   2.757
   10TYR    CE1  150   4.768   5.545   2.849
   10TYR    HE1  151   4.837   5.555   2.777
   10TYR     CZ  152   4.768   5.632   2.959
   10TYR     OH  153   4.855   5.734   2.971
   10TYR     HH  154   4.837   5.783   3.057
   10TYR    CE2  155   4.682   5.607   3.067
   10TYR    HE2  156   4.687   5.664   3.149
   10TYR    CD2  157   4.590   5.503   3.060
   10TYR    HD2  158   4.532   5.482   3.139
   10TYR      C  159   4.292   5.470   3.029
   10TYR      O  160   4.252   5.432   3.139
   11LYS      N  161   4.303   5.601   2.999
   11LYS      H  162   4.332   5.627   2.907
   11LYS     CA  163   4.272   5.708   3.097
   11LYS     HA  164   4.322   5.680   3.179
   11LYS     CB  165   4.323   5.844   3.047
   11LYS    HB1  166   4.277   5.917   3.098
   11LYS    HB2  167   4.302   5.853   2.949
   11LYS     CG  168   4.475   5.860   3.066
   11LYS    HG1  169   4.522   5.803   2.998
   11LYS    HG2  170   4.499   5.828   3.158
   11LYS     CD  171   4.521   6.005   3.051
   11LYS    HD1  172   4.462   6.065   3.105
   11LYS    HD2  173   4.516   6.031   2.954
   11LYS     CE  174   4.666   6.019   3.100
   11LYS    HE1  175   4.727   5.967   3.040
   11LYS    HE2  176   4.673   5.984   3.193
   11LYS     NZ  177   4.711   6.161   3.099
   11LYS    HZ1  178   4.806   6.166   3.132
   11LYS    HZ2  179   4.706   6.197   3.007
   11LYS    HZ3  180   4.653   6.214   3.160
   11LYS      C  181   4.124   5.717   3.131
   11LYS      O  182   4.090   5.754   3.244
   12ARG      N  183   4.037   5.678   3.037
   12ARG      H  184   4.074   5.650   2.949
   12ARG     CA  185   3.891   5.674   3.055
   12ARG     HA  186   3.865   5.764   3.090
   12ARG     CB  187   3.825   5.647   2.919
   12ARG    HB1  188   3.763   5.569   2.929
   12ARG    HB2  189   3.896   5.625   2.852
   12ARG     CG  190   3.744   5.768   2.869
   12ARG    HG1  191   3.804   5.848   2.869
   12ARG    HG2  192   3.667   5.783   2.931
   12ARG     CD  193   3.690   5.746   2.727
   12ARG    HD1  194   3.765   5.750   2.661
   12ARG    HD2  195   3.623   5.816   2.705
   12ARG     NE  196   3.624   5.614   2.714
   12ARG     HE  197   3.673   5.537   2.756
   12ARG     CZ  198   3.511   5.584   2.654
   12ARG    NH1  199   3.439   5.673   2.590
   12ARG   HH11  200   3.470   5.768   2.586
   12ARG   HH12  201   3.354   5.646   2.546
   12ARG    NH2  202   3.466   5.462   2.658
   12ARG   HH21  203   3.517   5.391   2.706
   12ARG   HH22  204   3.379   5.439   2.612
   12ARG      C  205   3.848   5.572   3.160
   12ARG      O  206   3.768   5.604   3.247
   13LYS      N  207   3.908   5.452   3.159
   13LYS      H  208   3.979   5.436   3.090
   13LYS     CA  209   3.876   5.345   3.254
   13LYS     HA  210   3.777   5.337   3.254
   13LYS     CB  211   3.941   5.214   3.204
   13LYS    HB1  212   4.040   5.219   3.218
   13LYS    HB2  213   3.921   5.203   3.107
   13LYS     CG  214   3.887   5.091   3.280
   13LYS    HG1  215   3.787   5.091   3.275
   13LYS    HG2  216   3.915   5.097   3.375
   13LYS     CD  217   3.939   4.960   3.220
   13LYS    HD1  218   4.039   4.956   3.230
   13LYS    HD2  219   3.915   4.955   3.123
   13LYS     CE  220   3.876   4.842   3.295
   13LYS    HE1  221   3.776   4.847   3.287
   13LYS    HE2  222   3.902   4.846   3.392
   13LYS     NZ  223   3.920   4.711   3.242
   13LYS    HZ1  224   3.877   4.637   3.294
   13LYS    HZ2  225   3.895   4.703   3.145
   13LYS    HZ3  226   4.020   4.703   3.250
   13LYS      C  227   3.916   5.378   3.398
   13LYS      O  228   3.854   5.330   3.492
   14PHE      N  229   4.019   5.462   3.417
   14PHE      H  230   4.068   5.496   3.336
   14PHE     CA  231   4.064   5.504   3.550
   14PHE     HA  232   4.056   5.423   3.608
   14PHE     CB  233   4.211   5.548   3.543
   14PHE    HB1  234   4.217   5.631   3.488
   14PHE    HB2  235   4.264   5.475   3.500
   14PHE     CG  236   4.271   5.578   3.679
   14PHE    CD1  237   4.286   5.711   3.722
   14PHE    HD1  238   4.259   5.786   3.662
   14PHE    CE1  239   4.340   5.738   3.850
   14PHE    HE1  240   4.351   5.833   3.880
   14PHE     CZ  241   4.377   5.632   3.934
   14PHE     HZ  242   4.415   5.652   4.025
   14PHE    CE2  243   4.362   5.499   3.892
   14PHE    HE2  244   4.388   5.424   3.952
   14PHE    CD2  245   4.308   5.472   3.765
   14PHE    HD2  246   4.297   5.377   3.735
   14PHE      C  247   3.973   5.611   3.611
   14PHE      O  248   3.941   5.602   3.728
   15HIS      N  249   3.924   5.708   3.532
   15HIS      H  250   3.950   5.709   3.436
   15HIS     CA  251   3.834   5.813   3.583
   15HIS     HA  252   3.873   5.840   3.671
   15HIS     CB  253   3.833   5.932   3.485
   15HIS    HB1  254   3.756   5.992   3.508
   15HIS    HB2  255   3.821   5.897   3.392
   15HIS     CG  256   3.960   6.012   3.491
   15HIS    ND1  257   4.079   5.980   3.430
   15HIS    HD1  258   4.096   5.901   3.371
   15HIS    CE1  259   4.169   6.073   3.464
   15HIS    HE1  260   4.265   6.074   3.435
   15HIS    NE2  261   4.113   6.166   3.543
   15HIS    CD2  262   3.980   6.128   3.561
   15HIS    HD2  263   3.912   6.176   3.616
   15HIS      C  264   3.692   5.762   3.610
   15HIS      O  265   3.625   5.811   3.701
   16GLU      N  266   3.647   5.660   3.538
   16GLU      H  267   3.707   5.621   3.468
   16GLU     CA  268   3.514   5.600   3.556
   16GLU     HA  269   3.448   5.676   3.558
   16GLU     CB  270   3.488   5.508   3.436
   16GLU    HB1  271   3.540   5.423   3.451
   16GLU    HB2  272   3.522   5.553   3.354
   16GLU     CG  273   3.342   5.471   3.414
   16GLU    HG1  274   3.285   5.553   3.416
   16GLU    HG2  275   3.311   5.408   3.486
   16GLU     CD  276   3.328   5.402   3.278
   16GLU    OE1  277   3.338   5.278   3.273
   16GLU    OE2  278   3.319   5.475   3.176
   16GLU      C  279   3.498   5.528   3.692
   16GLU      O  280   3.388   5.518   3.745
   17LYS      N  281   3.608   5.485   3.754
   17LYS      H  282   3.697   5.504   3.712
   17LYS     CA  283   3.606   5.410   3.881
   17LYS     HA  284   3.528   5.349   3.874
   17LYS     CB  285   3.737   5.331   3.894
   17LYS    HB1  286   3.812   5.394   3.917
   17LYS    HB2  287   3.757   5.286   3.807
   17LYS     CG  288   3.730   5.222   4.003
   17LYS    HG1  289   3.649   5.165   3.986
   17LYS    HG2  290   3.720   5.267   4.092
   17LYS     CD  291   3.853   5.132   4.006
   17LYS    HD1  292   3.935   5.187   4.023
   17LYS    HD2  293   3.863   5.085   3.919
   17LYS     CE  294   3.835   5.030   4.120
   17LYS    HE1  295   3.756   4.972   4.099
   17LYS    HE2  296   3.819   5.078   4.206
   17LYS     NZ  297   3.954   4.943   4.137
   17LYS    HZ1  298   3.937   4.878   4.212
   17LYS    HZ2  299   3.971   4.892   4.053
   17LYS    HZ3  300   4.033   4.999   4.159
   17LYS      C  301   3.576   5.498   4.005
   17LYS      O  302   3.548   5.444   4.111
   18HIS      N  303   3.581   5.631   3.994
   18HIS      H  304   3.588   5.671   3.902
   18HIS     CA  305   3.575   5.721   4.110
   18HIS     HA  306   3.581   5.661   4.189
   18HIS     CB  307   3.696   5.816   4.106
   18HIS    HB1  308   3.683   5.889   4.173
   18HIS    HB2  309   3.704   5.855   4.014
   18HIS     CG  310   3.825   5.744   4.139
   18HIS    ND1  311   3.875   5.722   4.265
   18HIS    CE1  312   3.988   5.651   4.253
   18HIS    HE1  313   4.046   5.623   4.330
   18HIS    NE2  314   4.013   5.624   4.125
   18HIS    HE2  315   4.090   5.571   4.088
   18HIS    CD2  316   3.910   5.684   4.051
   18HIS    HD2  317   3.901   5.683   3.952
   18HIS      C  318   3.441   5.794   4.129
   18HIS      O  319   3.430   5.877   4.219
   19HIS      N  320   3.337   5.762   4.051
   19HIS      H  321   3.347   5.685   3.987
   19HIS     CA  322   3.209   5.834   4.055
   19HIS     HA  323   3.228   5.911   4.116
   19HIS     CB  324   3.175   5.883   3.913
   19HIS    HB1  325   3.079   5.913   3.911
   19HIS    HB2  326   3.188   5.808   3.848
   19HIS     CG  327   3.262   5.999   3.871
   19HIS    ND1  328   3.264   6.123   3.930
   19HIS    CE1  329   3.355   6.198   3.866
   19HIS    HE1  330   3.377   6.293   3.889
   19HIS    NE2  331   3.412   6.128   3.767
   19HIS    HE2  332   3.483   6.160   3.704
   19HIS    CD2  333   3.354   6.001   3.770
   19HIS    HD2  334   3.375   5.925   3.708
   19HIS      C  335   3.092   5.761   4.124
   19HIS      O  336   2.983   5.817   4.129
   20SER      N  337   3.111   5.642   4.183
   20SER      H  338   3.205   5.608   4.194
   20SER     CA  339   2.999   5.560   4.231
   20SER     HA  340   2.920   5.619   4.215
   20SER     CB  341   2.990   5.431   4.148
   20SER    HB1  342   2.986   5.452   4.051
   20SER    HB2  343   2.910   5.377   4.175
   20SER     OG  344   3.104   5.352   4.170
   20SER     HG  345   3.098   5.268   4.116
   20SER      C  346   2.993   5.533   4.382
   20SER      O  347   2.920   5.443   4.423
   21HIS      N  348   3.064   5.607   4.468
   21HIS      H  349   3.125   5.679   4.432
   21HIS     CA  350   3.055   5.585   4.614
   21HIS     HA  351   2.963   5.551   4.627
   21HIS     CB  352   3.155   5.478   4.659
   21HIS    HB1  353   3.243   5.521   4.682
   21HIS    HB2  354   3.169   5.412   4.584
   21HIS     CG  355   3.106   5.403   4.780
   21HIS    ND1  356   2.998   5.317   4.782
   21HIS    CE1  357   2.984   5.270   4.907
   21HIS    HE1  358   2.913   5.206   4.937
   21HIS    NE2  359   3.080   5.320   4.986
   21HIS    HE2  360   3.095   5.300   5.083
   21HIS    CD2  361   3.157   5.406   4.907
   21HIS    HD2  362   3.235   5.461   4.937
   21HIS      C  363   3.062   5.713   4.698
   21HIS      O  364   3.141   5.726   4.791
   22ARG      N  365   2.978   5.812   4.664
   22ARG      H  366   2.937   5.811   4.573
   22ARG     CA  367   2.946   5.922   4.756
   22ARG     HA  368   2.953   5.887   4.849
   22ARG     CB  369   3.051   6.035   4.744
   22ARG    HB1  370   3.020   6.102   4.677
   22ARG    HB2  371   3.138   5.996   4.715
   22ARG     CG  372   3.071   6.105   4.879
   22ARG    HG1  373   3.094   6.036   4.949
   22ARG    HG2  374   2.986   6.151   4.905
   22ARG     CD  375   3.183   6.208   4.871
   22ARG    HD1  376   3.163   6.274   4.798
   22ARG    HD2  377   3.270   6.162   4.851
   22ARG     NE  378   3.198   6.282   4.998
   22ARG     HE  379   3.136   6.256   5.072
   22ARG     CZ  380   3.285   6.378   5.023
   22ARG    NH1  381   3.373   6.416   4.934
   22ARG   HH11  382   3.376   6.372   4.845
   22ARG   HH12  383   3.437   6.489   4.956
   22ARG    NH2  384   3.284   6.439   5.138
   22ARG   HH21  385   3.218   6.413   5.208
   22ARG   HH22  386   3.350   6.512   5.156
   22ARG      C  387   2.801   5.964   4.738
   22ARG      O  388   2.771   6.079   4.705
   23GLY      N  389   2.711   5.867   4.751
   23GLY      H  390   2.743   5.772   4.747
   23GLY     CA  391   2.569   5.891   4.771
   23GLY    HA1  392   2.517   5.826   4.717
   23GLY    HA2  393   2.547   5.984   4.741
   23GLY      C  394   2.538   5.874   4.920
   23GLY      O  395   2.568   5.768   4.972
   24TYR      N  396   2.481   5.980   4.978
   24TYR      H  397   2.495   6.067   4.931
   24TYR     CA  398   2.403   5.989   5.103
   24TYR     HA  399   2.409   6.086   5.123
   24TYR     CB  400   2.259   5.944   5.073
   24TYR    HB1  401   2.211   5.931   5.160
   24TYR    HB2  402   2.261   5.858   5.023
   24TYR     CG  403   2.184   6.048   4.991
   24TYR    CD1  404   2.114   6.150   5.057
   24TYR    HD1  405   2.111   6.152   5.157
   24TYR    CE1  406   2.047   6.249   4.983
   24TYR    HE1  407   1.996   6.321   5.031
   24TYR     CZ  408   2.052   6.247   4.842
   24TYR     OH  409   1.988   6.343   4.770
   24TYR     HH  410   2.002   6.326   4.673
   24TYR    CE2  411   2.125   6.146   4.776
   24TYR    HE2  412   2.129   6.145   4.676
   24TYR    CD2  413   2.190   6.046   4.850
   24TYR    HD2  414   2.241   5.974   4.803
   24TYR      C  415   2.460   5.931   5.233
   24TYR    OC1  416   2.481   6.017   5.321
   24TYR    OC2  417   2.478   5.809   5.245
   7.98234   7.52582   6.51756   0.00000   0.00000   2.66078   0.00000  -2.66078   3.76291
