Gnomes, ROck Monsters And Chili Sauce
38589
    1ASP      N    1   5.239   5.725   1.396
    1ASP     H1    2   5.285   5.781   1.327
    1ASP     H2    3   5.286   5.735   1.484
    1ASP     H3    4   5.240   5.629   1.368
    1ASP     CA    5   5.099   5.771   1.410
    1ASP     HA    6   5.108   5.863   1.448
    1ASP     CB    7   5.033   5.776   1.273
    1ASP    HB1    8   4.988   5.689   1.253
    1ASP    HB2    9   5.102   5.794   1.202
    1ASP     CG   10   4.932   5.889   1.276
    1ASP    OD1   11   4.980   6.001   1.301
    1ASP    OD2   12   4.811   5.857   1.269
    1ASP      C   13   5.015   5.695   1.514
    1ASP      O   14   4.928   5.753   1.578
    2SER      N   15   5.040   5.566   1.542
    2SER     HN   16   5.122   5.524   1.503
    2SER     CA   17   4.951   5.484   1.628
    2SER     HA   18   4.863   5.533   1.619
    2SER     CB   19   4.944   5.341   1.573
    2SER    HB1   20   4.874   5.288   1.621
    2SER    HB2   21   5.033   5.295   1.581
    2SER     OG   22   4.910   5.347   1.436
    2SER    HG1   23   4.905   5.254   1.399
    2SER      C   24   4.980   5.484   1.779
    2SER      O   25   4.912   5.413   1.853
    3HIS      N   26   5.077   5.561   1.829
    3HIS     HN   27   5.129   5.620   1.767
    3HIS     CA   28   5.110   5.562   1.973
    3HIS     HA   29   5.093   5.469   2.004
    3HIS     CB   30   5.259   5.595   1.992
    3HIS    HB1   31   5.272   5.693   1.982
    3HIS    HB2   32   5.312   5.547   1.923
    3HIS    ND1   33   5.308   5.426   2.181
    3HIS     CG   34   5.310   5.554   2.128
    3HIS    CE1   35   5.362   5.430   2.304
    3HIS    HE1   36   5.373   5.351   2.364
    3HIS    NE2   37   5.399   5.555   2.333
    3HIS    HE2   38   5.441   5.586   2.419
    3HIS    CD2   39   5.368   5.634   2.223
    3HIS    HD2   40   5.385   5.732   2.214
    3HIS      C   41   5.017   5.653   2.056
    3HIS      O   42   4.984   5.620   2.170
    4ALA      N   43   4.962   5.760   1.996
    4ALA     HN   44   4.985   5.777   1.900
    4ALA     CA   45   4.872   5.854   2.064
    4ALA     HA   46   4.915   5.874   2.152
    4ALA     CB   47   4.862   5.980   1.977
    4ALA    HB1   48   4.953   6.016   1.959
    4ALA    HB2   49   4.817   5.957   1.890
    4ALA    HB3   50   4.808   6.049   2.024
    4ALA      C   51   4.733   5.795   2.095
    4ALA      O   52   4.671   5.829   2.195
    5LYS      N   53   4.686   5.699   2.014
    5LYS     HN   54   4.744   5.669   1.938
    5LYS     CA   55   4.554   5.635   2.032
    5LYS     HA   56   4.491   5.711   2.047
    5LYS     CB   57   4.516   5.558   1.904
    5LYS    HB1   58   4.434   5.503   1.922
    5LYS    HB2   59   4.592   5.497   1.879
    5LYS     CG   60   4.487   5.653   1.787
    5LYS    HG1   61   4.571   5.705   1.767
    5LYS    HG2   62   4.415   5.716   1.815
    5LYS     CD   63   4.443   5.579   1.660
    5LYS    HD1   64   4.516   5.517   1.631
    5LYS    HD2   65   4.360   5.527   1.679
    5LYS     CE   66   4.416   5.682   1.549
    5LYS    HE1   67   4.497   5.739   1.536
    5LYS    HE2   68   4.339   5.741   1.576
    5LYS     NZ   69   4.382   5.620   1.419
    5LYS    HZ1   70   4.365   5.691   1.351
    5LYS    HZ2   71   4.458   5.562   1.389
    5LYS    HZ3   72   4.300   5.564   1.429
    5LYS      C   73   4.546   5.545   2.155
    5LYS      O   74   4.440   5.531   2.215
    6ARG      N   75   4.660   5.490   2.199
    6ARG     HN   76   4.745   5.509   2.150
    6ARG     CA   77   4.665   5.404   2.318
    6ARG     HA   78   4.585   5.344   2.315
    6ARG     CB   79   4.792   5.317   2.311
    6ARG    HB1   80   4.866   5.366   2.358
    6ARG    HB2   81   4.816   5.303   2.215
    6ARG     CG   82   4.775   5.179   2.378
    6ARG    HG1   83   4.688   5.139   2.349
    6ARG    HG2   84   4.775   5.190   2.477
    6ARG     CD   85   4.890   5.086   2.337
    6ARG    HD1   86   4.978   5.133   2.352
    6ARG    HD2   87   4.882   5.062   2.241
    6ARG     NE   88   4.892   4.961   2.416
    6ARG     HE   89   4.856   4.967   2.509
    6ARG     CZ   90   4.934   4.842   2.376
    6ARG    NH1   91   4.974   4.818   2.254
    6ARG   HH11   92   4.974   4.892   2.187
    6ARG   HH12   93   5.005   4.727   2.229
    6ARG    NH2   94   4.937   4.742   2.460
    6ARG   HH21   95   4.908   4.756   2.555
    6ARG   HH22   96   4.969   4.653   2.430
    6ARG      C   97   4.649   5.484   2.447
    6ARG      O   98   4.601   5.428   2.545
    7HIS      N   99   4.678   5.615   2.446
    7HIS     HN  100   4.704   5.656   2.358
    7HIS     CA  101   4.675   5.701   2.564
    7HIS     HA  102   4.704   5.641   2.638
    7HIS     CB  103   4.776   5.817   2.547
    7HIS    HB1  104   4.726   5.903   2.549
    7HIS    HB2  105   4.821   5.807   2.458
    7HIS    ND1  106   4.898   5.922   2.747
    7HIS     CG  107   4.882   5.822   2.654
    7HIS    CE1  108   5.012   5.898   2.815
    7HIS    HE1  109   5.051   5.958   2.885
    7HIS    NE2  110   5.064   5.781   2.776
    7HIS    HE2  111   5.143   5.734   2.817
    7HIS    CD2  112   4.988   5.736   2.668
    7HIS    HD2  113   5.007   5.656   2.612
    7HIS      C  114   4.535   5.749   2.606
    7HIS      O  115   4.508   5.766   2.725
    8HIS      N  116   4.444   5.765   2.510
    8HIS     HN  117   4.470   5.745   2.416
    8HIS     CA  118   4.307   5.809   2.538
    8HIS     HA  119   4.314   5.871   2.615
    8HIS     CB  120   4.252   5.882   2.415
    8HIS    HB1  121   4.152   5.885   2.420
    8HIS    HB2  122   4.280   5.833   2.332
    8HIS    ND1  123   4.257   6.130   2.479
    8HIS     CG  124   4.304   6.023   2.407
    8HIS    CE1  125   4.330   6.238   2.447
    8HIS    HE1  126   4.316   6.330   2.484
    8HIS    NE2  127   4.424   6.205   2.358
    8HIS    HE2  128   4.493   6.266   2.318
    8HIS    CD2  129   4.408   6.069   2.330
    8HIS    HD2  130   4.463   6.015   2.266
    8HIS      C  131   4.214   5.696   2.585
    8HIS      O  132   4.118   5.721   2.658
    9GLY      N  133   4.243   5.570   2.549
    9GLY     HN  134   4.324   5.554   2.493
    9GLY     CA  135   4.163   5.454   2.589
    9GLY    HA1  136   4.067   5.478   2.573
    9GLY    HA2  137   4.188   5.378   2.529
    9GLY      C  138   4.181   5.413   2.735
    9GLY      O  139   4.084   5.380   2.803
   10TYR      N  140   4.304   5.417   2.788
   10TYR     HN  141   4.380   5.453   2.733
   10TYR     CA  142   4.332   5.371   2.925
   10TYR     HA  143   4.269   5.294   2.937
   10TYR     CB  144   4.477   5.322   2.937
   10TYR    HB1  145   4.498   5.265   2.858
   10TYR    HB2  146   4.484   5.266   3.020
   10TYR     CG  147   4.581   5.431   2.946
   10TYR    CD1  148   4.673   5.450   2.841
   10TYR    HD1  149   4.669   5.391   2.760
   10TYR    CE1  150   4.771   5.550   2.852
   10TYR    HE1  151   4.840   5.560   2.780
   10TYR     CZ  152   4.771   5.637   2.962
   10TYR     OH  153   4.858   5.739   2.974
   10TYR     HH  154   4.840   5.788   3.060
   10TYR    CD2  155   4.593   5.508   3.063
   10TYR    HD2  156   4.535   5.487   3.142
   10TYR    CE2  157   4.685   5.612   3.070
   10TYR    HE2  158   4.690   5.669   3.152
   10TYR      C  159   4.295   5.475   3.032
   10TYR      O  160   4.255   5.437   3.142
   11LYS      N  161   4.306   5.606   3.002
   11LYS     HN  162   4.335   5.632   2.910
   11LYS     CA  163   4.275   5.713   3.100
   11LYS     HA  164   4.325   5.685   3.182
   11LYS     CB  165   4.326   5.849   3.050
   11LYS    HB1  166   4.280   5.922   3.101
   11LYS    HB2  167   4.305   5.858   2.952
   11LYS     CG  168   4.478   5.865   3.069
   11LYS    HG1  169   4.525   5.808   3.001
   11LYS    HG2  170   4.502   5.833   3.161
   11LYS     CD  171   4.524   6.010   3.054
   11LYS    HD1  172   4.519   6.036   2.957
   11LYS    HD2  173   4.465   6.070   3.108
   11LYS     CE  174   4.669   6.024   3.103
   11LYS    HE1  175   4.730   5.972   3.043
   11LYS    HE2  176   4.676   5.989   3.196
   11LYS     NZ  177   4.714   6.166   3.102
   11LYS    HZ1  178   4.809   6.171   3.135
   11LYS    HZ2  179   4.709   6.202   3.010
   11LYS    HZ3  180   4.656   6.219   3.163
   11LYS      C  181   4.127   5.722   3.134
   11LYS      O  182   4.093   5.759   3.247
   12ARG      N  183   4.040   5.683   3.040
   12ARG     HN  184   4.077   5.655   2.952
   12ARG     CA  185   3.894   5.679   3.058
   12ARG     HA  186   3.868   5.769   3.093
   12ARG     CB  187   3.828   5.652   2.922
   12ARG    HB1  188   3.766   5.574   2.932
   12ARG    HB2  189   3.899   5.630   2.855
   12ARG     CG  190   3.747   5.773   2.872
   12ARG    HG1  191   3.807   5.853   2.872
   12ARG    HG2  192   3.670   5.788   2.934
   12ARG     CD  193   3.693   5.751   2.730
   12ARG    HD1  194   3.768   5.755   2.664
   12ARG    HD2  195   3.626   5.821   2.708
   12ARG     NE  196   3.627   5.619   2.717
   12ARG     HE  197   3.676   5.542   2.759
   12ARG     CZ  198   3.514   5.589   2.657
   12ARG    NH1  199   3.442   5.678   2.593
   12ARG   HH11  200   3.473   5.773   2.589
   12ARG   HH12  201   3.357   5.651   2.549
   12ARG    NH2  202   3.469   5.467   2.661
   12ARG   HH21  203   3.520   5.396   2.709
   12ARG   HH22  204   3.382   5.444   2.615
   12ARG      C  205   3.851   5.577   3.163
   12ARG      O  206   3.771   5.609   3.250
   13LYS      N  207   3.911   5.457   3.162
   13LYS     HN  208   3.982   5.441   3.093
   13LYS     CA  209   3.879   5.350   3.257
   13LYS     HA  210   3.780   5.342   3.257
   13LYS     CB  211   3.944   5.219   3.207
   13LYS    HB1  212   4.043   5.224   3.221
   13LYS    HB2  213   3.924   5.208   3.110
   13LYS     CG  214   3.890   5.096   3.283
   13LYS    HG1  215   3.790   5.096   3.278
   13LYS    HG2  216   3.918   5.102   3.378
   13LYS     CD  217   3.942   4.965   3.223
   13LYS    HD1  218   3.918   4.960   3.126
   13LYS    HD2  219   4.042   4.961   3.233
   13LYS     CE  220   3.879   4.847   3.298
   13LYS    HE1  221   3.779   4.852   3.290
   13LYS    HE2  222   3.905   4.851   3.395
   13LYS     NZ  223   3.923   4.716   3.245
   13LYS    HZ1  224   3.880   4.642   3.297
   13LYS    HZ2  225   3.898   4.708   3.148
   13LYS    HZ3  226   4.023   4.708   3.253
   13LYS      C  227   3.919   5.383   3.401
   13LYS      O  228   3.857   5.335   3.495
   14PHE      N  229   4.022   5.467   3.420
   14PHE     HN  230   4.071   5.501   3.339
   14PHE     CA  231   4.067   5.509   3.553
   14PHE     HA  232   4.059   5.428   3.611
   14PHE     CB  233   4.214   5.553   3.546
   14PHE    HB1  234   4.220   5.636   3.491
   14PHE    HB2  235   4.267   5.480   3.503
   14PHE     CG  236   4.274   5.583   3.682
   14PHE    CD1  237   4.289   5.716   3.725
   14PHE    HD1  238   4.262   5.791   3.665
   14PHE    CE1  239   4.343   5.743   3.853
   14PHE    HE1  240   4.354   5.838   3.883
   14PHE     CZ  241   4.380   5.637   3.937
   14PHE     HZ  242   4.418   5.657   4.028
   14PHE    CD2  243   4.311   5.477   3.768
   14PHE    HD2  244   4.300   5.382   3.738
   14PHE    CE2  245   4.365   5.504   3.895
   14PHE    HE2  246   4.391   5.429   3.955
   14PHE      C  247   3.976   5.616   3.614
   14PHE      O  248   3.944   5.607   3.731
   15HIS      N  249   3.927   5.713   3.535
   15HIS     HN  250   3.953   5.714   3.439
   15HIS     CA  251   3.837   5.818   3.586
   15HIS     HA  252   3.876   5.845   3.674
   15HIS     CB  253   3.836   5.937   3.488
   15HIS    HB1  254   3.759   5.997   3.511
   15HIS    HB2  255   3.824   5.902   3.395
   15HIS    ND1  256   4.082   5.985   3.433
   15HIS    HD1  257   4.099   5.906   3.374
   15HIS     CG  258   3.963   6.017   3.494
   15HIS    CE1  259   4.172   6.078   3.467
   15HIS    HE1  260   4.268   6.079   3.438
   15HIS    NE2  261   4.116   6.171   3.546
   15HIS    CD2  262   3.983   6.133   3.564
   15HIS    HD2  263   3.915   6.181   3.619
   15HIS      C  264   3.695   5.767   3.613
   15HIS      O  265   3.628   5.816   3.704
   16GLU      N  266   3.650   5.665   3.541
   16GLU     HN  267   3.710   5.626   3.471
   16GLU     CA  268   3.517   5.605   3.559
   16GLU     HA  269   3.451   5.681   3.561
   16GLU     CB  270   3.491   5.513   3.439
   16GLU    HB1  271   3.543   5.428   3.454
   16GLU    HB2  272   3.525   5.558   3.357
   16GLU     CG  273   3.345   5.476   3.417
   16GLU    HG1  274   3.288   5.558   3.419
   16GLU    HG2  275   3.314   5.413   3.489
   16GLU     CD  276   3.331   5.407   3.281
   16GLU    OE1  277   3.341   5.283   3.276
   16GLU    OE2  278   3.322   5.480   3.179
   16GLU      C  279   3.501   5.533   3.695
   16GLU      O  280   3.391   5.523   3.748
   17LYS      N  281   3.611   5.490   3.757
   17LYS     HN  282   3.700   5.509   3.715
   17LYS     CA  283   3.609   5.415   3.884
   17LYS     HA  284   3.531   5.354   3.877
   17LYS     CB  285   3.740   5.336   3.897
   17LYS    HB1  286   3.815   5.399   3.920
   17LYS    HB2  287   3.760   5.291   3.810
   17LYS     CG  288   3.733   5.227   4.006
   17LYS    HG1  289   3.652   5.170   3.989
   17LYS    HG2  290   3.723   5.272   4.095
   17LYS     CD  291   3.856   5.137   4.009
   17LYS    HD1  292   3.866   5.090   3.922
   17LYS    HD2  293   3.938   5.192   4.026
   17LYS     CE  294   3.838   5.035   4.123
   17LYS    HE1  295   3.759   4.977   4.102
   17LYS    HE2  296   3.822   5.083   4.209
   17LYS     NZ  297   3.957   4.948   4.140
   17LYS    HZ1  298   3.940   4.883   4.215
   17LYS    HZ2  299   3.974   4.897   4.056
   17LYS    HZ3  300   4.036   5.004   4.162
   17LYS      C  301   3.579   5.503   4.008
   17LYS      O  302   3.551   5.449   4.114
   18HIS      N  303   3.584   5.636   3.997
   18HIS     HN  304   3.591   5.676   3.905
   18HIS     CA  305   3.578   5.726   4.113
   18HIS     HA  306   3.584   5.666   4.192
   18HIS     CB  307   3.699   5.821   4.109
   18HIS    HB1  308   3.686   5.894   4.176
   18HIS    HB2  309   3.707   5.860   4.017
   18HIS    ND1  310   3.878   5.727   4.268
   18HIS     CG  311   3.828   5.749   4.142
   18HIS    CE1  312   3.991   5.656   4.256
   18HIS    HE1  313   4.049   5.628   4.333
   18HIS    NE2  314   4.016   5.629   4.128
   18HIS    HE2  315   4.093   5.576   4.091
   18HIS    CD2  316   3.913   5.689   4.054
   18HIS    HD2  317   3.904   5.688   3.955
   18HIS      C  318   3.444   5.799   4.132
   18HIS      O  319   3.433   5.882   4.222
   19HIS      N  320   3.340   5.767   4.054
   19HIS     HN  321   3.350   5.690   3.990
   19HIS     CA  322   3.212   5.839   4.058
   19HIS     HA  323   3.231   5.916   4.119
   19HIS     CB  324   3.178   5.888   3.916
   19HIS    HB1  325   3.082   5.918   3.914
   19HIS    HB2  326   3.191   5.813   3.851
   19HIS    ND1  327   3.267   6.128   3.933
   19HIS     CG  328   3.265   6.004   3.874
   19HIS    CE1  329   3.358   6.203   3.869
   19HIS    HE1  330   3.380   6.298   3.892
   19HIS    NE2  331   3.415   6.133   3.770
   19HIS    HE2  332   3.486   6.165   3.707
   19HIS    CD2  333   3.357   6.006   3.773
   19HIS    HD2  334   3.378   5.930   3.711
   19HIS      C  335   3.095   5.766   4.127
   19HIS      O  336   2.986   5.822   4.132
   20SER      N  337   3.114   5.647   4.186
   20SER     HN  338   3.208   5.613   4.197
   20SER     CA  339   3.002   5.565   4.234
   20SER     HA  340   2.923   5.624   4.218
   20SER     CB  341   2.993   5.436   4.151
   20SER    HB1  342   2.989   5.457   4.054
   20SER    HB2  343   2.913   5.382   4.178
   20SER     OG  344   3.107   5.357   4.173
   20SER    HG1  345   3.101   5.273   4.119
   20SER      C  346   2.996   5.538   4.385
   20SER      O  347   2.923   5.448   4.426
   21HIS      N  348   3.067   5.612   4.471
   21HIS     HN  349   3.128   5.684   4.435
   21HIS     CA  350   3.058   5.590   4.617
   21HIS     HA  351   2.966   5.556   4.630
   21HIS     CB  352   3.158   5.483   4.662
   21HIS    HB1  353   3.246   5.526   4.685
   21HIS    HB2  354   3.172   5.417   4.587
   21HIS    ND1  355   3.001   5.322   4.785
   21HIS     CG  356   3.109   5.408   4.783
   21HIS    CE1  357   2.987   5.275   4.910
   21HIS    HE1  358   2.916   5.211   4.940
   21HIS    NE2  359   3.083   5.325   4.989
   21HIS    HE2  360   3.098   5.305   5.086
   21HIS    CD2  361   3.160   5.411   4.910
   21HIS    HD2  362   3.238   5.466   4.940
   21HIS      C  363   3.065   5.718   4.701
   21HIS      O  364   3.144   5.731   4.794
   22ARG      N  365   2.981   5.817   4.667
   22ARG     HN  366   2.940   5.816   4.576
   22ARG     CA  367   2.949   5.927   4.759
   22ARG     HA  368   2.956   5.892   4.852
   22ARG     CB  369   3.054   6.040   4.747
   22ARG    HB1  370   3.023   6.107   4.680
   22ARG    HB2  371   3.141   6.001   4.718
   22ARG     CG  372   3.074   6.110   4.882
   22ARG    HG1  373   3.097   6.041   4.952
   22ARG    HG2  374   2.989   6.156   4.908
   22ARG     CD  375   3.186   6.213   4.874
   22ARG    HD1  376   3.166   6.279   4.801
   22ARG    HD2  377   3.273   6.167   4.854
   22ARG     NE  378   3.201   6.287   5.001
   22ARG     HE  379   3.139   6.261   5.075
   22ARG     CZ  380   3.288   6.383   5.026
   22ARG    NH1  381   3.376   6.421   4.937
   22ARG   HH11  382   3.379   6.377   4.848
   22ARG   HH12  383   3.440   6.494   4.959
   22ARG    NH2  384   3.287   6.444   5.141
   22ARG   HH21  385   3.221   6.418   5.211
   22ARG   HH22  386   3.353   6.517   5.159
   22ARG      C  387   2.804   5.969   4.741
   22ARG      O  388   2.774   6.084   4.708
   23GLY      N  389   2.714   5.872   4.754
   23GLY     HN  390   2.746   5.777   4.750
   23GLY     CA  391   2.572   5.896   4.774
   23GLY    HA1  392   2.550   5.989   4.744
   23GLY    HA2  393   2.520   5.831   4.720
   23GLY      C  394   2.541   5.879   4.923
   23GLY      O  395   2.571   5.773   4.975
   24TYR      N  396   2.484   5.985   4.981
   24TYR     HN  397   2.498   6.072   4.934
   24TYR     CA  398   2.406   5.994   5.106
   24TYR     HA  399   2.412   6.091   5.126
   24TYR     CB  400   2.262   5.949   5.076
   24TYR    HB1  401   2.214   5.936   5.163
   24TYR    HB2  402   2.264   5.863   5.026
   24TYR     CG  403   2.187   6.053   4.994
   24TYR    CD1  404   2.117   6.155   5.060
   24TYR    HD1  405   2.114   6.157   5.160
   24TYR    CE1  406   2.050   6.254   4.986
   24TYR    HE1  407   1.999   6.326   5.034
   24TYR     CZ  408   2.055   6.252   4.845
   24TYR     OH  409   1.991   6.348   4.773
   24TYR     HH  410   2.005   6.331   4.676
   24TYR    CD2  411   2.193   6.051   4.853
   24TYR    HD2  412   2.244   5.979   4.806
   24TYR    CE2  413   2.128   6.151   4.779
   24TYR    HE2  414   2.132   6.150   4.679
   24TYR      C  415   2.463   5.936   5.236
   24TYR    OT1  416   2.587   5.880   5.229
   24TYR    OT2  417   2.386   5.947   5.347
   25SOL     OW  418   0.230   0.628   0.113
   25SOL    HW1  419   0.137   0.626   0.150
   25SOL    HW2  420   0.231   0.589   0.021
   26SOL     OW  421   0.225   0.275   0.996
   26SOL    HW1  422   0.260   0.258   1.088
   26SOL    HW2  423   0.137   0.230   0.984
   27SOL     OW  424   0.019   0.368   0.647
   27SOL    HW1  425  -0.063   0.411   0.686
   27SOL    HW2  426  -0.009   0.295   0.584
   28SOL     OW  427   0.569   1.275   1.165
   28SOL    HW1  428   0.476   1.268   1.128
   28SOL    HW2  429   0.580   1.364   1.209
   29SOL     OW  430   1.555   1.511   0.703
   29SOL    HW1  431   1.498   1.495   0.784
   29SOL    HW2  432   1.496   1.521   0.623
   30SOL     OW  433   1.135   0.703   0.717
   30SOL    HW1  434   1.192   0.781   0.692
   30SOL    HW2  435   1.075   0.729   0.793
   31SOL     OW  436   1.755   0.607   0.231
   31SOL    HW1  437   1.743   0.594   0.132
   31SOL    HW2  438   1.725   0.526   0.280
   32SOL     OW  439   0.768   1.144   1.023
   32SOL    HW1  440   0.690   1.161   1.083
   32SOL    HW2  441   0.802   1.231   0.987
   33SOL     OW  442   0.850   0.798   1.823
   33SOL    HW1  443   0.846   0.874   1.888
   33SOL    HW2  444   0.872   0.834   1.732
   34SOL     OW  445   0.685   1.012   0.665
   34SOL    HW1  446   0.754   0.996   0.735
   34SOL    HW2  447   0.612   1.069   0.703
   35SOL     OW  448   0.686   1.161   1.803
   35SOL    HW1  449   0.746   1.240   1.817
   35SOL    HW2  450   0.600   1.192   1.762
   36SOL     OW  451   0.335   1.435   1.061
   36SOL    HW1  452   0.257   1.404   1.008
   36SOL    HW2  453   0.393   1.493   1.004
   37SOL     OW  454   1.460   1.505   1.339
   37SOL    HW1  455   1.484   1.599   1.365
   37SOL    HW2  456   1.444   1.451   1.421
   38SOL     OW  457   0.438   0.392   1.499
   38SOL    HW1  458   0.520   0.336   1.508
   38SOL    HW2  459   0.357   0.334   1.503
   39SOL     OW  460   1.603   0.447   0.737
   39SOL    HW1  461   1.529   0.493   0.687
   39SOL    HW2  462   1.654   0.515   0.790
   40SOL     OW  463   0.231   1.713   0.483
   40SOL    HW1  464   0.265   1.790   0.537
   40SOL    HW2  465   0.275   1.713   0.393
   41SOL     OW  466   1.127   1.341   1.690
   41SOL    HW1  467   1.174   1.341   1.778
   41SOL    HW2  468   1.079   1.254   1.679
   42SOL     OW  469   0.230   1.434   0.538
   42SOL    HW1  470   0.204   1.530   0.538
   42SOL    HW2  471   0.159   1.380   0.583
   43SOL     OW  472   0.240   1.091   0.886
   43SOL    HW1  473   0.254   1.007   0.938
   43SOL    HW2  474   0.185   1.155   0.941
   44SOL     OW  475   0.620   1.786   1.439
   44SOL    HW1  476   0.528   1.769   1.474
   44SOL    HW2  477   0.648   1.878   1.465
   45SOL     OW  478   0.606   0.964   0.123
   45SOL    HW1  479   0.613   1.048   0.069
   45SOL    HW2  480   0.652   0.977   0.211
   46SOL     OW  481   1.594   0.114   1.480
   46SOL    HW1  482   1.576   0.181   1.408
   46SOL    HW2  483   1.591   0.160   1.569
   47SOL     OW  484   0.122   0.643   0.563
   47SOL    HW1  485   0.077   0.555   0.580
   47SOL    HW2  486   0.121   0.697   0.647
   48SOL     OW  487   1.842   1.767   0.359
   48SOL    HW1  488   1.896   1.738   0.439
   48SOL    HW2  489   1.872   1.857   0.330
   49SOL     OW  490   0.027   1.596   0.117
   49SOL    HW1  491   0.008   1.500   0.138
   49SOL    HW2  492  -0.006   1.654   0.192
   50SOL     OW  493   1.689   0.922   0.612
   50SOL    HW1  494   1.784   0.893   0.620
   50SOL    HW2  495   1.681   0.987   0.537
   51SOL     OW  496   1.641   1.108   0.432
   51SOL    HW1  497   1.727   1.110   0.380
   51SOL    HW2  498   1.655   1.155   0.520
   52SOL     OW  499   0.113   0.737   1.597
   52SOL    HW1  500   0.201   0.724   1.642
   52SOL    HW2  501   0.100   0.834   1.575
   53SOL     OW  502   0.613   1.365   0.726
   53SOL    HW1  503   0.564   1.278   0.735
   53SOL    HW2  504   0.590   1.408   0.639
   54SOL     OW  505   1.293   1.228   1.423
   54SOL    HW1  506   1.330   1.155   1.365
   54SOL    HW2  507   1.345   1.233   1.508
   55SOL     OW  508   0.809   0.004   0.502
   55SOL    HW1  509   0.849   0.095   0.493
   55SOL    HW2  510   0.709   0.012   0.508
   56SOL     OW  511   0.197   0.976   1.264
   56SOL    HW1  512   0.286   0.931   1.250
   56SOL    HW2  513   0.124   0.911   1.245
   57SOL     OW  514   1.525   0.999   0.190
   57SOL    HW1  515   1.462   0.923   0.203
   57SOL    HW2  516   1.573   1.017   0.276
   58SOL     OW  517   1.187   1.792   1.616
   58SOL    HW1  518   1.211   1.852   1.540
   58SOL    HW2  519   1.194   1.697   1.586
   59SOL     OW  520   0.317   0.251   1.801
   59SOL    HW1  521   0.388   0.322   1.807
   59SOL    HW2  522   0.229   0.290   1.829
   60SOL     OW  523   1.466   1.417   0.953
   60SOL    HW1  524   1.407   1.423   1.033
   60SOL    HW2  525   1.451   1.329   0.907
   61SOL     OW  526   1.667   1.714   0.572
   61SOL    HW1  527   1.626   1.691   0.484
   61SOL    HW2  528   1.649   1.640   0.637
   62SOL     OW  529   0.598   0.729   0.270
   62SOL    HW1  530   0.622   0.798   0.202
   62SOL    HW2  531   0.520   0.762   0.324
   63SOL     OW  532   1.281   0.345   0.944
   63SOL    HW1  533   1.195   0.295   0.931
   63SOL    HW2  534   1.343   0.291   1.000
   64SOL     OW  535   1.576   1.662   0.307
   64SOL    HW1  536   1.665   1.708   0.310
   64SOL    HW2  537   1.555   1.638   0.212
   65SOL     OW  538   0.807   0.605   1.465
   65SOL    HW1  539   0.760   0.602   1.554
   65SOL    HW2  540   0.756   0.550   1.399
   66SOL     OW  541   1.394   0.469   1.674
   66SOL    HW1  542   1.374   0.512   1.762
   66SOL    HW2  543   1.472   0.407   1.683
   67SOL     OW  544   0.973   0.890   1.572
   67SOL    HW1  545   1.019   0.806   1.543
   67SOL    HW2  546   0.917   0.924   1.497
   68SOL     OW  547   0.991   0.410   1.242
   68SOL    HW1  548   0.914   0.444   1.296
   68SOL    HW2  549   0.957   0.359   1.163
   69SOL     OW  550   1.041   0.701   0.429
   69SOL    HW1  551   1.067   0.697   0.525
   69SOL    HW2  552   0.956   0.650   0.415
   70SOL     OW  553   0.076   0.811   0.789
   70SOL    HW1  554   0.175   0.799   0.798
   70SOL    HW2  555   0.052   0.906   0.810
   71SOL     OW  556   0.130   1.821   1.571
   71SOL    HW1  557   0.120   1.806   1.670
   71SOL    HW2  558   0.044   1.857   1.535
   72SOL     OW  559   0.865   0.348   0.195
   72SOL    HW1  560   0.924   0.411   0.146
   72SOL    HW2  561   0.884   0.254   0.166
   73SOL     OW  562   1.719   0.585   1.831
   73SOL    HW1  563   1.693   0.674   1.795
   73SOL    HW2  564   1.717   0.517   1.758
   74SOL     OW  565   1.362   1.144   0.545
   74SOL    HW1  566   1.445   1.115   0.497
   74SOL    HW2  567   1.313   1.211   0.489
   75SOL     OW  568   0.550   0.196   0.885
   75SOL    HW1  569   0.545   0.191   0.985
   75SOL    HW2  570   0.552   0.292   0.856
   76SOL     OW  571   1.008   1.456   0.477
   76SOL    HW1  572   0.962   1.528   0.425
   76SOL    HW2  573   1.004   1.476   0.575
   77SOL     OW  574   0.351   1.801   0.853
   77SOL    HW1  575   0.401   1.715   0.859
   77SOL    HW2  576   0.416   1.878   0.850
   78SOL     OW  577   1.795   1.066   0.873
   78SOL    HW1  578   1.733   1.051   0.797
   78SOL    HW2  579   1.743   1.077   0.958
   79SOL     OW  580   1.227   1.550   1.506
   79SOL    HW1  581   1.233   1.473   1.570
   79SOL    HW2  582   1.175   1.524   1.426
   80SOL     OW  583   0.321   0.943   0.242
   80SOL    HW1  584   0.403   0.982   0.200
   80SOL    HW2  585   0.294   0.861   0.193
   81SOL     OW  586   1.458   0.735   0.728
   81SOL    HW1  587   1.453   0.670   0.803
   81SOL    HW2  588   1.538   0.794   0.741
   82SOL     OW  589   0.461   1.266   1.727
   82SOL    HW1  590   0.411   1.267   1.641
   82SOL    HW2  591   0.398   1.248   1.803
   83SOL     OW  592   1.111   1.776   0.237
   83SOL    HW1  593   1.051   1.714   0.287
   83SOL    HW2  594   1.142   1.732   0.152
   84SOL     OW  595   0.202   0.285   1.498
   84SOL    HW1  596   0.122   0.345   1.485
   84SOL    HW2  597   0.192   0.236   1.584
   85SOL     OW  598   1.632   1.377   0.081
   85SOL    HW1  599   1.600   1.471   0.071
   85SOL    HW2  600   1.556   1.314   0.069
   86SOL     OW  601   0.464   1.743   0.323
   86SOL    HW1  602   0.497   1.782   0.409
   86SOL    HW2  603   0.540   1.736   0.258
   87SOL     OW  604   1.400   0.107   0.426
   87SOL    HW1  605   1.376   0.070   0.336
   87SOL    HW2  606   1.499   0.123   0.430
   88SOL     OW  607   0.249   1.785   1.241
   88SOL    HW1  608   0.306   1.720   1.291
   88SOL    HW2  609   0.233   1.752   1.148
   89SOL     OW  610   0.940   1.698   0.904
   89SOL    HW1  611   1.020   1.641   0.925
   89SOL    HW2  612   0.891   1.658   0.827
   90SOL     OW  613   0.382   0.700   0.480
   90SOL    HW1  614   0.427   0.610   0.477
   90SOL    HW2  615   0.288   0.689   0.513
   91SOL     OW  616   1.547   0.222   1.729
   91SOL    HW1  617   1.542   0.259   1.821
   91SOL    HW2  618   1.475   0.153   1.717
   92SOL     OW  619   0.614   0.122   0.117
   92SOL    HW1  620   0.712   0.100   0.124
   92SOL    HW2  621   0.583   0.105   0.024
   93SOL     OW  622   0.781   0.264   1.749
   93SOL    HW1  623   0.848   0.203   1.792
   93SOL    HW2  624   0.708   0.283   1.814
   94SOL     OW  625   0.888   1.514   1.195
   94SOL    HW1  626   0.865   1.489   1.101
   94SOL    HW2  627   0.949   1.445   1.234
   95SOL     OW  628   1.351   0.590   1.433
   95SOL    HW1  629   1.379   0.547   1.518
   95SOL    HW2  630   1.376   0.686   1.434
   96SOL     OW  631   0.803   1.402   0.924
   96SOL    HW1  632   0.893   1.416   0.882
   96SOL    HW2  633   0.732   1.404   0.853
   97SOL     OW  634   0.922   0.503   0.899
   97SOL    HW1  635   0.897   0.494   0.803
   97SOL    HW2  636   0.970   0.421   0.930
   98SOL     OW  637   0.539   0.064   0.512
   98SOL    HW1  638   0.458   0.065   0.570
   98SOL    HW2  639   0.542   0.147   0.457
   99SOL     OW  640   1.434   1.188   0.041
   99SOL    HW1  641   1.466   1.112   0.098
   99SOL    HW2  642   1.342   1.215   0.071
  100SOL     OW  643   0.297   0.035   0.171
  100SOL    HW1  644   0.346   0.119   0.150
  100SOL    HW2  645   0.359  -0.030   0.216
  101SOL     OW  646   0.935   0.236   0.480
  101SOL    HW1  647   0.887   0.277   0.402
  101SOL    HW2  648   1.034   0.234   0.461
  102SOL     OW  649   1.076   0.683   1.464
  102SOL    HW1  650   0.996   0.622   1.467
  102SOL    HW2  651   1.157   0.630   1.440
  103SOL     OW  652   1.227   1.570   0.793
  103SOL    HW1  653   1.248   1.644   0.728
  103SOL    HW2  654   1.295   1.570   0.866
  104SOL     OW  655   0.459   1.152   0.741
  104SOL    HW1  656   0.388   1.125   0.806
  104SOL    HW2  657   0.433   1.124   0.648
  105SOL     OW  658   1.271   1.797   0.591
  105SOL    HW1  659   1.315   1.861   0.527
  105SOL    HW2  660   1.221   1.849   0.661
  106SOL     OW  661   1.032   0.549   0.016
  106SOL    HW1  662   0.991   0.631  -0.023
  106SOL    HW2  663   1.096   0.575   0.089
  107SOL     OW  664   0.078   0.556   1.386
  107SOL    HW1  665   0.170   0.555   1.345
  107SOL    HW2  666   0.072   0.630   1.453
  108SOL     OW  667   0.561   0.222   1.147
  108SOL    HW1  668   0.599   0.138   1.184
  108SOL    HW2  669   0.473   0.241   1.191
  109SOL     OW  670   0.866   0.454   0.642
  109SOL    HW1  671   0.834   0.526   0.580
  109SOL    HW2  672   0.890   0.373   0.589
  110SOL     OW  673   1.017   0.039   0.753
  110SOL    HW1  674   0.945   0.044   0.684
  110SOL    HW2  675   0.993  -0.030   0.822
  111SOL     OW  676   1.429   1.173   0.867
  111SOL    HW1  677   1.374   1.089   0.860
  111SOL    HW2  678   1.455   1.202   0.775
  112SOL     OW  679   1.466   0.590   0.992
  112SOL    HW1  680   1.436   0.495   0.999
  112SOL    HW2  681   1.539   0.606   1.058
  113SOL     OW  682   1.857   0.833   0.377
  113SOL    HW1  683   1.899   0.769   0.441
  113SOL    HW2  684   1.819   0.782   0.299
  114SOL     OW  685   0.488   1.385   0.174
  114SOL    HW1  686   0.401   1.370   0.221
  114SOL    HW2  687   0.471   1.411   0.079
  115SOL     OW  688   1.664   1.280   0.657
  115SOL    HW1  689   1.763   1.288   0.671
  115SOL    HW2  690   1.619   1.364   0.688
  116SOL     OW  691   1.390   0.575   0.078
  116SOL    HW1  692   1.336   0.554   0.159
  116SOL    HW2  693   1.481   0.534   0.087
  117SOL     OW  694   0.527   0.256   0.328
  117SOL    HW1  695   0.554   0.197   0.253
  117SOL    HW2  696   0.527   0.351   0.297
  118SOL     OW  697   1.754   1.223   1.588
  118SOL    HW1  698   1.845   1.184   1.575
  118SOL    HW2  699   1.762   1.319   1.612
  119SOL     OW  700   1.064   1.347   1.340
  119SOL    HW1  701   0.984   1.324   1.395
  119SOL    HW2  702   1.147   1.321   1.389
  120SOL     OW  703   1.592   1.629   1.625
  120SOL    HW1  704   1.619   1.663   1.535
  120SOL    HW2  705   1.671   1.591   1.671
  121SOL     OW  706   1.111   1.195   1.100
  121SOL    HW1  707   1.071   1.239   1.181
  121SOL    HW2  708   1.070   1.232   1.017
  122SOL     OW  709   1.638   1.099   1.079
  122SOL    HW1  710   1.643   1.180   1.138
  122SOL    HW2  711   1.552   1.101   1.028
  123SOL     OW  712   0.915   0.089   1.402
  123SOL    HW1  713   0.940   0.069   1.307
  123SOL    HW2  714   0.987   0.145   1.444
  124SOL     OW  715   0.980   1.116   1.719
  124SOL    HW1  716   0.881   1.122   1.729
  124SOL    HW2  717   1.003   1.036   1.663
  125SOL     OW  718   0.705   1.050   0.368
  125SOL    HW1  719   0.691   1.057   0.467
  125SOL    HW2  720   0.789   0.999   0.350
  126SOL     OW  721   0.410   0.813   1.251
  126SOL    HW1  722   0.496   0.825   1.301
  126SOL    HW2  723   0.368   0.726   1.278
  127SOL     OW  724   1.274   0.386   1.262
  127SOL    HW1  725   1.295   0.460   1.326
  127SOL    HW2  726   1.185   0.403   1.219
  128SOL     OW  727   0.064   1.564   1.331
  128SOL    HW1  728   0.018   1.646   1.297
  128SOL    HW2  729   0.162   1.583   1.340
  129SOL     OW  730   0.367   1.100   0.501
  129SOL    HW1  731   0.360   1.183   0.445
  129SOL    HW2  732   0.371   1.020   0.441
  130SOL     OW  733   0.566   0.537   0.865
  130SOL    HW1  734   0.578   0.603   0.791
  130SOL    HW2  735   0.612   0.571   0.948
  131SOL     OW  736   1.252   1.348   0.388
  131SOL    HW1  737   1.302   1.425   0.428
  131SOL    HW2  738   1.157   1.350   0.420
  132SOL     OW  739   1.272   1.445   1.142
  132SOL    HW1  740   1.319   1.458   1.229
  132SOL    HW2  741   1.206   1.371   1.151
  133SOL     OW  742   1.582   0.639   0.472
  133SOL    HW1  743   1.551   0.700   0.545
  133SOL    HW2  744   1.632   0.691   0.403
  134SOL     OW  745   0.354   1.510   1.329
  134SOL    HW1  746   0.333   1.466   1.242
  134SOL    HW2  747   0.451   1.536   1.332
  135SOL     OW  748   0.402   0.751   1.598
  135SOL    HW1  749   0.470   0.806   1.551
  135SOL    HW2  750   0.442   0.663   1.625
  136SOL     OW  751   1.587   0.779   1.670
  136SOL    HW1  752   1.495   0.817   1.665
  136SOL    HW2  753   1.647   0.826   1.605
  137SOL     OW  754   1.013   0.105   1.770
  137SOL    HW1  755   1.019   0.190   1.718
  137SOL    HW2  756   1.045   0.029   1.713
  138SOL     OW  757   0.504   0.050   1.740
  138SOL    HW1  758   0.462  -0.007   1.670
  138SOL    HW2  759   0.438   0.119   1.772
  139SOL     OW  760   0.573   0.870   1.029
  139SOL    HW1  761   0.617   0.959   1.020
  139SOL    HW2  762   0.510   0.870   1.106
  140SOL     OW  763   1.360   0.862   1.045
  140SOL    HW1  764   1.285   0.862   0.979
  140SOL    HW2  765   1.397   0.770   1.054
  141SOL     OW  766   1.209   0.525   0.275
  141SOL    HW1  767   1.222   0.441   0.329
  141SOL    HW2  768   1.180   0.599   0.335
  142SOL     OW  769   0.307   0.213   1.231
  142SOL    HW1  770   0.284   0.250   1.321
  142SOL    HW2  771   0.277   0.118   1.225
  143SOL     OW  772   0.037   1.310   1.282
  143SOL    HW1  773   0.090   1.261   1.350
  143SOL    HW2  774   0.059   1.408   1.287
  144SOL     OW  775   0.732   0.634   1.064
  144SOL    HW1  776   0.791   0.608   0.988
  144SOL    HW2  777   0.704   0.730   1.053
  145SOL     OW  778   1.728   0.935   1.854
  145SOL    HW1  779   1.682   0.928   1.765
  145SOL    HW2  780   1.666   0.979   1.920
  146SOL     OW  781   0.307   0.063   0.618
  146SOL    HW1  782   0.296   0.157   0.651
  146SOL    HW2  783   0.302   0.000   0.695
  147SOL     OW  784   1.622   0.367   0.374
  147SOL    HW1  785   1.624   0.291   0.438
  147SOL    HW2  786   1.574   0.444   0.414
  148SOL     OW  787   1.023   0.766   0.966
  148SOL    HW1  788   1.038   0.787   1.062
  148SOL    HW2  789   0.993   0.671   0.957
  149SOL     OW  790   0.980   1.573   1.700
  149SOL    HW1  791   0.960   1.617   1.612
  149SOL    HW2  792   1.019   1.482   1.684
  150SOL     OW  793   1.859   1.518   1.605
  150SOL    HW1  794   1.873   1.545   1.510
  150SOL    HW2  795   1.942   1.540   1.658
  151SOL     OW  796   0.350   0.898   1.804
  151SOL    HW1  797   0.426   0.942   1.852
  151SOL    HW2  798   0.385   0.851   1.722
  152SOL     OW  799   1.540   0.274   0.125
  152SOL    HW1  800   1.479   0.199   0.148
  152SOL    HW2  801   1.562   0.326   0.208
  153SOL     OW  802   1.303   0.838   0.042
  153SOL    HW1  803   1.337   0.745   0.057
  153SOL    HW2  804   1.321   0.865  -0.053
  154SOL     OW  805   1.068   1.333   0.849
  154SOL    HW1  806   1.075   1.249   0.794
  154SOL    HW2  807   1.130   1.402   0.813
  155SOL     OW  808   0.319   0.810   0.949
  155SOL    HW1  809   0.412   0.846   0.954
  155SOL    HW2  810   0.313   0.725   1.001
  156SOL     OW  811   0.339   0.509   1.006
  156SOL    HW1  812   0.287   0.426   0.989
  156SOL    HW2  813   0.416   0.514   0.942
  157SOL     OW  814   1.138   0.380   1.678
  157SOL    HW1  815   1.093   0.443   1.742
  157SOL    HW2  816   1.231   0.411   1.661
  158SOL     OW  817   1.160   0.207   1.477
  158SOL    HW1  818   1.160   0.271   1.554
  158SOL    HW2  819   1.188   0.255   1.394
  159SOL     OW  820   0.008   1.326   0.200
  159SOL    HW1  821  -0.085   1.347   0.169
  159SOL    HW2  822   0.018   1.227   0.213
  160SOL     OW  823   0.088   1.801   0.927
  160SOL    HW1  824   0.046   1.715   0.900
  160SOL    HW2  825   0.182   1.804   0.893
  161SOL     OW  826   0.504   1.568   0.910
  161SOL    HW1  827   0.570   1.642   0.919
  161SOL    HW2  828   0.548   1.489   0.868
  162SOL     OW  829   1.002   0.796   1.238
  162SOL    HW1  830   1.043   0.764   1.324
  162SOL    HW2  831   0.906   0.769   1.235
  163SOL     OW  832   0.040   0.544   1.114
  163SOL    HW1  833   0.125   0.511   1.073
  163SOL    HW2  834   0.053   0.559   1.212
  164SOL     OW  835   0.189   0.520   1.722
  164SOL    HW1  836   0.248   0.480   1.652
  164SOL    HW2  837   0.131   0.591   1.681
  165SOL     OW  838   1.369   0.950   1.660
  165SOL    HW1  839   1.408   1.039   1.680
  165SOL    HW2  840   1.379   0.930   1.563
  166SOL     OW  841   0.815   0.572   0.325
  166SOL    HW1  842   0.822   0.483   0.279
  166SOL    HW2  843   0.721   0.606   0.317
  167SOL     OW  844   1.657   0.604   1.206
  167SOL    HW1  845   1.619   0.535   1.268
  167SOL    HW2  846   1.739   0.568   1.162
  168SOL     OW  847   0.252   1.564   1.744
  168SOL    HW1  848   0.222   1.621   1.820
  168SOL    HW2  849   0.245   1.467   1.770
  169SOL     OW  850   0.671   0.464   1.269
  169SOL    HW1  851   0.637   0.375   1.239
  169SOL    HW2  852   0.697   0.518   1.189
  170SOL     OW  853   0.930   1.678   1.465
  170SOL    HW1  854   0.906   1.660   1.370
  170SOL    HW2  855   0.960   1.772   1.475
  171SOL     OW  856   0.473   0.500   0.191
  171SOL    HW1  857   0.534   0.580   0.195
  171SOL    HW2  858   0.378   0.531   0.198
  172SOL     OW  859   0.159   1.137   1.466
  172SOL    HW1  860   0.181   1.076   1.542
  172SOL    HW2  861   0.169   1.088   1.380
  173SOL     OW  862   1.347   1.059   1.234
  173SOL    HW1  863   1.371   0.996   1.160
  173SOL    HW2  864   1.257   1.099   1.216
  174SOL     OW  865   1.302   0.855   0.309
  174SOL    HW1  866   1.216   0.824   0.351
  174SOL    HW2  867   1.298   0.841   0.210
  175SOL     OW  868   1.759   1.747   1.154
  175SOL    HW1  869   1.820   1.777   1.081
  175SOL    HW2  870   1.721   1.658   1.132
  176SOL     OW  871   1.252   1.731   1.128
  176SOL    HW1  872   1.336   1.736   1.074
  176SOL    HW2  873   1.229   1.635   1.146
  177SOL     OW  874   0.083   1.258   1.022
  177SOL    HW1  875   0.078   1.257   1.122
  177SOL    HW2  876   0.000   1.217   0.984
  178SOL     OW  877   0.688   1.662   1.716
  178SOL    HW1  878   0.632   1.743   1.725
  178SOL    HW2  879   0.740   1.666   1.630
  179SOL     OW  880   0.903   0.086   0.133
  179SOL    HW1  881   0.954   0.087   0.047
  179SOL    HW2  882   0.959   0.044   0.204
  180SOL     OW  883   1.726   0.135   0.523
  180SOL    HW1  884   1.799   0.118   0.456
  180SOL    HW2  885   1.695   0.048   0.561
  181SOL     OW  886   1.388   1.573   0.477
  181SOL    HW1  887   1.455   1.585   0.403
  181SOL    HW2  888   1.348   1.662   0.500
  182SOL     OW  889   0.130   1.794   1.851
  182SOL    HW1  890   0.089   1.720   1.904
  182SOL    HW2  891   0.194   1.845   1.909
  183SOL     OW  892   1.280   0.927   0.672
  183SOL    HW1  893   1.340   0.846   0.674
  183SOL    HW2  894   1.320   0.996   0.612
  184SOL     OW  895   0.830   1.273   1.422
  184SOL    HW1  896   0.825   1.306   1.517
  184SOL    HW2  897   0.744   1.292   1.376
  185SOL     OW  898   0.672   1.616   0.154
  185SOL    HW1  899   0.681   1.626   0.055
  185SOL    HW2  900   0.632   1.527   0.175
  186SOL     OW  901   1.650   1.720   1.394
  186SOL    HW1  902   1.703   1.730   1.310
  186SOL    HW2  903   1.623   1.810   1.428
  187SOL     OW  904   1.841   0.175   0.963
  187SOL    HW1  905   1.880   0.090   0.927
  187SOL    HW2  906   1.743   0.177   0.944
  188SOL     OW  907   0.263   0.326   0.720
  188SOL    HW1  908   0.184   0.377   0.686
  188SOL    HW2  909   0.254   0.311   0.818
  189SOL     OW  910   1.194   1.612   0.031
  189SOL    HW1  911   1.200   1.519   0.068
  189SOL    HW2  912   1.135   1.612  -0.049
  190SOL     OW  913   0.822   1.002   1.372
  190SOL    HW1  914   0.862   1.001   1.280
  190SOL    HW2  915   0.832   1.094   1.412
  191SOL     OW  916   0.916   0.910   0.291
  191SOL    HW1  917   0.979   0.948   0.223
  191SOL    HW2  918   0.956   0.827   0.330
  192SOL     OW  919   1.504   1.607   0.044
  192SOL    HW1  920   1.412   1.644   0.051
  192SOL    HW2  921   1.542   1.627  -0.046
  193SOL     OW  922   0.372   1.288   1.490
  193SOL    HW1  923   0.359   1.381   1.456
  193SOL    HW2  924   0.288   1.236   1.477
  194SOL     OW  925   1.614   1.292   1.289
  194SOL    HW1  926   1.674   1.295   1.369
  194SOL    HW2  927   1.539   1.356   1.302
  195SOL     OW  928   1.039   1.098   0.696
  195SOL    HW1  929   0.969   1.051   0.750
  195SOL    HW2  930   1.098   1.030   0.653
  196SOL     OW  931   1.014   0.236   0.971
  196SOL    HW1  932   1.006   0.200   0.878
  196SOL    HW2  933   1.012   0.160   1.036
  197SOL     OW  934   0.590   1.487   0.491
  197SOL    HW1  935   0.632   1.429   0.421
  197SOL    HW2  936   0.546   1.566   0.447
  198SOL     OW  937   1.709   0.385   1.381
  198SOL    HW1  938   1.782   0.454   1.385
  198SOL    HW2  939   1.737   0.310   1.322
  199SOL     OW  940   0.255   1.348   0.290
  199SOL    HW1  941   0.159   1.349   0.263
  199SOL    HW2  942   0.267   1.401   0.374
  200SOL     OW  943   0.105   1.013   1.726
  200SOL    HW1  944   0.028   0.980   1.780
  200SOL    HW2  945   0.190   0.983   1.768
  201SOL     OW  946   0.672   0.203   1.489
  201SOL    HW1  947   0.762   0.187   1.449
  201SOL    HW2  948   0.680   0.208   1.588
  202SOL     OW  949   0.075   0.345   0.033
  202SOL    HW1  950  -0.017   0.317   0.004
  202SOL    HW2  951   0.106   0.422  -0.023
  203SOL     OW  952   1.440   0.856   1.398
  203SOL    HW1  953   1.383   0.908   1.335
  203SOL    HW2  954   1.536   0.868   1.374
  204SOL     OW  955   0.072   0.166   0.318
  204SOL    HW1  956   0.055   0.249   0.264
  204SOL    HW2  957   0.162   0.129   0.296
  205SOL     OW  958   1.183   1.335   0.119
  205SOL    HW1  959   1.084   1.324   0.121
  205SOL    HW2  960   1.217   1.350   0.212
  206SOL     OW  961   0.613   0.842   1.431
  206SOL    HW1  962   0.669   0.923   1.414
  206SOL    HW2  963   0.672   0.762   1.434
  207SOL     OW  964   1.493   1.767   0.959
  207SOL    HW1  965   1.526   1.831   0.890
  207SOL    HW2  966   1.559   1.761   1.034
  208SOL     OW  967   0.716   0.565   1.708
  208SOL    HW1  968   0.735   0.630   1.782
  208SOL    HW2  969   0.776   0.485   1.717
  209SOL     OW  970   1.450   1.220   1.633
  209SOL    HW1  971   1.441   1.210   1.732
  209SOL    HW2  972   1.546   1.213   1.607
  210SOL     OW  973   0.390   1.741   1.560
  210SOL    HW1  974   0.299   1.782   1.558
  210SOL    HW2  975   0.383   1.647   1.592
  211SOL     OW  976   1.674   0.883   1.254
  211SOL    HW1  977   1.647   0.794   1.217
  211SOL    HW2  978   1.675   0.951   1.181
  212SOL     OW  979   1.225   0.325   0.449
  212SOL    HW1  980   1.290   0.251   0.438
  212SOL    HW2  981   1.245   0.375   0.533
  213SOL     OW  982   0.594   0.745   0.652
  213SOL    HW1  983   0.644   0.830   0.633
  213SOL    HW2  984   0.506   0.747   0.604
  214SOL     OW  985   1.777   0.342   1.642
  214SOL    HW1  986   1.760   0.373   1.548
  214SOL    HW2  987   1.693   0.305   1.680
  215SOL     OW  988   1.730   0.934   1.517
  215SOL    HW1  989   1.768   1.025   1.532
  215SOL    HW2  990   1.722   0.917   1.418
  216SOL     OW  991   0.859   1.374   0.016
  216SOL    HW1  992   0.813   1.389   0.104
  216SOL    HW2  993   0.903   1.459  -0.014
  217SOL     OW  994   0.661   1.790   0.953
  217SOL    HW1  995   0.615   1.878   0.940
  217SOL    HW2  996   0.760   1.802   0.946
  218SOL     OW  997   0.859   0.956   0.861
  218SOL    HW1  998   0.913   0.887   0.909
  218SOL    HW2  999   0.827   1.025   0.927
  219SOL     OW 1000   1.083   0.984   0.087
  219SOL    HW1 1001   1.060   1.037   0.005
  219SOL    HW2 1002   1.164   0.928   0.068
  220SOL     OW 1003   1.861   1.569   0.851
  220SOL    HW1 1004   1.790   1.557   0.781
  220SOL    HW2 1005   1.862   1.490   0.911
  221SOL     OW 1006   0.221   1.314   1.844
  221SOL    HW1 1007   0.156   1.241   1.823
  221SOL    HW2 1008   0.225   1.328   1.942
  222SOL     OW 1009   0.079   1.240   0.653
  222SOL    HW1 1010   0.078   1.193   0.741
  222SOL    HW2 1011   0.161   1.212   0.602
  223SOL     OW 1012   0.672   1.391   1.624
  223SOL    HW1 1013   0.594   1.341   1.662
  223SOL    HW2 1014   0.669   1.486   1.655
  224SOL     OW 1015   1.824   0.192   1.227
  224SOL    HW1 1016   1.820   0.102   1.271
  224SOL    HW2 1017   1.827   0.181   1.128
  225SOL     OW 1018   0.428   0.424   0.520
  225SOL    HW1 1019   0.458   0.352   0.458
  225SOL    HW2 1020   0.389   0.384   0.603
  226SOL     OW 1021   1.705   1.487   1.104
  226SOL    HW1 1022   1.612   1.462   1.077
  226SOL    HW2 1023   1.731   1.437   1.186
  227SOL     OW 1024   0.317   0.547   1.280
  227SOL    HW1 1025   0.355   0.488   1.352
  227SOL    HW2 1026   0.357   0.521   1.192
  228SOL     OW 1027   0.812   1.586   0.687
  228SOL    HW1 1028   0.844   1.596   0.593
  228SOL    HW2 1029   0.733   1.524   0.689
  229SOL     OW 1030   1.424   0.214   1.112
  229SOL    HW1 1031   1.476   0.149   1.167
  229SOL    HW2 1032   1.375   0.277   1.173
  230SOL     OW 1033   1.001   0.034   1.154
  230SOL    HW1 1034   0.938  -0.038   1.123
  230SOL    HW2 1035   1.094  -0.002   1.154
  231SOL     OW 1036   0.770   1.330   0.301
  231SOL    HW1 1037   0.724   1.243   0.318
  231SOL    HW2 1038   0.861   1.327   0.342
  232SOL     OW 1039   0.618   1.567   1.284
  232SOL    HW1 1040   0.613   1.649   1.341
  232SOL    HW2 1041   0.707   1.564   1.239
  233SOL     OW 1042   1.352   0.052   0.168
  233SOL    HW1 1043   1.387   0.011   0.084
  233SOL    HW2 1044   1.262   0.014   0.188
  234SOL     OW 1045   1.300   0.453   0.691
  234SOL    HW1 1046   1.241   0.533   0.695
  234SOL    HW2 1047   1.315   0.418   0.784
  235SOL     OW 1048   1.593   0.221   0.882
  235SOL    HW1 1049   1.509   0.220   0.936
  235SOL    HW2 1050   1.595   0.304   0.826
  236SOL     OW 1051   0.039   1.077   0.300
  236SOL    HW1 1052   0.138   1.066   0.291
  236SOL    HW2 1053  -0.001   0.991   0.332
  237SOL     OW 1054   0.875   1.646   0.337
  237SOL    HW1 1055   0.798   1.611   0.283
  237SOL    HW2 1056   0.843   1.717   0.399
  238SOL     OW 1057   0.230   0.628   1.975
  238SOL    HW1 1058   0.137   0.626   2.012
  238SOL    HW2 1059   0.231   0.589   1.883
  239SOL     OW 1060   0.225   0.275   2.858
  239SOL    HW1 1061   0.260   0.258   2.950
  239SOL    HW2 1062   0.137   0.230   2.846
  240SOL     OW 1063   0.019   0.368   2.509
  240SOL    HW1 1064  -0.063   0.411   2.548
  240SOL    HW2 1065  -0.009   0.295   2.446
  241SOL     OW 1066   0.569   1.275   3.027
  241SOL    HW1 1067   0.476   1.268   2.990
  241SOL    HW2 1068   0.580   1.364   3.071
  242SOL     OW 1069   1.555   1.511   2.565
  242SOL    HW1 1070   1.498   1.495   2.646
  242SOL    HW2 1071   1.496   1.521   2.485
  243SOL     OW 1072   1.135   0.703   2.579
  243SOL    HW1 1073   1.192   0.781   2.554
  243SOL    HW2 1074   1.075   0.729   2.655
  244SOL     OW 1075   1.755   0.607   2.093
  244SOL    HW1 1076   1.743   0.594   1.994
  244SOL    HW2 1077   1.725   0.526   2.142
  245SOL     OW 1078   0.768   1.144   2.885
  245SOL    HW1 1079   0.690   1.161   2.945
  245SOL    HW2 1080   0.802   1.231   2.849
  246SOL     OW 1081   0.850   0.798   3.685
  246SOL    HW1 1082   0.846   0.874   3.750
  246SOL    HW2 1083   0.872   0.834   3.594
  247SOL     OW 1084   0.685   1.012   2.527
  247SOL    HW1 1085   0.754   0.996   2.597
  247SOL    HW2 1086   0.612   1.069   2.565
  248SOL     OW 1087   0.686   1.161   3.665
  248SOL    HW1 1088   0.746   1.240   3.679
  248SOL    HW2 1089   0.600   1.192   3.624
  249SOL     OW 1090   0.335   1.435   2.923
  249SOL    HW1 1091   0.257   1.404   2.870
  249SOL    HW2 1092   0.393   1.493   2.866
  250SOL     OW 1093   1.460   1.505   3.201
  250SOL    HW1 1094   1.484   1.599   3.227
  250SOL    HW2 1095   1.444   1.451   3.283
  251SOL     OW 1096   0.438   0.392   3.361
  251SOL    HW1 1097   0.520   0.336   3.370
  251SOL    HW2 1098   0.357   0.334   3.365
  252SOL     OW 1099   1.603   0.447   2.599
  252SOL    HW1 1100   1.529   0.493   2.549
  252SOL    HW2 1101   1.654   0.515   2.652
  253SOL     OW 1102   0.231   1.713   2.345
  253SOL    HW1 1103   0.265   1.790   2.399
  253SOL    HW2 1104   0.275   1.713   2.255
  254SOL     OW 1105   1.127   1.341   3.552
  254SOL    HW1 1106   1.174   1.341   3.640
  254SOL    HW2 1107   1.079   1.254   3.541
  255SOL     OW 1108   0.230   1.434   2.400
  255SOL    HW1 1109   0.204   1.530   2.400
  255SOL    HW2 1110   0.159   1.380   2.445
  256SOL     OW 1111   0.240   1.091   2.748
  256SOL    HW1 1112   0.254   1.007   2.800
  256SOL    HW2 1113   0.185   1.155   2.803
  257SOL     OW 1114   0.620   1.786   3.301
  257SOL    HW1 1115   0.528   1.769   3.336
  257SOL    HW2 1116   0.648   1.878   3.327
  258SOL     OW 1117   0.606   0.964   1.985
  258SOL    HW1 1118   0.613   1.048   1.931
  258SOL    HW2 1119   0.652   0.977   2.073
  259SOL     OW 1120   1.594   0.114   3.342
  259SOL    HW1 1121   1.576   0.181   3.270
  259SOL    HW2 1122   1.591   0.160   3.431
  260SOL     OW 1123   0.122   0.643   2.425
  260SOL    HW1 1124   0.077   0.555   2.442
  260SOL    HW2 1125   0.121   0.697   2.509
  261SOL     OW 1126   1.842   1.767   2.221
  261SOL    HW1 1127   1.896   1.738   2.301
  261SOL    HW2 1128   1.872   1.857   2.192
  262SOL     OW 1129   0.027   1.596   1.979
  262SOL    HW1 1130   0.008   1.500   2.000
  262SOL    HW2 1131  -0.006   1.654   2.054
  263SOL     OW 1132   1.689   0.922   2.474
  263SOL    HW1 1133   1.784   0.893   2.482
  263SOL    HW2 1134   1.681   0.987   2.399
  264SOL     OW 1135   1.641   1.108   2.294
  264SOL    HW1 1136   1.727   1.110   2.242
  264SOL    HW2 1137   1.655   1.155   2.382
  265SOL     OW 1138   0.113   0.737   3.459
  265SOL    HW1 1139   0.201   0.724   3.504
  265SOL    HW2 1140   0.100   0.834   3.437
  266SOL     OW 1141   0.613   1.365   2.588
  266SOL    HW1 1142   0.564   1.278   2.597
  266SOL    HW2 1143   0.590   1.408   2.501
  267SOL     OW 1144   1.293   1.228   3.285
  267SOL    HW1 1145   1.330   1.155   3.227
  267SOL    HW2 1146   1.345   1.233   3.370
  268SOL     OW 1147   0.809   0.004   2.364
  268SOL    HW1 1148   0.849   0.095   2.355
  268SOL    HW2 1149   0.709   0.012   2.370
  269SOL     OW 1150   0.197   0.976   3.126
  269SOL    HW1 1151   0.286   0.931   3.112
  269SOL    HW2 1152   0.124   0.911   3.107
  270SOL     OW 1153   1.525   0.999   2.052
  270SOL    HW1 1154   1.462   0.923   2.065
  270SOL    HW2 1155   1.573   1.017   2.138
  271SOL     OW 1156   1.187   1.792   3.478
  271SOL    HW1 1157   1.211   1.852   3.402
  271SOL    HW2 1158   1.194   1.697   3.448
  272SOL     OW 1159   0.317   0.251   3.663
  272SOL    HW1 1160   0.388   0.322   3.669
  272SOL    HW2 1161   0.229   0.290   3.691
  273SOL     OW 1162   1.466   1.417   2.815
  273SOL    HW1 1163   1.407   1.423   2.895
  273SOL    HW2 1164   1.451   1.329   2.769
  274SOL     OW 1165   1.667   1.714   2.434
  274SOL    HW1 1166   1.626   1.691   2.346
  274SOL    HW2 1167   1.649   1.640   2.499
  275SOL     OW 1168   0.598   0.729   2.132
  275SOL    HW1 1169   0.622   0.798   2.064
  275SOL    HW2 1170   0.520   0.762   2.186
  276SOL     OW 1171   1.281   0.345   2.806
  276SOL    HW1 1172   1.195   0.295   2.793
  276SOL    HW2 1173   1.343   0.291   2.862
  277SOL     OW 1174   1.576   1.662   2.169
  277SOL    HW1 1175   1.665   1.708   2.172
  277SOL    HW2 1176   1.555   1.638   2.074
  278SOL     OW 1177   0.807   0.605   3.327
  278SOL    HW1 1178   0.760   0.602   3.416
  278SOL    HW2 1179   0.756   0.550   3.261
  279SOL     OW 1180   1.394   0.469   3.536
  279SOL    HW1 1181   1.374   0.512   3.624
  279SOL    HW2 1182   1.472   0.407   3.545
  280SOL     OW 1183   0.973   0.890   3.434
  280SOL    HW1 1184   1.019   0.806   3.405
  280SOL    HW2 1185   0.917   0.924   3.359
  281SOL     OW 1186   0.991   0.410   3.104
  281SOL    HW1 1187   0.914   0.444   3.158
  281SOL    HW2 1188   0.957   0.359   3.025
  282SOL     OW 1189   1.041   0.701   2.291
  282SOL    HW1 1190   1.067   0.697   2.387
  282SOL    HW2 1191   0.956   0.650   2.277
  283SOL     OW 1192   0.076   0.811   2.651
  283SOL    HW1 1193   0.175   0.799   2.660
  283SOL    HW2 1194   0.052   0.906   2.672
  284SOL     OW 1195   0.130   1.821   3.433
  284SOL    HW1 1196   0.120   1.806   3.532
  284SOL    HW2 1197   0.044   1.857   3.397
  285SOL     OW 1198   0.865   0.348   2.057
  285SOL    HW1 1199   0.924   0.411   2.008
  285SOL    HW2 1200   0.884   0.254   2.028
  286SOL     OW 1201   1.719   0.585   3.693
  286SOL    HW1 1202   1.693   0.674   3.657
  286SOL    HW2 1203   1.717   0.517   3.620
  287SOL     OW 1204   1.362   1.144   2.407
  287SOL    HW1 1205   1.445   1.115   2.359
  287SOL    HW2 1206   1.313   1.211   2.351
  288SOL     OW 1207   0.550   0.196   2.747
  288SOL    HW1 1208   0.545   0.191   2.847
  288SOL    HW2 1209   0.552   0.292   2.718
  289SOL     OW 1210   1.008   1.456   2.339
  289SOL    HW1 1211   0.962   1.528   2.287
  289SOL    HW2 1212   1.004   1.476   2.437
  290SOL     OW 1213   0.351   1.801   2.715
  290SOL    HW1 1214   0.401   1.715   2.721
  290SOL    HW2 1215   0.416   1.878   2.712
  291SOL     OW 1216   1.795   1.066   2.735
  291SOL    HW1 1217   1.733   1.051   2.659
  291SOL    HW2 1218   1.743   1.077   2.820
  292SOL     OW 1219   1.227   1.550   3.368
  292SOL    HW1 1220   1.233   1.473   3.432
  292SOL    HW2 1221   1.175   1.524   3.288
  293SOL     OW 1222   0.321   0.943   2.104
  293SOL    HW1 1223   0.403   0.982   2.062
  293SOL    HW2 1224   0.294   0.861   2.055
  294SOL     OW 1225   1.458   0.735   2.590
  294SOL    HW1 1226   1.453   0.670   2.665
  294SOL    HW2 1227   1.538   0.794   2.603
  295SOL     OW 1228   0.461   1.266   3.589
  295SOL    HW1 1229   0.411   1.267   3.503
  295SOL    HW2 1230   0.398   1.248   3.665
  296SOL     OW 1231   1.111   1.776   2.099
  296SOL    HW1 1232   1.051   1.714   2.149
  296SOL    HW2 1233   1.142   1.732   2.014
  297SOL     OW 1234   0.202   0.285   3.360
  297SOL    HW1 1235   0.122   0.345   3.347
  297SOL    HW2 1236   0.192   0.236   3.446
  298SOL     OW 1237   1.632   1.377   1.943
  298SOL    HW1 1238   1.600   1.471   1.933
  298SOL    HW2 1239   1.556   1.314   1.931
  299SOL     OW 1240   0.464   1.743   2.185
  299SOL    HW1 1241   0.497   1.782   2.271
  299SOL    HW2 1242   0.540   1.736   2.120
  300SOL     OW 1243   1.400   0.107   2.288
  300SOL    HW1 1244   1.376   0.070   2.198
  300SOL    HW2 1245   1.499   0.123   2.292
  301SOL     OW 1246   0.249   1.785   3.103
  301SOL    HW1 1247   0.306   1.720   3.153
  301SOL    HW2 1248   0.233   1.752   3.010
  302SOL     OW 1249   0.940   1.698   2.766
  302SOL    HW1 1250   1.020   1.641   2.787
  302SOL    HW2 1251   0.891   1.658   2.689
  303SOL     OW 1252   0.382   0.700   2.342
  303SOL    HW1 1253   0.427   0.610   2.339
  303SOL    HW2 1254   0.288   0.689   2.375
  304SOL     OW 1255   1.547   0.222   3.591
  304SOL    HW1 1256   1.542   0.259   3.683
  304SOL    HW2 1257   1.475   0.153   3.579
  305SOL     OW 1258   0.614   0.122   1.979
  305SOL    HW1 1259   0.712   0.100   1.986
  305SOL    HW2 1260   0.583   0.105   1.886
  306SOL     OW 1261   0.781   0.264   3.611
  306SOL    HW1 1262   0.848   0.203   3.654
  306SOL    HW2 1263   0.708   0.283   3.676
  307SOL     OW 1264   0.888   1.514   3.057
  307SOL    HW1 1265   0.865   1.489   2.963
  307SOL    HW2 1266   0.949   1.445   3.096
  308SOL     OW 1267   1.351   0.590   3.295
  308SOL    HW1 1268   1.379   0.547   3.380
  308SOL    HW2 1269   1.376   0.686   3.296
  309SOL     OW 1270   0.803   1.402   2.786
  309SOL    HW1 1271   0.893   1.416   2.744
  309SOL    HW2 1272   0.732   1.404   2.715
  310SOL     OW 1273   0.922   0.503   2.761
  310SOL    HW1 1274   0.897   0.494   2.665
  310SOL    HW2 1275   0.970   0.421   2.792
  311SOL     OW 1276   0.539   0.064   2.374
  311SOL    HW1 1277   0.458   0.065   2.432
  311SOL    HW2 1278   0.542   0.147   2.319
  312SOL     OW 1279   1.434   1.188   1.903
  312SOL    HW1 1280   1.466   1.112   1.960
  312SOL    HW2 1281   1.342   1.215   1.933
  313SOL     OW 1282   0.297   0.035   2.033
  313SOL    HW1 1283   0.346   0.119   2.012
  313SOL    HW2 1284   0.359  -0.030   2.078
  314SOL     OW 1285   0.935   0.236   2.342
  314SOL    HW1 1286   0.887   0.277   2.264
  314SOL    HW2 1287   1.034   0.234   2.323
  315SOL     OW 1288   1.076   0.683   3.326
  315SOL    HW1 1289   0.996   0.622   3.329
  315SOL    HW2 1290   1.157   0.630   3.302
  316SOL     OW 1291   1.227   1.570   2.655
  316SOL    HW1 1292   1.248   1.644   2.590
  316SOL    HW2 1293   1.295   1.570   2.728
  317SOL     OW 1294   0.459   1.152   2.603
  317SOL    HW1 1295   0.388   1.125   2.668
  317SOL    HW2 1296   0.433   1.124   2.510
  318SOL     OW 1297   1.271   1.797   2.453
  318SOL    HW1 1298   1.315   1.861   2.389
  318SOL    HW2 1299   1.221   1.849   2.523
  319SOL     OW 1300   1.032   0.549   1.878
  319SOL    HW1 1301   0.991   0.631   1.839
  319SOL    HW2 1302   1.096   0.575   1.951
  320SOL     OW 1303   0.078   0.556   3.248
  320SOL    HW1 1304   0.170   0.555   3.207
  320SOL    HW2 1305   0.072   0.630   3.315
  321SOL     OW 1306   0.561   0.222   3.009
  321SOL    HW1 1307   0.599   0.138   3.046
  321SOL    HW2 1308   0.473   0.241   3.053
  322SOL     OW 1309   0.866   0.454   2.504
  322SOL    HW1 1310   0.834   0.526   2.442
  322SOL    HW2 1311   0.890   0.373   2.451
  323SOL     OW 1312   1.017   0.039   2.615
  323SOL    HW1 1313   0.945   0.044   2.546
  323SOL    HW2 1314   0.993  -0.030   2.684
  324SOL     OW 1315   1.429   1.173   2.729
  324SOL    HW1 1316   1.374   1.089   2.722
  324SOL    HW2 1317   1.455   1.202   2.637
  325SOL     OW 1318   1.466   0.590   2.854
  325SOL    HW1 1319   1.436   0.495   2.861
  325SOL    HW2 1320   1.539   0.606   2.920
  326SOL     OW 1321   1.857   0.833   2.239
  326SOL    HW1 1322   1.899   0.769   2.303
  326SOL    HW2 1323   1.819   0.782   2.161
  327SOL     OW 1324   0.488   1.385   2.036
  327SOL    HW1 1325   0.401   1.370   2.083
  327SOL    HW2 1326   0.471   1.411   1.941
  328SOL     OW 1327   1.664   1.280   2.519
  328SOL    HW1 1328   1.763   1.288   2.533
  328SOL    HW2 1329   1.619   1.364   2.550
  329SOL     OW 1330   1.390   0.575   1.940
  329SOL    HW1 1331   1.336   0.554   2.021
  329SOL    HW2 1332   1.481   0.534   1.949
  330SOL     OW 1333   0.527   0.256   2.190
  330SOL    HW1 1334   0.554   0.197   2.115
  330SOL    HW2 1335   0.527   0.351   2.159
  331SOL     OW 1336   1.754   1.223   3.450
  331SOL    HW1 1337   1.845   1.184   3.437
  331SOL    HW2 1338   1.762   1.319   3.474
  332SOL     OW 1339   1.064   1.347   3.202
  332SOL    HW1 1340   0.984   1.324   3.257
  332SOL    HW2 1341   1.147   1.321   3.251
  333SOL     OW 1342   1.592   1.629   3.487
  333SOL    HW1 1343   1.619   1.663   3.397
  333SOL    HW2 1344   1.671   1.591   3.533
  334SOL     OW 1345   1.111   1.195   2.962
  334SOL    HW1 1346   1.071   1.239   3.043
  334SOL    HW2 1347   1.070   1.232   2.879
  335SOL     OW 1348   1.638   1.099   2.941
  335SOL    HW1 1349   1.643   1.180   3.000
  335SOL    HW2 1350   1.552   1.101   2.890
  336SOL     OW 1351   0.915   0.089   3.264
  336SOL    HW1 1352   0.940   0.069   3.169
  336SOL    HW2 1353   0.987   0.145   3.306
  337SOL     OW 1354   0.980   1.116   3.581
  337SOL    HW1 1355   0.881   1.122   3.591
  337SOL    HW2 1356   1.003   1.036   3.525
  338SOL     OW 1357   0.705   1.050   2.230
  338SOL    HW1 1358   0.691   1.057   2.329
  338SOL    HW2 1359   0.789   0.999   2.212
  339SOL     OW 1360   0.410   0.813   3.113
  339SOL    HW1 1361   0.496   0.825   3.163
  339SOL    HW2 1362   0.368   0.726   3.140
  340SOL     OW 1363   1.274   0.386   3.124
  340SOL    HW1 1364   1.295   0.460   3.188
  340SOL    HW2 1365   1.185   0.403   3.081
  341SOL     OW 1366   0.064   1.564   3.193
  341SOL    HW1 1367   0.018   1.646   3.159
  341SOL    HW2 1368   0.162   1.583   3.202
  342SOL     OW 1369   0.367   1.100   2.363
  342SOL    HW1 1370   0.360   1.183   2.307
  342SOL    HW2 1371   0.371   1.020   2.303
  343SOL     OW 1372   0.566   0.537   2.727
  343SOL    HW1 1373   0.578   0.603   2.653
  343SOL    HW2 1374   0.612   0.571   2.810
  344SOL     OW 1375   1.252   1.348   2.250
  344SOL    HW1 1376   1.302   1.425   2.290
  344SOL    HW2 1377   1.157   1.350   2.282
  345SOL     OW 1378   1.272   1.445   3.004
  345SOL    HW1 1379   1.319   1.458   3.091
  345SOL    HW2 1380   1.206   1.371   3.013
  346SOL     OW 1381   1.582   0.639   2.334
  346SOL    HW1 1382   1.551   0.700   2.407
  346SOL    HW2 1383   1.632   0.691   2.265
  347SOL     OW 1384   0.354   1.510   3.191
  347SOL    HW1 1385   0.333   1.466   3.104
  347SOL    HW2 1386   0.451   1.536   3.194
  348SOL     OW 1387   0.402   0.751   3.460
  348SOL    HW1 1388   0.470   0.806   3.413
  348SOL    HW2 1389   0.442   0.663   3.487
  349SOL     OW 1390   1.587   0.779   3.532
  349SOL    HW1 1391   1.495   0.817   3.527
  349SOL    HW2 1392   1.647   0.826   3.467
  350SOL     OW 1393   1.013   0.105   3.632
  350SOL    HW1 1394   1.019   0.190   3.580
  350SOL    HW2 1395   1.045   0.029   3.575
  351SOL     OW 1396   0.504   0.050   3.602
  351SOL    HW1 1397   0.462  -0.007   3.532
  351SOL    HW2 1398   0.438   0.119   3.634
  352SOL     OW 1399   0.573   0.870   2.891
  352SOL    HW1 1400   0.617   0.959   2.882
  352SOL    HW2 1401   0.510   0.870   2.968
  353SOL     OW 1402   1.360   0.862   2.907
  353SOL    HW1 1403   1.285   0.862   2.841
  353SOL    HW2 1404   1.397   0.770   2.916
  354SOL     OW 1405   1.209   0.525   2.137
  354SOL    HW1 1406   1.222   0.441   2.191
  354SOL    HW2 1407   1.180   0.599   2.197
  355SOL     OW 1408   0.307   0.213   3.093
  355SOL    HW1 1409   0.284   0.250   3.183
  355SOL    HW2 1410   0.277   0.118   3.087
  356SOL     OW 1411   0.037   1.310   3.144
  356SOL    HW1 1412   0.090   1.261   3.212
  356SOL    HW2 1413   0.059   1.408   3.149
  357SOL     OW 1414   0.732   0.634   2.926
  357SOL    HW1 1415   0.791   0.608   2.850
  357SOL    HW2 1416   0.704   0.730   2.915
  358SOL     OW 1417   1.728   0.935   3.716
  358SOL    HW1 1418   1.682   0.928   3.627
  358SOL    HW2 1419   1.666   0.979   3.782
  359SOL     OW 1420   0.307   0.063   2.480
  359SOL    HW1 1421   0.296   0.157   2.513
  359SOL    HW2 1422   0.302   0.000   2.557
  360SOL     OW 1423   1.622   0.367   2.236
  360SOL    HW1 1424   1.624   0.291   2.300
  360SOL    HW2 1425   1.574   0.444   2.276
  361SOL     OW 1426   1.023   0.766   2.828
  361SOL    HW1 1427   1.038   0.787   2.924
  361SOL    HW2 1428   0.993   0.671   2.819
  362SOL     OW 1429   0.980   1.573   3.562
  362SOL    HW1 1430   0.960   1.617   3.474
  362SOL    HW2 1431   1.019   1.482   3.546
  363SOL     OW 1432   1.859   1.518   3.467
  363SOL    HW1 1433   1.873   1.545   3.372
  363SOL    HW2 1434   1.942   1.540   3.520
  364SOL     OW 1435   0.350   0.898   3.666
  364SOL    HW1 1436   0.426   0.942   3.714
  364SOL    HW2 1437   0.385   0.851   3.584
  365SOL     OW 1438   1.540   0.274   1.987
  365SOL    HW1 1439   1.479   0.199   2.010
  365SOL    HW2 1440   1.562   0.326   2.070
  366SOL     OW 1441   1.303   0.838   1.904
  366SOL    HW1 1442   1.337   0.745   1.919
  366SOL    HW2 1443   1.321   0.865   1.809
  367SOL     OW 1444   1.068   1.333   2.711
  367SOL    HW1 1445   1.075   1.249   2.656
  367SOL    HW2 1446   1.130   1.402   2.675
  368SOL     OW 1447   0.319   0.810   2.811
  368SOL    HW1 1448   0.412   0.846   2.816
  368SOL    HW2 1449   0.313   0.725   2.863
  369SOL     OW 1450   0.339   0.509   2.868
  369SOL    HW1 1451   0.287   0.426   2.851
  369SOL    HW2 1452   0.416   0.514   2.804
  370SOL     OW 1453   1.138   0.380   3.540
  370SOL    HW1 1454   1.093   0.443   3.604
  370SOL    HW2 1455   1.231   0.411   3.523
  371SOL     OW 1456   1.160   0.207   3.339
  371SOL    HW1 1457   1.160   0.271   3.416
  371SOL    HW2 1458   1.188   0.255   3.256
  372SOL     OW 1459   0.008   1.326   2.062
  372SOL    HW1 1460  -0.085   1.347   2.031
  372SOL    HW2 1461   0.018   1.227   2.075
  373SOL     OW 1462   0.088   1.801   2.789
  373SOL    HW1 1463   0.046   1.715   2.762
  373SOL    HW2 1464   0.182   1.804   2.755
  374SOL     OW 1465   0.504   1.568   2.772
  374SOL    HW1 1466   0.570   1.642   2.781
  374SOL    HW2 1467   0.548   1.489   2.730
  375SOL     OW 1468   1.002   0.796   3.100
  375SOL    HW1 1469   1.043   0.764   3.186
  375SOL    HW2 1470   0.906   0.769   3.097
  376SOL     OW 1471   0.040   0.544   2.976
  376SOL    HW1 1472   0.125   0.511   2.935
  376SOL    HW2 1473   0.053   0.559   3.074
  377SOL     OW 1474   0.189   0.520   3.584
  377SOL    HW1 1475   0.248   0.480   3.514
  377SOL    HW2 1476   0.131   0.591   3.543
  378SOL     OW 1477   1.369   0.950   3.522
  378SOL    HW1 1478   1.408   1.039   3.542
  378SOL    HW2 1479   1.379   0.930   3.425
  379SOL     OW 1480   0.815   0.572   2.187
  379SOL    HW1 1481   0.822   0.483   2.141
  379SOL    HW2 1482   0.721   0.606   2.179
  380SOL     OW 1483   1.657   0.604   3.068
  380SOL    HW1 1484   1.619   0.535   3.130
  380SOL    HW2 1485   1.739   0.568   3.024
  381SOL     OW 1486   0.252   1.564   3.606
  381SOL    HW1 1487   0.222   1.621   3.682
  381SOL    HW2 1488   0.245   1.467   3.632
  382SOL     OW 1489   0.671   0.464   3.131
  382SOL    HW1 1490   0.637   0.375   3.101
  382SOL    HW2 1491   0.697   0.518   3.051
  383SOL     OW 1492   0.930   1.678   3.327
  383SOL    HW1 1493   0.906   1.660   3.232
  383SOL    HW2 1494   0.960   1.772   3.337
  384SOL     OW 1495   0.473   0.500   2.053
  384SOL    HW1 1496   0.534   0.580   2.057
  384SOL    HW2 1497   0.378   0.531   2.060
  385SOL     OW 1498   0.159   1.137   3.328
  385SOL    HW1 1499   0.181   1.076   3.404
  385SOL    HW2 1500   0.169   1.088   3.242
  386SOL     OW 1501   1.347   1.059   3.096
  386SOL    HW1 1502   1.371   0.996   3.022
  386SOL    HW2 1503   1.257   1.099   3.078
  387SOL     OW 1504   1.302   0.855   2.171
  387SOL    HW1 1505   1.216   0.824   2.213
  387SOL    HW2 1506   1.298   0.841   2.072
  388SOL     OW 1507   1.759   1.747   3.016
  388SOL    HW1 1508   1.820   1.777   2.943
  388SOL    HW2 1509   1.721   1.658   2.994
  389SOL     OW 1510   1.252   1.731   2.990
  389SOL    HW1 1511   1.336   1.736   2.936
  389SOL    HW2 1512   1.229   1.635   3.008
  390SOL     OW 1513   0.083   1.258   2.884
  390SOL    HW1 1514   0.078   1.257   2.984
  390SOL    HW2 1515   0.000   1.217   2.846
  391SOL     OW 1516   0.688   1.662   3.578
  391SOL    HW1 1517   0.632   1.743   3.587
  391SOL    HW2 1518   0.740   1.666   3.492
  392SOL     OW 1519   1.726   0.135   2.385
  392SOL    HW1 1520   1.799   0.118   2.318
  392SOL    HW2 1521   1.695   0.048   2.423
  393SOL     OW 1522   1.388   1.573   2.339
  393SOL    HW1 1523   1.455   1.585   2.265
  393SOL    HW2 1524   1.348   1.662   2.362
  394SOL     OW 1525   0.130   1.794   3.713
  394SOL    HW1 1526   0.089   1.720   3.766
  394SOL    HW2 1527   0.194   1.845   3.771
  395SOL     OW 1528   1.280   0.927   2.534
  395SOL    HW1 1529   1.340   0.846   2.536
  395SOL    HW2 1530   1.320   0.996   2.474
  396SOL     OW 1531   0.830   1.273   3.284
  396SOL    HW1 1532   0.825   1.306   3.379
  396SOL    HW2 1533   0.744   1.292   3.238
  397SOL     OW 1534   0.672   1.616   2.016
  397SOL    HW1 1535   0.681   1.626   1.917
  397SOL    HW2 1536   0.632   1.527   2.037
  398SOL     OW 1537   1.650   1.720   3.256
  398SOL    HW1 1538   1.703   1.730   3.172
  398SOL    HW2 1539   1.623   1.810   3.290
  399SOL     OW 1540   1.841   0.175   2.825
  399SOL    HW1 1541   1.880   0.090   2.789
  399SOL    HW2 1542   1.743   0.177   2.806
  400SOL     OW 1543   0.263   0.326   2.582
  400SOL    HW1 1544   0.184   0.377   2.548
  400SOL    HW2 1545   0.254   0.311   2.680
  401SOL     OW 1546   1.194   1.612   1.893
  401SOL    HW1 1547   1.200   1.519   1.930
  401SOL    HW2 1548   1.135   1.612   1.813
  402SOL     OW 1549   0.822   1.002   3.234
  402SOL    HW1 1550   0.862   1.001   3.142
  402SOL    HW2 1551   0.832   1.094   3.274
  403SOL     OW 1552   0.916   0.910   2.153
  403SOL    HW1 1553   0.979   0.948   2.085
  403SOL    HW2 1554   0.956   0.827   2.192
  404SOL     OW 1555   1.504   1.607   1.906
  404SOL    HW1 1556   1.412   1.644   1.913
  404SOL    HW2 1557   1.542   1.627   1.816
  405SOL     OW 1558   0.372   1.288   3.352
  405SOL    HW1 1559   0.359   1.381   3.318
  405SOL    HW2 1560   0.288   1.236   3.339
  406SOL     OW 1561   1.614   1.292   3.151
  406SOL    HW1 1562   1.674   1.295   3.231
  406SOL    HW2 1563   1.539   1.356   3.164
  407SOL     OW 1564   1.039   1.098   2.558
  407SOL    HW1 1565   0.969   1.051   2.612
  407SOL    HW2 1566   1.098   1.030   2.515
  408SOL     OW 1567   1.014   0.236   2.833
  408SOL    HW1 1568   1.006   0.200   2.740
  408SOL    HW2 1569   1.012   0.160   2.898
  409SOL     OW 1570   0.590   1.487   2.353
  409SOL    HW1 1571   0.632   1.429   2.283
  409SOL    HW2 1572   0.546   1.566   2.309
  410SOL     OW 1573   1.709   0.385   3.243
  410SOL    HW1 1574   1.782   0.454   3.247
  410SOL    HW2 1575   1.737   0.310   3.184
  411SOL     OW 1576   0.255   1.348   2.152
  411SOL    HW1 1577   0.159   1.349   2.125
  411SOL    HW2 1578   0.267   1.401   2.236
  412SOL     OW 1579   0.105   1.013   3.588
  412SOL    HW1 1580   0.028   0.980   3.642
  412SOL    HW2 1581   0.190   0.983   3.630
  413SOL     OW 1582   0.672   0.203   3.351
  413SOL    HW1 1583   0.762   0.187   3.311
  413SOL    HW2 1584   0.680   0.208   3.450
  414SOL     OW 1585   0.075   0.345   1.895
  414SOL    HW1 1586  -0.017   0.317   1.866
  414SOL    HW2 1587   0.106   0.422   1.839
  415SOL     OW 1588   1.440   0.856   3.260
  415SOL    HW1 1589   1.383   0.908   3.197
  415SOL    HW2 1590   1.536   0.868   3.236
  416SOL     OW 1591   0.072   0.166   2.180
  416SOL    HW1 1592   0.055   0.249   2.126
  416SOL    HW2 1593   0.162   0.129   2.158
  417SOL     OW 1594   1.183   1.335   1.981
  417SOL    HW1 1595   1.084   1.324   1.983
  417SOL    HW2 1596   1.217   1.350   2.074
  418SOL     OW 1597   0.613   0.842   3.293
  418SOL    HW1 1598   0.669   0.923   3.276
  418SOL    HW2 1599   0.672   0.762   3.296
  419SOL     OW 1600   1.493   1.767   2.821
  419SOL    HW1 1601   1.526   1.831   2.752
  419SOL    HW2 1602   1.559   1.761   2.896
  420SOL     OW 1603   0.716   0.565   3.570
  420SOL    HW1 1604   0.735   0.630   3.644
  420SOL    HW2 1605   0.776   0.485   3.579
  421SOL     OW 1606   1.450   1.220   3.495
  421SOL    HW1 1607   1.441   1.210   3.594
  421SOL    HW2 1608   1.546   1.213   3.469
  422SOL     OW 1609   0.390   1.741   3.422
  422SOL    HW1 1610   0.299   1.782   3.420
  422SOL    HW2 1611   0.383   1.647   3.454
  423SOL     OW 1612   1.674   0.883   3.116
  423SOL    HW1 1613   1.647   0.794   3.079
  423SOL    HW2 1614   1.675   0.951   3.043
  424SOL     OW 1615   1.225   0.325   2.311
  424SOL    HW1 1616   1.290   0.251   2.300
  424SOL    HW2 1617   1.245   0.375   2.395
  425SOL     OW 1618   0.594   0.745   2.514
  425SOL    HW1 1619   0.644   0.830   2.495
  425SOL    HW2 1620   0.506   0.747   2.466
  426SOL     OW 1621   1.777   0.342   3.504
  426SOL    HW1 1622   1.760   0.373   3.410
  426SOL    HW2 1623   1.693   0.305   3.542
  427SOL     OW 1624   1.730   0.934   3.379
  427SOL    HW1 1625   1.768   1.025   3.394
  427SOL    HW2 1626   1.722   0.917   3.280
  428SOL     OW 1627   0.859   1.374   1.878
  428SOL    HW1 1628   0.813   1.389   1.966
  428SOL    HW2 1629   0.903   1.459   1.848
  429SOL     OW 1630   0.661   1.790   2.815
  429SOL    HW1 1631   0.615   1.878   2.802
  429SOL    HW2 1632   0.760   1.802   2.808
  430SOL     OW 1633   0.859   0.956   2.723
  430SOL    HW1 1634   0.913   0.887   2.771
  430SOL    HW2 1635   0.827   1.025   2.789
  431SOL     OW 1636   1.083   0.984   1.949
  431SOL    HW1 1637   1.060   1.037   1.867
  431SOL    HW2 1638   1.164   0.928   1.930
  432SOL     OW 1639   1.861   1.569   2.713
  432SOL    HW1 1640   1.790   1.557   2.643
  432SOL    HW2 1641   1.862   1.490   2.773
  433SOL     OW 1642   0.221   1.314   3.706
  433SOL    HW1 1643   0.156   1.241   3.685
  433SOL    HW2 1644   0.225   1.328   3.804
  434SOL     OW 1645   0.079   1.240   2.515
  434SOL    HW1 1646   0.078   1.193   2.603
  434SOL    HW2 1647   0.161   1.212   2.464
  435SOL     OW 1648   0.672   1.391   3.486
  435SOL    HW1 1649   0.594   1.341   3.524
  435SOL    HW2 1650   0.669   1.486   3.517
  436SOL     OW 1651   1.824   0.192   3.089
  436SOL    HW1 1652   1.820   0.102   3.133
  436SOL    HW2 1653   1.827   0.181   2.990
  437SOL     OW 1654   0.428   0.424   2.382
  437SOL    HW1 1655   0.458   0.352   2.320
  437SOL    HW2 1656   0.389   0.384   2.465
  438SOL     OW 1657   1.705   1.487   2.966
  438SOL    HW1 1658   1.612   1.462   2.939
  438SOL    HW2 1659   1.731   1.437   3.048
  439SOL     OW 1660   0.317   0.547   3.142
  439SOL    HW1 1661   0.355   0.488   3.214
  439SOL    HW2 1662   0.357   0.521   3.054
  440SOL     OW 1663   0.812   1.586   2.549
  440SOL    HW1 1664   0.844   1.596   2.455
  440SOL    HW2 1665   0.733   1.524   2.551
  441SOL     OW 1666   1.424   0.214   2.974
  441SOL    HW1 1667   1.476   0.149   3.029
  441SOL    HW2 1668   1.375   0.277   3.035
  442SOL     OW 1669   1.001   0.034   3.016
  442SOL    HW1 1670   0.938  -0.038   2.985
  442SOL    HW2 1671   1.094  -0.002   3.016
  443SOL     OW 1672   0.770   1.330   2.163
  443SOL    HW1 1673   0.724   1.243   2.180
  443SOL    HW2 1674   0.861   1.327   2.204
  444SOL     OW 1675   0.618   1.567   3.146
  444SOL    HW1 1676   0.613   1.649   3.203
  444SOL    HW2 1677   0.707   1.564   3.101
  445SOL     OW 1678   1.352   0.052   2.030
  445SOL    HW1 1679   1.387   0.011   1.946
  445SOL    HW2 1680   1.262   0.014   2.050
  446SOL     OW 1681   1.300   0.453   2.553
  446SOL    HW1 1682   1.241   0.533   2.557
  446SOL    HW2 1683   1.315   0.418   2.646
  447SOL     OW 1684   1.593   0.221   2.744
  447SOL    HW1 1685   1.509   0.220   2.798
  447SOL    HW2 1686   1.595   0.304   2.688
  448SOL     OW 1687   0.039   1.077   2.162
  448SOL    HW1 1688   0.138   1.066   2.153
  448SOL    HW2 1689  -0.001   0.991   2.194
  449SOL     OW 1690   0.875   1.646   2.199
  449SOL    HW1 1691   0.798   1.611   2.145
  449SOL    HW2 1692   0.843   1.717   2.261
  450SOL     OW 1693   0.230   0.628   3.837
  450SOL    HW1 1694   0.137   0.626   3.874
  450SOL    HW2 1695   0.231   0.589   3.745
  451SOL     OW 1696   0.225   0.275   4.720
  451SOL    HW1 1697   0.260   0.258   4.812
  451SOL    HW2 1698   0.137   0.230   4.708
  452SOL     OW 1699   0.019   0.368   4.371
  452SOL    HW1 1700  -0.063   0.411   4.410
  452SOL    HW2 1701  -0.009   0.295   4.308
  453SOL     OW 1702   0.569   1.275   4.889
  453SOL    HW1 1703   0.476   1.268   4.852
  453SOL    HW2 1704   0.580   1.364   4.933
  454SOL     OW 1705   1.555   1.511   4.427
  454SOL    HW1 1706   1.498   1.495   4.508
  454SOL    HW2 1707   1.496   1.521   4.347
  455SOL     OW 1708   1.135   0.703   4.441
  455SOL    HW1 1709   1.192   0.781   4.416
  455SOL    HW2 1710   1.075   0.729   4.517
  456SOL     OW 1711   1.755   0.607   3.955
  456SOL    HW1 1712   1.743   0.594   3.856
  456SOL    HW2 1713   1.725   0.526   4.004
  457SOL     OW 1714   0.768   1.144   4.747
  457SOL    HW1 1715   0.690   1.161   4.807
  457SOL    HW2 1716   0.802   1.231   4.711
  458SOL     OW 1717   0.850   0.798   5.547
  458SOL    HW1 1718   0.846   0.874   5.612
  458SOL    HW2 1719   0.872   0.834   5.456
  459SOL     OW 1720   0.685   1.012   4.389
  459SOL    HW1 1721   0.754   0.996   4.459
  459SOL    HW2 1722   0.612   1.069   4.427
  460SOL     OW 1723   0.686   1.161   5.527
  460SOL    HW1 1724   0.746   1.240   5.541
  460SOL    HW2 1725   0.600   1.192   5.486
  461SOL     OW 1726   0.335   1.435   4.785
  461SOL    HW1 1727   0.257   1.404   4.732
  461SOL    HW2 1728   0.393   1.493   4.728
  462SOL     OW 1729   1.460   1.505   5.063
  462SOL    HW1 1730   1.484   1.599   5.089
  462SOL    HW2 1731   1.444   1.451   5.145
  463SOL     OW 1732   0.438   0.392   5.223
  463SOL    HW1 1733   0.520   0.336   5.232
  463SOL    HW2 1734   0.357   0.334   5.227
  464SOL     OW 1735   1.603   0.447   4.461
  464SOL    HW1 1736   1.529   0.493   4.411
  464SOL    HW2 1737   1.654   0.515   4.514
  465SOL     OW 1738   0.231   1.713   4.207
  465SOL    HW1 1739   0.265   1.790   4.261
  465SOL    HW2 1740   0.275   1.713   4.117
  466SOL     OW 1741   1.127   1.341   5.414
  466SOL    HW1 1742   1.174   1.341   5.502
  466SOL    HW2 1743   1.079   1.254   5.403
  467SOL     OW 1744   0.230   1.434   4.262
  467SOL    HW1 1745   0.204   1.530   4.262
  467SOL    HW2 1746   0.159   1.380   4.307
  468SOL     OW 1747   0.240   1.091   4.610
  468SOL    HW1 1748   0.254   1.007   4.662
  468SOL    HW2 1749   0.185   1.155   4.665
  469SOL     OW 1750   0.620   1.786   5.163
  469SOL    HW1 1751   0.528   1.769   5.198
  469SOL    HW2 1752   0.648   1.878   5.189
  470SOL     OW 1753   0.606   0.964   3.847
  470SOL    HW1 1754   0.613   1.048   3.793
  470SOL    HW2 1755   0.652   0.977   3.935
  471SOL     OW 1756   1.594   0.114   5.204
  471SOL    HW1 1757   1.576   0.181   5.132
  471SOL    HW2 1758   1.591   0.160   5.293
  472SOL     OW 1759   0.122   0.643   4.287
  472SOL    HW1 1760   0.077   0.555   4.304
  472SOL    HW2 1761   0.121   0.697   4.371
  473SOL     OW 1762   1.842   1.767   4.083
  473SOL    HW1 1763   1.896   1.738   4.163
  473SOL    HW2 1764   1.872   1.857   4.054
  474SOL     OW 1765   0.027   1.596   3.841
  474SOL    HW1 1766   0.008   1.500   3.862
  474SOL    HW2 1767  -0.006   1.654   3.916
  475SOL     OW 1768   1.689   0.922   4.336
  475SOL    HW1 1769   1.784   0.893   4.344
  475SOL    HW2 1770   1.681   0.987   4.261
  476SOL     OW 1771   1.641   1.108   4.156
  476SOL    HW1 1772   1.727   1.110   4.104
  476SOL    HW2 1773   1.655   1.155   4.244
  477SOL     OW 1774   0.113   0.737   5.321
  477SOL    HW1 1775   0.201   0.724   5.366
  477SOL    HW2 1776   0.100   0.834   5.299
  478SOL     OW 1777   0.613   1.365   4.450
  478SOL    HW1 1778   0.564   1.278   4.459
  478SOL    HW2 1779   0.590   1.408   4.363
  479SOL     OW 1780   1.293   1.228   5.147
  479SOL    HW1 1781   1.330   1.155   5.089
  479SOL    HW2 1782   1.345   1.233   5.232
  480SOL     OW 1783   0.809   0.004   4.226
  480SOL    HW1 1784   0.849   0.095   4.217
  480SOL    HW2 1785   0.709   0.012   4.232
  481SOL     OW 1786   0.197   0.976   4.988
  481SOL    HW1 1787   0.286   0.931   4.974
  481SOL    HW2 1788   0.124   0.911   4.969
  482SOL     OW 1789   1.525   0.999   3.914
  482SOL    HW1 1790   1.462   0.923   3.927
  482SOL    HW2 1791   1.573   1.017   4.000
  483SOL     OW 1792   1.187   1.792   5.340
  483SOL    HW1 1793   1.211   1.852   5.264
  483SOL    HW2 1794   1.194   1.697   5.310
  484SOL     OW 1795   0.317   0.251   5.525
  484SOL    HW1 1796   0.388   0.322   5.531
  484SOL    HW2 1797   0.229   0.290   5.553
  485SOL     OW 1798   1.466   1.417   4.677
  485SOL    HW1 1799   1.407   1.423   4.757
  485SOL    HW2 1800   1.451   1.329   4.631
  486SOL     OW 1801   1.667   1.714   4.296
  486SOL    HW1 1802   1.626   1.691   4.208
  486SOL    HW2 1803   1.649   1.640   4.361
  487SOL     OW 1804   0.598   0.729   3.994
  487SOL    HW1 1805   0.622   0.798   3.926
  487SOL    HW2 1806   0.520   0.762   4.048
  488SOL     OW 1807   1.281   0.345   4.668
  488SOL    HW1 1808   1.195   0.295   4.655
  488SOL    HW2 1809   1.343   0.291   4.724
  489SOL     OW 1810   1.576   1.662   4.031
  489SOL    HW1 1811   1.665   1.708   4.034
  489SOL    HW2 1812   1.555   1.638   3.936
  490SOL     OW 1813   0.807   0.605   5.189
  490SOL    HW1 1814   0.760   0.602   5.278
  490SOL    HW2 1815   0.756   0.550   5.123
  491SOL     OW 1816   1.394   0.469   5.398
  491SOL    HW1 1817   1.374   0.512   5.486
  491SOL    HW2 1818   1.472   0.407   5.407
  492SOL     OW 1819   0.973   0.890   5.296
  492SOL    HW1 1820   1.019   0.806   5.267
  492SOL    HW2 1821   0.917   0.924   5.221
  493SOL     OW 1822   0.991   0.410   4.966
  493SOL    HW1 1823   0.914   0.444   5.020
  493SOL    HW2 1824   0.957   0.359   4.887
  494SOL     OW 1825   1.041   0.701   4.153
  494SOL    HW1 1826   1.067   0.697   4.249
  494SOL    HW2 1827   0.956   0.650   4.139
  495SOL     OW 1828   0.076   0.811   4.513
  495SOL    HW1 1829   0.175   0.799   4.522
  495SOL    HW2 1830   0.052   0.906   4.534
  496SOL     OW 1831   0.130   1.821   5.295
  496SOL    HW1 1832   0.120   1.806   5.394
  496SOL    HW2 1833   0.044   1.857   5.259
  497SOL     OW 1834   0.865   0.348   3.919
  497SOL    HW1 1835   0.924   0.411   3.870
  497SOL    HW2 1836   0.884   0.254   3.890
  498SOL     OW 1837   1.719   0.585   5.555
  498SOL    HW1 1838   1.693   0.674   5.519
  498SOL    HW2 1839   1.717   0.517   5.482
  499SOL     OW 1840   1.362   1.144   4.269
  499SOL    HW1 1841   1.445   1.115   4.221
  499SOL    HW2 1842   1.313   1.211   4.213
  500SOL     OW 1843   0.550   0.196   4.609
  500SOL    HW1 1844   0.545   0.191   4.709
  500SOL    HW2 1845   0.552   0.292   4.580
  501SOL     OW 1846   1.008   1.456   4.201
  501SOL    HW1 1847   0.962   1.528   4.149
  501SOL    HW2 1848   1.004   1.476   4.299
  502SOL     OW 1849   0.351   1.801   4.577
  502SOL    HW1 1850   0.401   1.715   4.583
  502SOL    HW2 1851   0.416   1.878   4.574
  503SOL     OW 1852   1.795   1.066   4.597
  503SOL    HW1 1853   1.733   1.051   4.521
  503SOL    HW2 1854   1.743   1.077   4.682
  504SOL     OW 1855   1.227   1.550   5.230
  504SOL    HW1 1856   1.233   1.473   5.294
  504SOL    HW2 1857   1.175   1.524   5.150
  505SOL     OW 1858   0.321   0.943   3.966
  505SOL    HW1 1859   0.403   0.982   3.924
  505SOL    HW2 1860   0.294   0.861   3.917
  506SOL     OW 1861   1.458   0.735   4.452
  506SOL    HW1 1862   1.453   0.670   4.527
  506SOL    HW2 1863   1.538   0.794   4.465
  507SOL     OW 1864   0.461   1.266   5.451
  507SOL    HW1 1865   0.411   1.267   5.365
  507SOL    HW2 1866   0.398   1.248   5.527
  508SOL     OW 1867   1.111   1.776   3.961
  508SOL    HW1 1868   1.051   1.714   4.011
  508SOL    HW2 1869   1.142   1.732   3.876
  509SOL     OW 1870   0.202   0.285   5.222
  509SOL    HW1 1871   0.122   0.345   5.209
  509SOL    HW2 1872   0.192   0.236   5.308
  510SOL     OW 1873   1.632   1.377   3.805
  510SOL    HW1 1874   1.600   1.471   3.795
  510SOL    HW2 1875   1.556   1.314   3.793
  511SOL     OW 1876   0.464   1.743   4.047
  511SOL    HW1 1877   0.497   1.782   4.133
  511SOL    HW2 1878   0.540   1.736   3.982
  512SOL     OW 1879   1.400   0.107   4.150
  512SOL    HW1 1880   1.376   0.070   4.060
  512SOL    HW2 1881   1.499   0.123   4.154
  513SOL     OW 1882   0.249   1.785   4.965
  513SOL    HW1 1883   0.306   1.720   5.015
  513SOL    HW2 1884   0.233   1.752   4.872
  514SOL     OW 1885   0.940   1.698   4.628
  514SOL    HW1 1886   1.020   1.641   4.649
  514SOL    HW2 1887   0.891   1.658   4.551
  515SOL     OW 1888   0.382   0.700   4.204
  515SOL    HW1 1889   0.427   0.610   4.201
  515SOL    HW2 1890   0.288   0.689   4.237
  516SOL     OW 1891   1.547   0.222   5.453
  516SOL    HW1 1892   1.542   0.259   5.545
  516SOL    HW2 1893   1.475   0.153   5.441
  517SOL     OW 1894   0.614   0.122   3.841
  517SOL    HW1 1895   0.712   0.100   3.848
  517SOL    HW2 1896   0.583   0.105   3.748
  518SOL     OW 1897   0.781   0.264   5.473
  518SOL    HW1 1898   0.848   0.203   5.516
  518SOL    HW2 1899   0.708   0.283   5.538
  519SOL     OW 1900   0.888   1.514   4.919
  519SOL    HW1 1901   0.865   1.489   4.825
  519SOL    HW2 1902   0.949   1.445   4.958
  520SOL     OW 1903   1.351   0.590   5.157
  520SOL    HW1 1904   1.379   0.547   5.242
  520SOL    HW2 1905   1.376   0.686   5.158
  521SOL     OW 1906   0.803   1.402   4.648
  521SOL    HW1 1907   0.893   1.416   4.606
  521SOL    HW2 1908   0.732   1.404   4.577
  522SOL     OW 1909   0.922   0.503   4.623
  522SOL    HW1 1910   0.897   0.494   4.527
  522SOL    HW2 1911   0.970   0.421   4.654
  523SOL     OW 1912   0.539   0.064   4.236
  523SOL    HW1 1913   0.458   0.065   4.294
  523SOL    HW2 1914   0.542   0.147   4.181
  524SOL     OW 1915   1.434   1.188   3.765
  524SOL    HW1 1916   1.466   1.112   3.822
  524SOL    HW2 1917   1.342   1.215   3.795
  525SOL     OW 1918   0.297   0.035   3.895
  525SOL    HW1 1919   0.346   0.119   3.874
  525SOL    HW2 1920   0.359  -0.030   3.940
  526SOL     OW 1921   0.935   0.236   4.204
  526SOL    HW1 1922   0.887   0.277   4.126
  526SOL    HW2 1923   1.034   0.234   4.185
  527SOL     OW 1924   1.076   0.683   5.188
  527SOL    HW1 1925   0.996   0.622   5.191
  527SOL    HW2 1926   1.157   0.630   5.164
  528SOL     OW 1927   1.227   1.570   4.517
  528SOL    HW1 1928   1.248   1.644   4.452
  528SOL    HW2 1929   1.295   1.570   4.590
  529SOL     OW 1930   0.459   1.152   4.465
  529SOL    HW1 1931   0.388   1.125   4.530
  529SOL    HW2 1932   0.433   1.124   4.372
  530SOL     OW 1933   1.271   1.797   4.315
  530SOL    HW1 1934   1.315   1.861   4.251
  530SOL    HW2 1935   1.221   1.849   4.385
  531SOL     OW 1936   1.032   0.549   3.740
  531SOL    HW1 1937   0.991   0.631   3.701
  531SOL    HW2 1938   1.096   0.575   3.813
  532SOL     OW 1939   0.078   0.556   5.110
  532SOL    HW1 1940   0.170   0.555   5.069
  532SOL    HW2 1941   0.072   0.630   5.177
  533SOL     OW 1942   0.561   0.222   4.871
  533SOL    HW1 1943   0.599   0.138   4.908
  533SOL    HW2 1944   0.473   0.241   4.915
  534SOL     OW 1945   0.866   0.454   4.366
  534SOL    HW1 1946   0.834   0.526   4.304
  534SOL    HW2 1947   0.890   0.373   4.313
  535SOL     OW 1948   1.017   0.039   4.477
  535SOL    HW1 1949   0.945   0.044   4.408
  535SOL    HW2 1950   0.993  -0.030   4.546
  536SOL     OW 1951   1.429   1.173   4.591
  536SOL    HW1 1952   1.374   1.089   4.584
  536SOL    HW2 1953   1.455   1.202   4.499
  537SOL     OW 1954   1.466   0.590   4.716
  537SOL    HW1 1955   1.436   0.495   4.723
  537SOL    HW2 1956   1.539   0.606   4.782
  538SOL     OW 1957   1.857   0.833   4.101
  538SOL    HW1 1958   1.899   0.769   4.165
  538SOL    HW2 1959   1.819   0.782   4.023
  539SOL     OW 1960   0.488   1.385   3.898
  539SOL    HW1 1961   0.401   1.370   3.945
  539SOL    HW2 1962   0.471   1.411   3.803
  540SOL     OW 1963   1.664   1.280   4.381
  540SOL    HW1 1964   1.763   1.288   4.395
  540SOL    HW2 1965   1.619   1.364   4.412
  541SOL     OW 1966   1.390   0.575   3.802
  541SOL    HW1 1967   1.336   0.554   3.883
  541SOL    HW2 1968   1.481   0.534   3.811
  542SOL     OW 1969   0.527   0.256   4.052
  542SOL    HW1 1970   0.554   0.197   3.977
  542SOL    HW2 1971   0.527   0.351   4.021
  543SOL     OW 1972   1.754   1.223   5.312
  543SOL    HW1 1973   1.845   1.184   5.299
  543SOL    HW2 1974   1.762   1.319   5.336
  544SOL     OW 1975   1.064   1.347   5.064
  544SOL    HW1 1976   0.984   1.324   5.119
  544SOL    HW2 1977   1.147   1.321   5.113
  545SOL     OW 1978   1.592   1.629   5.349
  545SOL    HW1 1979   1.619   1.663   5.259
  545SOL    HW2 1980   1.671   1.591   5.395
  546SOL     OW 1981   1.111   1.195   4.824
  546SOL    HW1 1982   1.071   1.239   4.905
  546SOL    HW2 1983   1.070   1.232   4.741
  547SOL     OW 1984   1.638   1.099   4.803
  547SOL    HW1 1985   1.643   1.180   4.862
  547SOL    HW2 1986   1.552   1.101   4.752
  548SOL     OW 1987   0.915   0.089   5.126
  548SOL    HW1 1988   0.940   0.069   5.031
  548SOL    HW2 1989   0.987   0.145   5.168
  549SOL     OW 1990   0.980   1.116   5.443
  549SOL    HW1 1991   0.881   1.122   5.453
  549SOL    HW2 1992   1.003   1.036   5.387
  550SOL     OW 1993   0.705   1.050   4.092
  550SOL    HW1 1994   0.691   1.057   4.191
  550SOL    HW2 1995   0.789   0.999   4.074
  551SOL     OW 1996   0.410   0.813   4.975
  551SOL    HW1 1997   0.496   0.825   5.025
  551SOL    HW2 1998   0.368   0.726   5.002
  552SOL     OW 1999   1.274   0.386   4.986
  552SOL    HW1 2000   1.295   0.460   5.050
  552SOL    HW2 2001   1.185   0.403   4.943
  553SOL     OW 2002   0.064   1.564   5.055
  553SOL    HW1 2003   0.018   1.646   5.021
  553SOL    HW2 2004   0.162   1.583   5.064
  554SOL     OW 2005   0.367   1.100   4.225
  554SOL    HW1 2006   0.360   1.183   4.169
  554SOL    HW2 2007   0.371   1.020   4.165
  555SOL     OW 2008   0.566   0.537   4.589
  555SOL    HW1 2009   0.578   0.603   4.515
  555SOL    HW2 2010   0.612   0.571   4.672
  556SOL     OW 2011   1.252   1.348   4.112
  556SOL    HW1 2012   1.302   1.425   4.152
  556SOL    HW2 2013   1.157   1.350   4.144
  557SOL     OW 2014   1.272   1.445   4.866
  557SOL    HW1 2015   1.319   1.458   4.953
  557SOL    HW2 2016   1.206   1.371   4.875
  558SOL     OW 2017   1.582   0.639   4.196
  558SOL    HW1 2018   1.551   0.700   4.269
  558SOL    HW2 2019   1.632   0.691   4.127
  559SOL     OW 2020   0.354   1.510   5.053
  559SOL    HW1 2021   0.333   1.466   4.966
  559SOL    HW2 2022   0.451   1.536   5.056
  560SOL     OW 2023   0.402   0.751   5.322
  560SOL    HW1 2024   0.470   0.806   5.275
  560SOL    HW2 2025   0.442   0.663   5.349
  561SOL     OW 2026   1.587   0.779   5.394
  561SOL    HW1 2027   1.495   0.817   5.389
  561SOL    HW2 2028   1.647   0.826   5.329
  562SOL     OW 2029   1.013   0.105   5.494
  562SOL    HW1 2030   1.019   0.190   5.442
  562SOL    HW2 2031   1.045   0.029   5.437
  563SOL     OW 2032   0.504   0.050   5.464
  563SOL    HW1 2033   0.462  -0.007   5.394
  563SOL    HW2 2034   0.438   0.119   5.496
  564SOL     OW 2035   0.573   0.870   4.753
  564SOL    HW1 2036   0.617   0.959   4.744
  564SOL    HW2 2037   0.510   0.870   4.830
  565SOL     OW 2038   1.360   0.862   4.769
  565SOL    HW1 2039   1.285   0.862   4.703
  565SOL    HW2 2040   1.397   0.770   4.778
  566SOL     OW 2041   1.209   0.525   3.999
  566SOL    HW1 2042   1.222   0.441   4.053
  566SOL    HW2 2043   1.180   0.599   4.059
  567SOL     OW 2044   0.307   0.213   4.955
  567SOL    HW1 2045   0.284   0.250   5.045
  567SOL    HW2 2046   0.277   0.118   4.949
  568SOL     OW 2047   0.037   1.310   5.006
  568SOL    HW1 2048   0.090   1.261   5.074
  568SOL    HW2 2049   0.059   1.408   5.011
  569SOL     OW 2050   0.732   0.634   4.788
  569SOL    HW1 2051   0.791   0.608   4.712
  569SOL    HW2 2052   0.704   0.730   4.777
  570SOL     OW 2053   1.728   0.935   5.578
  570SOL    HW1 2054   1.682   0.928   5.489
  570SOL    HW2 2055   1.666   0.979   5.644
  571SOL     OW 2056   0.307   0.063   4.342
  571SOL    HW1 2057   0.296   0.157   4.375
  571SOL    HW2 2058   0.302   0.000   4.419
  572SOL     OW 2059   1.622   0.367   4.098
  572SOL    HW1 2060   1.624   0.291   4.162
  572SOL    HW2 2061   1.574   0.444   4.138
  573SOL     OW 2062   1.023   0.766   4.690
  573SOL    HW1 2063   1.038   0.787   4.786
  573SOL    HW2 2064   0.993   0.671   4.681
  574SOL     OW 2065   0.980   1.573   5.424
  574SOL    HW1 2066   0.960   1.617   5.336
  574SOL    HW2 2067   1.019   1.482   5.408
  575SOL     OW 2068   1.859   1.518   5.329
  575SOL    HW1 2069   1.873   1.545   5.234
  575SOL    HW2 2070   1.942   1.540   5.382
  576SOL     OW 2071   0.350   0.898   5.528
  576SOL    HW1 2072   0.426   0.942   5.576
  576SOL    HW2 2073   0.385   0.851   5.446
  577SOL     OW 2074   1.540   0.274   3.849
  577SOL    HW1 2075   1.479   0.199   3.872
  577SOL    HW2 2076   1.562   0.326   3.932
  578SOL     OW 2077   1.303   0.838   3.766
  578SOL    HW1 2078   1.337   0.745   3.781
  578SOL    HW2 2079   1.321   0.865   3.671
  579SOL     OW 2080   1.068   1.333   4.573
  579SOL    HW1 2081   1.075   1.249   4.518
  579SOL    HW2 2082   1.130   1.402   4.537
  580SOL     OW 2083   0.319   0.810   4.673
  580SOL    HW1 2084   0.412   0.846   4.678
  580SOL    HW2 2085   0.313   0.725   4.725
  581SOL     OW 2086   0.339   0.509   4.730
  581SOL    HW1 2087   0.287   0.426   4.713
  581SOL    HW2 2088   0.416   0.514   4.666
  582SOL     OW 2089   1.138   0.380   5.402
  582SOL    HW1 2090   1.093   0.443   5.466
  582SOL    HW2 2091   1.231   0.411   5.385
  583SOL     OW 2092   1.160   0.207   5.201
  583SOL    HW1 2093   1.160   0.271   5.278
  583SOL    HW2 2094   1.188   0.255   5.118
  584SOL     OW 2095   0.008   1.326   3.924
  584SOL    HW1 2096  -0.085   1.347   3.893
  584SOL    HW2 2097   0.018   1.227   3.937
  585SOL     OW 2098   0.088   1.801   4.651
  585SOL    HW1 2099   0.046   1.715   4.624
  585SOL    HW2 2100   0.182   1.804   4.617
  586SOL     OW 2101   0.504   1.568   4.634
  586SOL    HW1 2102   0.570   1.642   4.643
  586SOL    HW2 2103   0.548   1.489   4.592
  587SOL     OW 2104   1.002   0.796   4.962
  587SOL    HW1 2105   1.043   0.764   5.048
  587SOL    HW2 2106   0.906   0.769   4.959
  588SOL     OW 2107   0.040   0.544   4.838
  588SOL    HW1 2108   0.125   0.511   4.797
  588SOL    HW2 2109   0.053   0.559   4.936
  589SOL     OW 2110   0.189   0.520   5.446
  589SOL    HW1 2111   0.248   0.480   5.376
  589SOL    HW2 2112   0.131   0.591   5.405
  590SOL     OW 2113   1.369   0.950   5.384
  590SOL    HW1 2114   1.408   1.039   5.404
  590SOL    HW2 2115   1.379   0.930   5.287
  591SOL     OW 2116   0.815   0.572   4.049
  591SOL    HW1 2117   0.822   0.483   4.003
  591SOL    HW2 2118   0.721   0.606   4.041
  592SOL     OW 2119   1.657   0.604   4.930
  592SOL    HW1 2120   1.619   0.535   4.992
  592SOL    HW2 2121   1.739   0.568   4.886
  593SOL     OW 2122   0.252   1.564   5.468
  593SOL    HW1 2123   0.222   1.621   5.544
  593SOL    HW2 2124   0.245   1.467   5.494
  594SOL     OW 2125   0.671   0.464   4.993
  594SOL    HW1 2126   0.637   0.375   4.963
  594SOL    HW2 2127   0.697   0.518   4.913
  595SOL     OW 2128   0.930   1.678   5.189
  595SOL    HW1 2129   0.906   1.660   5.094
  595SOL    HW2 2130   0.960   1.772   5.199
  596SOL     OW 2131   0.473   0.500   3.915
  596SOL    HW1 2132   0.534   0.580   3.919
  596SOL    HW2 2133   0.378   0.531   3.922
  597SOL     OW 2134   0.159   1.137   5.190
  597SOL    HW1 2135   0.181   1.076   5.266
  597SOL    HW2 2136   0.169   1.088   5.104
  598SOL     OW 2137   1.347   1.059   4.958
  598SOL    HW1 2138   1.371   0.996   4.884
  598SOL    HW2 2139   1.257   1.099   4.940
  599SOL     OW 2140   1.302   0.855   4.033
  599SOL    HW1 2141   1.216   0.824   4.075
  599SOL    HW2 2142   1.298   0.841   3.934
  600SOL     OW 2143   1.759   1.747   4.878
  600SOL    HW1 2144   1.820   1.777   4.805
  600SOL    HW2 2145   1.721   1.658   4.856
  601SOL     OW 2146   1.252   1.731   4.852
  601SOL    HW1 2147   1.336   1.736   4.798
  601SOL    HW2 2148   1.229   1.635   4.870
  602SOL     OW 2149   0.083   1.258   4.746
  602SOL    HW1 2150   0.078   1.257   4.846
  602SOL    HW2 2151   0.000   1.217   4.708
  603SOL     OW 2152   0.688   1.662   5.440
  603SOL    HW1 2153   0.632   1.743   5.449
  603SOL    HW2 2154   0.740   1.666   5.354
  604SOL     OW 2155   1.726   0.135   4.247
  604SOL    HW1 2156   1.799   0.118   4.180
  604SOL    HW2 2157   1.695   0.048   4.285
  605SOL     OW 2158   1.388   1.573   4.201
  605SOL    HW1 2159   1.455   1.585   4.127
  605SOL    HW2 2160   1.348   1.662   4.224
  606SOL     OW 2161   0.130   1.794   5.575
  606SOL    HW1 2162   0.089   1.720   5.628
  606SOL    HW2 2163   0.194   1.845   5.633
  607SOL     OW 2164   1.280   0.927   4.396
  607SOL    HW1 2165   1.340   0.846   4.398
  607SOL    HW2 2166   1.320   0.996   4.336
  608SOL     OW 2167   0.830   1.273   5.146
  608SOL    HW1 2168   0.825   1.306   5.241
  608SOL    HW2 2169   0.744   1.292   5.100
  609SOL     OW 2170   0.672   1.616   3.878
  609SOL    HW1 2171   0.681   1.626   3.779
  609SOL    HW2 2172   0.632   1.527   3.899
  610SOL     OW 2173   1.650   1.720   5.118
  610SOL    HW1 2174   1.703   1.730   5.034
  610SOL    HW2 2175   1.623   1.810   5.152
  611SOL     OW 2176   1.841   0.175   4.687
  611SOL    HW1 2177   1.880   0.090   4.651
  611SOL    HW2 2178   1.743   0.177   4.668
  612SOL     OW 2179   0.263   0.326   4.444
  612SOL    HW1 2180   0.184   0.377   4.410
  612SOL    HW2 2181   0.254   0.311   4.542
  613SOL     OW 2182   1.194   1.612   3.755
  613SOL    HW1 2183   1.200   1.519   3.792
  613SOL    HW2 2184   1.135   1.612   3.675
  614SOL     OW 2185   0.822   1.002   5.096
  614SOL    HW1 2186   0.862   1.001   5.004
  614SOL    HW2 2187   0.832   1.094   5.136
  615SOL     OW 2188   0.916   0.910   4.015
  615SOL    HW1 2189   0.979   0.948   3.947
  615SOL    HW2 2190   0.956   0.827   4.054
  616SOL     OW 2191   1.504   1.607   3.768
  616SOL    HW1 2192   1.412   1.644   3.775
  616SOL    HW2 2193   1.542   1.627   3.678
  617SOL     OW 2194   0.372   1.288   5.214
  617SOL    HW1 2195   0.359   1.381   5.180
  617SOL    HW2 2196   0.288   1.236   5.201
  618SOL     OW 2197   1.614   1.292   5.013
  618SOL    HW1 2198   1.674   1.295   5.093
  618SOL    HW2 2199   1.539   1.356   5.026
  619SOL     OW 2200   1.039   1.098   4.420
  619SOL    HW1 2201   0.969   1.051   4.474
  619SOL    HW2 2202   1.098   1.030   4.377
  620SOL     OW 2203   1.014   0.236   4.695
  620SOL    HW1 2204   1.006   0.200   4.602
  620SOL    HW2 2205   1.012   0.160   4.760
  621SOL     OW 2206   0.590   1.487   4.215
  621SOL    HW1 2207   0.632   1.429   4.145
  621SOL    HW2 2208   0.546   1.566   4.171
  622SOL     OW 2209   1.709   0.385   5.105
  622SOL    HW1 2210   1.782   0.454   5.109
  622SOL    HW2 2211   1.737   0.310   5.046
  623SOL     OW 2212   0.255   1.348   4.014
  623SOL    HW1 2213   0.159   1.349   3.987
  623SOL    HW2 2214   0.267   1.401   4.098
  624SOL     OW 2215   0.105   1.013   5.450
  624SOL    HW1 2216   0.028   0.980   5.504
  624SOL    HW2 2217   0.190   0.983   5.492
  625SOL     OW 2218   0.672   0.203   5.213
  625SOL    HW1 2219   0.762   0.187   5.173
  625SOL    HW2 2220   0.680   0.208   5.312
  626SOL     OW 2221   0.075   0.345   3.757
  626SOL    HW1 2222  -0.017   0.317   3.728
  626SOL    HW2 2223   0.106   0.422   3.701
  627SOL     OW 2224   1.440   0.856   5.122
  627SOL    HW1 2225   1.383   0.908   5.059
  627SOL    HW2 2226   1.536   0.868   5.098
  628SOL     OW 2227   0.072   0.166   4.042
  628SOL    HW1 2228   0.055   0.249   3.988
  628SOL    HW2 2229   0.162   0.129   4.020
  629SOL     OW 2230   1.183   1.335   3.843
  629SOL    HW1 2231   1.084   1.324   3.845
  629SOL    HW2 2232   1.217   1.350   3.936
  630SOL     OW 2233   0.613   0.842   5.155
  630SOL    HW1 2234   0.669   0.923   5.138
  630SOL    HW2 2235   0.672   0.762   5.158
  631SOL     OW 2236   1.493   1.767   4.683
  631SOL    HW1 2237   1.526   1.831   4.614
  631SOL    HW2 2238   1.559   1.761   4.758
  632SOL     OW 2239   0.716   0.565   5.432
  632SOL    HW1 2240   0.735   0.630   5.506
  632SOL    HW2 2241   0.776   0.485   5.441
  633SOL     OW 2242   1.450   1.220   5.357
  633SOL    HW1 2243   1.441   1.210   5.456
  633SOL    HW2 2244   1.546   1.213   5.331
  634SOL     OW 2245   0.390   1.741   5.284
  634SOL    HW1 2246   0.299   1.782   5.282
  634SOL    HW2 2247   0.383   1.647   5.316
  635SOL     OW 2248   1.674   0.883   4.978
  635SOL    HW1 2249   1.647   0.794   4.941
  635SOL    HW2 2250   1.675   0.951   4.905
  636SOL     OW 2251   1.225   0.325   4.173
  636SOL    HW1 2252   1.290   0.251   4.162
  636SOL    HW2 2253   1.245   0.375   4.257
  637SOL     OW 2254   0.594   0.745   4.376
  637SOL    HW1 2255   0.644   0.830   4.357
  637SOL    HW2 2256   0.506   0.747   4.328
  638SOL     OW 2257   1.777   0.342   5.366
  638SOL    HW1 2258   1.760   0.373   5.272
  638SOL    HW2 2259   1.693   0.305   5.404
  639SOL     OW 2260   1.730   0.934   5.241
  639SOL    HW1 2261   1.768   1.025   5.256
  639SOL    HW2 2262   1.722   0.917   5.142
  640SOL     OW 2263   0.859   1.374   3.740
  640SOL    HW1 2264   0.813   1.389   3.828
  640SOL    HW2 2265   0.903   1.459   3.710
  641SOL     OW 2266   0.661   1.790   4.677
  641SOL    HW1 2267   0.615   1.878   4.664
  641SOL    HW2 2268   0.760   1.802   4.670
  642SOL     OW 2269   0.859   0.956   4.585
  642SOL    HW1 2270   0.913   0.887   4.633
  642SOL    HW2 2271   0.827   1.025   4.651
  643SOL     OW 2272   1.083   0.984   3.811
  643SOL    HW1 2273   1.060   1.037   3.729
  643SOL    HW2 2274   1.164   0.928   3.792
  644SOL     OW 2275   1.861   1.569   4.575
  644SOL    HW1 2276   1.790   1.557   4.505
  644SOL    HW2 2277   1.862   1.490   4.635
  645SOL     OW 2278   0.221   1.314   5.568
  645SOL    HW1 2279   0.156   1.241   5.547
  645SOL    HW2 2280   0.225   1.328   5.666
  646SOL     OW 2281   0.079   1.240   4.377
  646SOL    HW1 2282   0.078   1.193   4.465
  646SOL    HW2 2283   0.161   1.212   4.326
  647SOL     OW 2284   0.672   1.391   5.348
  647SOL    HW1 2285   0.594   1.341   5.386
  647SOL    HW2 2286   0.669   1.486   5.379
  648SOL     OW 2287   1.824   0.192   4.951
  648SOL    HW1 2288   1.820   0.102   4.995
  648SOL    HW2 2289   1.827   0.181   4.852
  649SOL     OW 2290   0.428   0.424   4.244
  649SOL    HW1 2291   0.458   0.352   4.182
  649SOL    HW2 2292   0.389   0.384   4.327
  650SOL     OW 2293   1.705   1.487   4.828
  650SOL    HW1 2294   1.612   1.462   4.801
  650SOL    HW2 2295   1.731   1.437   4.910
  651SOL     OW 2296   0.317   0.547   5.004
  651SOL    HW1 2297   0.355   0.488   5.076
  651SOL    HW2 2298   0.357   0.521   4.916
  652SOL     OW 2299   0.812   1.586   4.411
  652SOL    HW1 2300   0.844   1.596   4.317
  652SOL    HW2 2301   0.733   1.524   4.413
  653SOL     OW 2302   1.424   0.214   4.836
  653SOL    HW1 2303   1.476   0.149   4.891
  653SOL    HW2 2304   1.375   0.277   4.897
  654SOL     OW 2305   1.001   0.034   4.878
  654SOL    HW1 2306   0.938  -0.038   4.847
  654SOL    HW2 2307   1.094  -0.002   4.878
  655SOL     OW 2308   0.770   1.330   4.025
  655SOL    HW1 2309   0.724   1.243   4.042
  655SOL    HW2 2310   0.861   1.327   4.066
  656SOL     OW 2311   0.618   1.567   5.008
  656SOL    HW1 2312   0.613   1.649   5.065
  656SOL    HW2 2313   0.707   1.564   4.963
  657SOL     OW 2314   1.352   0.052   3.892
  657SOL    HW1 2315   1.387   0.011   3.808
  657SOL    HW2 2316   1.262   0.014   3.912
  658SOL     OW 2317   1.300   0.453   4.415
  658SOL    HW1 2318   1.241   0.533   4.419
  658SOL    HW2 2319   1.315   0.418   4.508
  659SOL     OW 2320   1.593   0.221   4.606
  659SOL    HW1 2321   1.509   0.220   4.660
  659SOL    HW2 2322   1.595   0.304   4.550
  660SOL     OW 2323   0.039   1.077   4.024
  660SOL    HW1 2324   0.138   1.066   4.015
  660SOL    HW2 2325  -0.001   0.991   4.056
  661SOL     OW 2326   0.875   1.646   4.061
  661SOL    HW1 2327   0.798   1.611   4.007
  661SOL    HW2 2328   0.843   1.717   4.123
  662SOL     OW 2329   0.230   0.628   5.699
  662SOL    HW1 2330   0.137   0.626   5.736
  662SOL    HW2 2331   0.231   0.589   5.607
  663SOL     OW 2332   0.225   0.275   6.582
  663SOL    HW1 2333   0.260   0.258   6.674
  663SOL    HW2 2334   0.137   0.230   6.570
  664SOL     OW 2335   0.019   0.368   6.233
  664SOL    HW1 2336  -0.063   0.411   6.272
  664SOL    HW2 2337  -0.009   0.295   6.170
  665SOL     OW 2338   0.569   1.275   6.751
  665SOL    HW1 2339   0.476   1.268   6.714
  665SOL    HW2 2340   0.580   1.364   6.795
  666SOL     OW 2341   1.555   1.511   6.289
  666SOL    HW1 2342   1.498   1.495   6.370
  666SOL    HW2 2343   1.496   1.521   6.209
  667SOL     OW 2344   1.135   0.703   6.303
  667SOL    HW1 2345   1.192   0.781   6.278
  667SOL    HW2 2346   1.075   0.729   6.379
  668SOL     OW 2347   1.755   0.607   5.817
  668SOL    HW1 2348   1.743   0.594   5.718
  668SOL    HW2 2349   1.725   0.526   5.866
  669SOL     OW 2350   0.768   1.144   6.609
  669SOL    HW1 2351   0.690   1.161   6.669
  669SOL    HW2 2352   0.802   1.231   6.573
  670SOL     OW 2353   0.685   1.012   6.251
  670SOL    HW1 2354   0.754   0.996   6.321
  670SOL    HW2 2355   0.612   1.069   6.289
  671SOL     OW 2356   0.335   1.435   6.647
  671SOL    HW1 2357   0.257   1.404   6.594
  671SOL    HW2 2358   0.393   1.493   6.590
  672SOL     OW 2359   1.603   0.447   6.323
  672SOL    HW1 2360   1.529   0.493   6.273
  672SOL    HW2 2361   1.654   0.515   6.376
  673SOL     OW 2362   0.231   1.713   6.069
  673SOL    HW1 2363   0.265   1.790   6.123
  673SOL    HW2 2364   0.275   1.713   5.979
  674SOL     OW 2365   0.230   1.434   6.124
  674SOL    HW1 2366   0.204   1.530   6.124
  674SOL    HW2 2367   0.159   1.380   6.169
  675SOL     OW 2368   0.240   1.091   6.472
  675SOL    HW1 2369   0.254   1.007   6.524
  675SOL    HW2 2370   0.185   1.155   6.527
  676SOL     OW 2371   0.606   0.964   5.709
  676SOL    HW1 2372   0.613   1.048   5.655
  676SOL    HW2 2373   0.652   0.977   5.797
  677SOL     OW 2374   0.122   0.643   6.149
  677SOL    HW1 2375   0.077   0.555   6.166
  677SOL    HW2 2376   0.121   0.697   6.233
  678SOL     OW 2377   1.842   1.767   5.945
  678SOL    HW1 2378   1.896   1.738   6.025
  678SOL    HW2 2379   1.872   1.857   5.916
  679SOL     OW 2380   0.027   1.596   5.703
  679SOL    HW1 2381   0.008   1.500   5.724
  679SOL    HW2 2382  -0.006   1.654   5.778
  680SOL     OW 2383   1.689   0.922   6.198
  680SOL    HW1 2384   1.784   0.893   6.206
  680SOL    HW2 2385   1.681   0.987   6.123
  681SOL     OW 2386   1.641   1.108   6.018
  681SOL    HW1 2387   1.727   1.110   5.966
  681SOL    HW2 2388   1.655   1.155   6.106
  682SOL     OW 2389   0.613   1.365   6.312
  682SOL    HW1 2390   0.564   1.278   6.321
  682SOL    HW2 2391   0.590   1.408   6.225
  683SOL     OW 2392   0.809   0.004   6.088
  683SOL    HW1 2393   0.849   0.095   6.079
  683SOL    HW2 2394   0.709   0.012   6.094
  684SOL     OW 2395   1.525   0.999   5.776
  684SOL    HW1 2396   1.462   0.923   5.789
  684SOL    HW2 2397   1.573   1.017   5.862
  685SOL     OW 2398   1.466   1.417   6.539
  685SOL    HW1 2399   1.407   1.423   6.619
  685SOL    HW2 2400   1.451   1.329   6.493
  686SOL     OW 2401   1.667   1.714   6.158
  686SOL    HW1 2402   1.626   1.691   6.070
  686SOL    HW2 2403   1.649   1.640   6.223
  687SOL     OW 2404   0.598   0.729   5.856
  687SOL    HW1 2405   0.622   0.798   5.788
  687SOL    HW2 2406   0.520   0.762   5.910
  688SOL     OW 2407   1.281   0.345   6.530
  688SOL    HW1 2408   1.195   0.295   6.517
  688SOL    HW2 2409   1.343   0.291   6.586
  689SOL     OW 2410   1.576   1.662   5.893
  689SOL    HW1 2411   1.665   1.708   5.896
  689SOL    HW2 2412   1.555   1.638   5.798
  690SOL     OW 2413   0.991   0.410   6.828
  690SOL    HW1 2414   0.914   0.444   6.882
  690SOL    HW2 2415   0.957   0.359   6.749
  691SOL     OW 2416   1.041   0.701   6.015
  691SOL    HW1 2417   1.067   0.697   6.111
  691SOL    HW2 2418   0.956   0.650   6.001
  692SOL     OW 2419   0.076   0.811   6.375
  692SOL    HW1 2420   0.175   0.799   6.384
  692SOL    HW2 2421   0.052   0.906   6.396
  693SOL     OW 2422   0.865   0.348   5.781
  693SOL    HW1 2423   0.924   0.411   5.732
  693SOL    HW2 2424   0.884   0.254   5.752
  694SOL     OW 2425   1.362   1.144   6.131
  694SOL    HW1 2426   1.445   1.115   6.083
  694SOL    HW2 2427   1.313   1.211   6.075
  695SOL     OW 2428   0.550   0.196   6.471
  695SOL    HW1 2429   0.545   0.191   6.571
  695SOL    HW2 2430   0.552   0.292   6.442
  696SOL     OW 2431   1.008   1.456   6.063
  696SOL    HW1 2432   0.962   1.528   6.011
  696SOL    HW2 2433   1.004   1.476   6.161
  697SOL     OW 2434   0.351   1.801   6.439
  697SOL    HW1 2435   0.401   1.715   6.445
  697SOL    HW2 2436   0.416   1.878   6.436
  698SOL     OW 2437   1.795   1.066   6.459
  698SOL    HW1 2438   1.733   1.051   6.383
  698SOL    HW2 2439   1.743   1.077   6.544
  699SOL     OW 2440   0.321   0.943   5.828
  699SOL    HW1 2441   0.403   0.982   5.786
  699SOL    HW2 2442   0.294   0.861   5.779
  700SOL     OW 2443   1.458   0.735   6.314
  700SOL    HW1 2444   1.453   0.670   6.389
  700SOL    HW2 2445   1.538   0.794   6.327
  701SOL     OW 2446   1.111   1.776   5.823
  701SOL    HW1 2447   1.051   1.714   5.873
  701SOL    HW2 2448   1.142   1.732   5.738
  702SOL     OW 2449   1.632   1.377   5.667
  702SOL    HW1 2450   1.600   1.471   5.657
  702SOL    HW2 2451   1.556   1.314   5.655
  703SOL     OW 2452   0.464   1.743   5.909
  703SOL    HW1 2453   0.497   1.782   5.995
  703SOL    HW2 2454   0.540   1.736   5.844
  704SOL     OW 2455   1.400   0.107   6.012
  704SOL    HW1 2456   1.376   0.070   5.922
  704SOL    HW2 2457   1.499   0.123   6.016
  705SOL     OW 2458   0.249   1.785   6.827
  705SOL    HW1 2459   0.306   1.720   6.877
  705SOL    HW2 2460   0.233   1.752   6.734
  706SOL     OW 2461   0.940   1.698   6.490
  706SOL    HW1 2462   1.020   1.641   6.511
  706SOL    HW2 2463   0.891   1.658   6.413
  707SOL     OW 2464   0.382   0.700   6.066
  707SOL    HW1 2465   0.427   0.610   6.063
  707SOL    HW2 2466   0.288   0.689   6.099
  708SOL     OW 2467   0.614   0.122   5.703
  708SOL    HW1 2468   0.712   0.100   5.710
  708SOL    HW2 2469   0.583   0.105   5.610
  709SOL     OW 2470   0.888   1.514   6.781
  709SOL    HW1 2471   0.865   1.489   6.687
  709SOL    HW2 2472   0.949   1.445   6.820
  710SOL     OW 2473   0.803   1.402   6.510
  710SOL    HW1 2474   0.893   1.416   6.468
  710SOL    HW2 2475   0.732   1.404   6.439
  711SOL     OW 2476   0.922   0.503   6.485
  711SOL    HW1 2477   0.897   0.494   6.389
  711SOL    HW2 2478   0.970   0.421   6.516
  712SOL     OW 2479   0.539   0.064   6.098
  712SOL    HW1 2480   0.458   0.065   6.156
  712SOL    HW2 2481   0.542   0.147   6.043
  713SOL     OW 2482   1.434   1.188   5.627
  713SOL    HW1 2483   1.466   1.112   5.684
  713SOL    HW2 2484   1.342   1.215   5.657
  714SOL     OW 2485   0.297   0.035   5.757
  714SOL    HW1 2486   0.346   0.119   5.736
  714SOL    HW2 2487   0.359  -0.030   5.802
  715SOL     OW 2488   0.935   0.236   6.066
  715SOL    HW1 2489   0.887   0.277   5.988
  715SOL    HW2 2490   1.034   0.234   6.047
  716SOL     OW 2491   1.227   1.570   6.379
  716SOL    HW1 2492   1.248   1.644   6.314
  716SOL    HW2 2493   1.295   1.570   6.452
  717SOL     OW 2494   0.459   1.152   6.327
  717SOL    HW1 2495   0.388   1.125   6.392
  717SOL    HW2 2496   0.433   1.124   6.234
  718SOL     OW 2497   1.271   1.797   6.177
  718SOL    HW1 2498   1.315   1.861   6.113
  718SOL    HW2 2499   1.221   1.849   6.247
  719SOL     OW 2500   1.032   0.549   5.602
  719SOL    HW1 2501   0.991   0.631   5.563
  719SOL    HW2 2502   1.096   0.575   5.675
  720SOL     OW 2503   0.561   0.222   6.733
  720SOL    HW1 2504   0.599   0.138   6.770
  720SOL    HW2 2505   0.473   0.241   6.777
  721SOL     OW 2506   0.866   0.454   6.228
  721SOL    HW1 2507   0.834   0.526   6.166
  721SOL    HW2 2508   0.890   0.373   6.175
  722SOL     OW 2509   1.017   0.039   6.339
  722SOL    HW1 2510   0.945   0.044   6.270
  722SOL    HW2 2511   0.993  -0.030   6.408
  723SOL     OW 2512   1.429   1.173   6.453
  723SOL    HW1 2513   1.374   1.089   6.446
  723SOL    HW2 2514   1.455   1.202   6.361
  724SOL     OW 2515   1.466   0.590   6.578
  724SOL    HW1 2516   1.436   0.495   6.585
  724SOL    HW2 2517   1.539   0.606   6.644
  725SOL     OW 2518   1.857   0.833   5.963
  725SOL    HW1 2519   1.899   0.769   6.027
  725SOL    HW2 2520   1.819   0.782   5.885
  726SOL     OW 2521   0.488   1.385   5.760
  726SOL    HW1 2522   0.401   1.370   5.807
  726SOL    HW2 2523   0.471   1.411   5.665
  727SOL     OW 2524   1.664   1.280   6.243
  727SOL    HW1 2525   1.763   1.288   6.257
  727SOL    HW2 2526   1.619   1.364   6.274
  728SOL     OW 2527   1.390   0.575   5.664
  728SOL    HW1 2528   1.336   0.554   5.745
  728SOL    HW2 2529   1.481   0.534   5.673
  729SOL     OW 2530   0.527   0.256   5.914
  729SOL    HW1 2531   0.554   0.197   5.839
  729SOL    HW2 2532   0.527   0.351   5.883
  730SOL     OW 2533   1.111   1.195   6.686
  730SOL    HW1 2534   1.071   1.239   6.767
  730SOL    HW2 2535   1.070   1.232   6.603
  731SOL     OW 2536   1.638   1.099   6.665
  731SOL    HW1 2537   1.643   1.180   6.724
  731SOL    HW2 2538   1.552   1.101   6.614
  732SOL     OW 2539   0.705   1.050   5.954
  732SOL    HW1 2540   0.691   1.057   6.053
  732SOL    HW2 2541   0.789   0.999   5.936
  733SOL     OW 2542   0.367   1.100   6.087
  733SOL    HW1 2543   0.360   1.183   6.031
  733SOL    HW2 2544   0.371   1.020   6.027
  734SOL     OW 2545   0.566   0.537   6.451
  734SOL    HW1 2546   0.578   0.603   6.377
  734SOL    HW2 2547   0.612   0.571   6.534
  735SOL     OW 2548   1.252   1.348   5.974
  735SOL    HW1 2549   1.302   1.425   6.014
  735SOL    HW2 2550   1.157   1.350   6.006
  736SOL     OW 2551   1.272   1.445   6.728
  736SOL    HW1 2552   1.319   1.458   6.815
  736SOL    HW2 2553   1.206   1.371   6.737
  737SOL     OW 2554   1.582   0.639   6.058
  737SOL    HW1 2555   1.551   0.700   6.131
  737SOL    HW2 2556   1.632   0.691   5.989
  738SOL     OW 2557   0.573   0.870   6.615
  738SOL    HW1 2558   0.617   0.959   6.606
  738SOL    HW2 2559   0.510   0.870   6.692
  739SOL     OW 2560   1.360   0.862   6.631
  739SOL    HW1 2561   1.285   0.862   6.565
  739SOL    HW2 2562   1.397   0.770   6.640
  740SOL     OW 2563   1.209   0.525   5.861
  740SOL    HW1 2564   1.222   0.441   5.915
  740SOL    HW2 2565   1.180   0.599   5.921
  741SOL     OW 2566   0.732   0.634   6.650
  741SOL    HW1 2567   0.791   0.608   6.574
  741SOL    HW2 2568   0.704   0.730   6.639
  742SOL     OW 2569   0.307   0.063   6.204
  742SOL    HW1 2570   0.296   0.157   6.237
  742SOL    HW2 2571   0.302   0.000   6.281
  743SOL     OW 2572   1.622   0.367   5.960
  743SOL    HW1 2573   1.624   0.291   6.024
  743SOL    HW2 2574   1.574   0.444   6.000
  744SOL     OW 2575   1.023   0.766   6.552
  744SOL    HW1 2576   1.038   0.787   6.648
  744SOL    HW2 2577   0.993   0.671   6.543
  745SOL     OW 2578   1.540   0.274   5.711
  745SOL    HW1 2579   1.479   0.199   5.734
  745SOL    HW2 2580   1.562   0.326   5.794
  746SOL     OW 2581   1.303   0.838   5.628
  746SOL    HW1 2582   1.337   0.745   5.643
  746SOL    HW2 2583   1.321   0.865   5.533
  747SOL     OW 2584   1.068   1.333   6.435
  747SOL    HW1 2585   1.075   1.249   6.380
  747SOL    HW2 2586   1.130   1.402   6.399
  748SOL     OW 2587   0.319   0.810   6.535
  748SOL    HW1 2588   0.412   0.846   6.540
  748SOL    HW2 2589   0.313   0.725   6.587
  749SOL     OW 2590   0.339   0.509   6.592
  749SOL    HW1 2591   0.287   0.426   6.575
  749SOL    HW2 2592   0.416   0.514   6.528
  750SOL     OW 2593   0.008   1.326   5.786
  750SOL    HW1 2594  -0.085   1.347   5.755
  750SOL    HW2 2595   0.018   1.227   5.799
  751SOL     OW 2596   0.088   1.801   6.513
  751SOL    HW1 2597   0.046   1.715   6.486
  751SOL    HW2 2598   0.182   1.804   6.479
  752SOL     OW 2599   0.504   1.568   6.496
  752SOL    HW1 2600   0.570   1.642   6.505
  752SOL    HW2 2601   0.548   1.489   6.454
  753SOL     OW 2602   0.040   0.544   6.700
  753SOL    HW1 2603   0.125   0.511   6.659
  753SOL    HW2 2604   0.053   0.559   6.798
  754SOL     OW 2605   0.815   0.572   5.911
  754SOL    HW1 2606   0.822   0.483   5.865
  754SOL    HW2 2607   0.721   0.606   5.903
  755SOL     OW 2608   1.657   0.604   6.792
  755SOL    HW1 2609   1.619   0.535   6.854
  755SOL    HW2 2610   1.739   0.568   6.748
  756SOL     OW 2611   0.671   0.464   6.855
  756SOL    HW1 2612   0.637   0.375   6.825
  756SOL    HW2 2613   0.697   0.518   6.775
  757SOL     OW 2614   0.473   0.500   5.777
  757SOL    HW1 2615   0.534   0.580   5.781
  757SOL    HW2 2616   0.378   0.531   5.784
  758SOL     OW 2617   1.347   1.059   6.820
  758SOL    HW1 2618   1.371   0.996   6.746
  758SOL    HW2 2619   1.257   1.099   6.802
  759SOL     OW 2620   1.302   0.855   5.895
  759SOL    HW1 2621   1.216   0.824   5.937
  759SOL    HW2 2622   1.298   0.841   5.796
  760SOL     OW 2623   1.759   1.747   6.740
  760SOL    HW1 2624   1.820   1.777   6.667
  760SOL    HW2 2625   1.721   1.658   6.718
  761SOL     OW 2626   1.252   1.731   6.714
  761SOL    HW1 2627   1.336   1.736   6.660
  761SOL    HW2 2628   1.229   1.635   6.732
  762SOL     OW 2629   0.083   1.258   6.608
  762SOL    HW1 2630   0.078   1.257   6.708
  762SOL    HW2 2631   0.000   1.217   6.570
  763SOL     OW 2632   1.726   0.135   6.109
  763SOL    HW1 2633   1.799   0.118   6.042
  763SOL    HW2 2634   1.695   0.048   6.147
  764SOL     OW 2635   1.388   1.573   6.063
  764SOL    HW1 2636   1.455   1.585   5.989
  764SOL    HW2 2637   1.348   1.662   6.086
  765SOL     OW 2638   1.280   0.927   6.258
  765SOL    HW1 2639   1.340   0.846   6.260
  765SOL    HW2 2640   1.320   0.996   6.198
  766SOL     OW 2641   0.672   1.616   5.740
  766SOL    HW1 2642   0.681   1.626   5.641
  766SOL    HW2 2643   0.632   1.527   5.761
  767SOL     OW 2644   1.841   0.175   6.549
  767SOL    HW1 2645   1.880   0.090   6.513
  767SOL    HW2 2646   1.743   0.177   6.530
  768SOL     OW 2647   0.263   0.326   6.306
  768SOL    HW1 2648   0.184   0.377   6.272
  768SOL    HW2 2649   0.254   0.311   6.404
  769SOL     OW 2650   1.194   1.612   5.617
  769SOL    HW1 2651   1.200   1.519   5.654
  769SOL    HW2 2652   1.135   1.612   5.537
  770SOL     OW 2653   0.916   0.910   5.877
  770SOL    HW1 2654   0.979   0.948   5.809
  770SOL    HW2 2655   0.956   0.827   5.916
  771SOL     OW 2656   1.504   1.607   5.630
  771SOL    HW1 2657   1.412   1.644   5.637
  771SOL    HW2 2658   1.542   1.627   5.540
  772SOL     OW 2659   1.039   1.098   6.282
  772SOL    HW1 2660   0.969   1.051   6.336
  772SOL    HW2 2661   1.098   1.030   6.239
  773SOL     OW 2662   1.014   0.236   6.557
  773SOL    HW1 2663   1.006   0.200   6.464
  773SOL    HW2 2664   1.012   0.160   6.622
  774SOL     OW 2665   0.590   1.487   6.077
  774SOL    HW1 2666   0.632   1.429   6.007
  774SOL    HW2 2667   0.546   1.566   6.033
  775SOL     OW 2668   0.255   1.348   5.876
  775SOL    HW1 2669   0.159   1.349   5.849
  775SOL    HW2 2670   0.267   1.401   5.960
  776SOL     OW 2671   0.075   0.345   5.619
  776SOL    HW1 2672  -0.017   0.317   5.590
  776SOL    HW2 2673   0.106   0.422   5.563
  777SOL     OW 2674   0.072   0.166   5.904
  777SOL    HW1 2675   0.055   0.249   5.850
  777SOL    HW2 2676   0.162   0.129   5.882
  778SOL     OW 2677   1.183   1.335   5.705
  778SOL    HW1 2678   1.084   1.324   5.707
  778SOL    HW2 2679   1.217   1.350   5.798
  779SOL     OW 2680   1.493   1.767   6.545
  779SOL    HW1 2681   1.526   1.831   6.476
  779SOL    HW2 2682   1.559   1.761   6.620
  780SOL     OW 2683   1.674   0.883   6.840
  780SOL    HW1 2684   1.647   0.794   6.803
  780SOL    HW2 2685   1.675   0.951   6.767
  781SOL     OW 2686   1.225   0.325   6.035
  781SOL    HW1 2687   1.290   0.251   6.024
  781SOL    HW2 2688   1.245   0.375   6.119
  782SOL     OW 2689   0.594   0.745   6.238
  782SOL    HW1 2690   0.644   0.830   6.219
  782SOL    HW2 2691   0.506   0.747   6.190
  783SOL     OW 2692   0.859   1.374   5.602
  783SOL    HW1 2693   0.813   1.389   5.690
  783SOL    HW2 2694   0.903   1.459   5.572
  784SOL     OW 2695   0.661   1.790   6.539
  784SOL    HW1 2696   0.615   1.878   6.526
  784SOL    HW2 2697   0.760   1.802   6.532
  785SOL     OW 2698   0.859   0.956   6.447
  785SOL    HW1 2699   0.913   0.887   6.495
  785SOL    HW2 2700   0.827   1.025   6.513
  786SOL     OW 2701   1.083   0.984   5.673
  786SOL    HW1 2702   1.060   1.037   5.591
  786SOL    HW2 2703   1.164   0.928   5.654
  787SOL     OW 2704   1.861   1.569   6.437
  787SOL    HW1 2705   1.790   1.557   6.367
  787SOL    HW2 2706   1.862   1.490   6.497
  788SOL     OW 2707   0.079   1.240   6.239
  788SOL    HW1 2708   0.078   1.193   6.327
  788SOL    HW2 2709   0.161   1.212   6.188
  789SOL     OW 2710   1.824   0.192   6.813
  789SOL    HW1 2711   1.820   0.102   6.857
  789SOL    HW2 2712   1.827   0.181   6.714
  790SOL     OW 2713   0.428   0.424   6.106
  790SOL    HW1 2714   0.458   0.352   6.044
  790SOL    HW2 2715   0.389   0.384   6.189
  791SOL     OW 2716   1.705   1.487   6.690
  791SOL    HW1 2717   1.612   1.462   6.663
  791SOL    HW2 2718   1.731   1.437   6.772
  792SOL     OW 2719   0.317   0.547   6.866
  792SOL    HW1 2720   0.355   0.488   6.938
  792SOL    HW2 2721   0.357   0.521   6.778
  793SOL     OW 2722   0.812   1.586   6.273
  793SOL    HW1 2723   0.844   1.596   6.179
  793SOL    HW2 2724   0.733   1.524   6.275
  794SOL     OW 2725   1.424   0.214   6.698
  794SOL    HW1 2726   1.476   0.149   6.753
  794SOL    HW2 2727   1.375   0.277   6.759
  795SOL     OW 2728   1.001   0.034   6.740
  795SOL    HW1 2729   0.938  -0.038   6.709
  795SOL    HW2 2730   1.094  -0.002   6.740
  796SOL     OW 2731   0.770   1.330   5.887
  796SOL    HW1 2732   0.724   1.243   5.904
  796SOL    HW2 2733   0.861   1.327   5.928
  797SOL     OW 2734   1.352   0.052   5.754
  797SOL    HW1 2735   1.387   0.011   5.670
  797SOL    HW2 2736   1.262   0.014   5.774
  798SOL     OW 2737   1.300   0.453   6.277
  798SOL    HW1 2738   1.241   0.533   6.281
  798SOL    HW2 2739   1.315   0.418   6.370
  799SOL     OW 2740   1.593   0.221   6.468
  799SOL    HW1 2741   1.509   0.220   6.522
  799SOL    HW2 2742   1.595   0.304   6.412
  800SOL     OW 2743   0.039   1.077   5.886
  800SOL    HW1 2744   0.138   1.066   5.877
  800SOL    HW2 2745  -0.001   0.991   5.918
  801SOL     OW 2746   0.875   1.646   5.923
  801SOL    HW1 2747   0.798   1.611   5.869
  801SOL    HW2 2748   0.843   1.717   5.985
  802SOL     OW 2749   0.230   2.490   0.113
  802SOL    HW1 2750   0.137   2.488   0.150
  802SOL    HW2 2751   0.231   2.451   0.021
  803SOL     OW 2752   0.225   2.137   0.996
  803SOL    HW1 2753   0.260   2.120   1.088
  803SOL    HW2 2754   0.137   2.092   0.984
  804SOL     OW 2755   0.019   2.230   0.647
  804SOL    HW1 2756  -0.063   2.273   0.686
  804SOL    HW2 2757  -0.009   2.157   0.584
  805SOL     OW 2758   0.569   3.137   1.165
  805SOL    HW1 2759   0.476   3.130   1.128
  805SOL    HW2 2760   0.580   3.226   1.209
  806SOL     OW 2761   1.555   3.373   0.703
  806SOL    HW1 2762   1.498   3.357   0.784
  806SOL    HW2 2763   1.496   3.383   0.623
  807SOL     OW 2764   1.135   2.565   0.717
  807SOL    HW1 2765   1.192   2.643   0.692
  807SOL    HW2 2766   1.075   2.591   0.793
  808SOL     OW 2767   1.755   2.469   0.231
  808SOL    HW1 2768   1.743   2.456   0.132
  808SOL    HW2 2769   1.725   2.388   0.280
  809SOL     OW 2770   0.768   3.006   1.023
  809SOL    HW1 2771   0.690   3.023   1.083
  809SOL    HW2 2772   0.802   3.093   0.987
  810SOL     OW 2773   0.850   2.660   1.823
  810SOL    HW1 2774   0.846   2.736   1.888
  810SOL    HW2 2775   0.872   2.696   1.732
  811SOL     OW 2776   0.685   2.874   0.665
  811SOL    HW1 2777   0.754   2.858   0.735
  811SOL    HW2 2778   0.612   2.931   0.703
  812SOL     OW 2779   0.686   3.023   1.803
  812SOL    HW1 2780   0.746   3.102   1.817
  812SOL    HW2 2781   0.600   3.054   1.762
  813SOL     OW 2782   0.335   3.297   1.061
  813SOL    HW1 2783   0.257   3.266   1.008
  813SOL    HW2 2784   0.393   3.355   1.004
  814SOL     OW 2785   1.460   3.367   1.339
  814SOL    HW1 2786   1.484   3.461   1.365
  814SOL    HW2 2787   1.444   3.313   1.421
  815SOL     OW 2788   0.438   2.254   1.499
  815SOL    HW1 2789   0.520   2.198   1.508
  815SOL    HW2 2790   0.357   2.196   1.503
  816SOL     OW 2791   1.603   2.309   0.737
  816SOL    HW1 2792   1.529   2.355   0.687
  816SOL    HW2 2793   1.654   2.377   0.790
  817SOL     OW 2794   0.231   3.575   0.483
  817SOL    HW1 2795   0.265   3.652   0.537
  817SOL    HW2 2796   0.275   3.575   0.393
  818SOL     OW 2797   1.127   3.203   1.690
  818SOL    HW1 2798   1.174   3.203   1.778
  818SOL    HW2 2799   1.079   3.116   1.679
  819SOL     OW 2800   0.230   3.296   0.538
  819SOL    HW1 2801   0.204   3.392   0.538
  819SOL    HW2 2802   0.159   3.242   0.583
  820SOL     OW 2803   0.240   2.953   0.886
  820SOL    HW1 2804   0.254   2.869   0.938
  820SOL    HW2 2805   0.185   3.017   0.941
  821SOL     OW 2806   0.620   3.648   1.439
  821SOL    HW1 2807   0.528   3.631   1.474
  821SOL    HW2 2808   0.648   3.740   1.465
  822SOL     OW 2809   0.606   2.826   0.123
  822SOL    HW1 2810   0.613   2.910   0.069
  822SOL    HW2 2811   0.652   2.839   0.211
  823SOL     OW 2812   1.594   1.976   1.480
  823SOL    HW1 2813   1.576   2.043   1.408
  823SOL    HW2 2814   1.591   2.022   1.569
  824SOL     OW 2815   0.122   2.505   0.563
  824SOL    HW1 2816   0.077   2.417   0.580
  824SOL    HW2 2817   0.121   2.559   0.647
  825SOL     OW 2818   1.842   3.629   0.359
  825SOL    HW1 2819   1.896   3.600   0.439
  825SOL    HW2 2820   1.872   3.719   0.330
  826SOL     OW 2821   0.027   3.458   0.117
  826SOL    HW1 2822   0.008   3.362   0.138
  826SOL    HW2 2823  -0.006   3.516   0.192
  827SOL     OW 2824   1.689   2.784   0.612
  827SOL    HW1 2825   1.784   2.755   0.620
  827SOL    HW2 2826   1.681   2.849   0.537
  828SOL     OW 2827   1.641   2.970   0.432
  828SOL    HW1 2828   1.727   2.972   0.380
  828SOL    HW2 2829   1.655   3.017   0.520
  829SOL     OW 2830   0.113   2.599   1.597
  829SOL    HW1 2831   0.201   2.586   1.642
  829SOL    HW2 2832   0.100   2.696   1.575
  830SOL     OW 2833   0.613   3.227   0.726
  830SOL    HW1 2834   0.564   3.140   0.735
  830SOL    HW2 2835   0.590   3.270   0.639
  831SOL     OW 2836   1.293   3.090   1.423
  831SOL    HW1 2837   1.330   3.017   1.365
  831SOL    HW2 2838   1.345   3.095   1.508
  832SOL     OW 2839   0.809   1.866   0.502
  832SOL    HW1 2840   0.849   1.957   0.493
  832SOL    HW2 2841   0.709   1.874   0.508
  833SOL     OW 2842   0.197   2.838   1.264
  833SOL    HW1 2843   0.286   2.793   1.250
  833SOL    HW2 2844   0.124   2.773   1.245
  834SOL     OW 2845   1.525   2.861   0.190
  834SOL    HW1 2846   1.462   2.785   0.203
  834SOL    HW2 2847   1.573   2.879   0.276
  835SOL     OW 2848   1.187   3.654   1.616
  835SOL    HW1 2849   1.211   3.714   1.540
  835SOL    HW2 2850   1.194   3.559   1.586
  836SOL     OW 2851   0.317   2.113   1.801
  836SOL    HW1 2852   0.388   2.184   1.807
  836SOL    HW2 2853   0.229   2.152   1.829
  837SOL     OW 2854   1.466   3.279   0.953
  837SOL    HW1 2855   1.407   3.285   1.033
  837SOL    HW2 2856   1.451   3.191   0.907
  838SOL     OW 2857   1.667   3.576   0.572
  838SOL    HW1 2858   1.626   3.553   0.484
  838SOL    HW2 2859   1.649   3.502   0.637
  839SOL     OW 2860   0.598   2.591   0.270
  839SOL    HW1 2861   0.622   2.660   0.202
  839SOL    HW2 2862   0.520   2.624   0.324
  840SOL     OW 2863   1.281   2.207   0.944
  840SOL    HW1 2864   1.195   2.157   0.931
  840SOL    HW2 2865   1.343   2.153   1.000
  841SOL     OW 2866   1.576   3.524   0.307
  841SOL    HW1 2867   1.665   3.570   0.310
  841SOL    HW2 2868   1.555   3.500   0.212
  842SOL     OW 2869   0.807   2.467   1.465
  842SOL    HW1 2870   0.760   2.464   1.554
  842SOL    HW2 2871   0.756   2.412   1.399
  843SOL     OW 2872   1.394   2.331   1.674
  843SOL    HW1 2873   1.374   2.374   1.762
  843SOL    HW2 2874   1.472   2.269   1.683
  844SOL     OW 2875   0.973   2.752   1.572
  844SOL    HW1 2876   1.019   2.668   1.543
  844SOL    HW2 2877   0.917   2.786   1.497
  845SOL     OW 2878   0.991   2.272   1.242
  845SOL    HW1 2879   0.914   2.306   1.296
  845SOL    HW2 2880   0.957   2.221   1.163
  846SOL     OW 2881   1.041   2.563   0.429
  846SOL    HW1 2882   1.067   2.559   0.525
  846SOL    HW2 2883   0.956   2.512   0.415
  847SOL     OW 2884   0.076   2.673   0.789
  847SOL    HW1 2885   0.175   2.661   0.798
  847SOL    HW2 2886   0.052   2.768   0.810
  848SOL     OW 2887   0.130   3.683   1.571
  848SOL    HW1 2888   0.120   3.668   1.670
  848SOL    HW2 2889   0.044   3.719   1.535
  849SOL     OW 2890   0.865   2.210   0.195
  849SOL    HW1 2891   0.924   2.273   0.146
  849SOL    HW2 2892   0.884   2.116   0.166
  850SOL     OW 2893   1.719   2.447   1.831
  850SOL    HW1 2894   1.693   2.536   1.795
  850SOL    HW2 2895   1.717   2.379   1.758
  851SOL     OW 2896   1.362   3.006   0.545
  851SOL    HW1 2897   1.445   2.977   0.497
  851SOL    HW2 2898   1.313   3.073   0.489
  852SOL     OW 2899   0.550   2.058   0.885
  852SOL    HW1 2900   0.545   2.053   0.985
  852SOL    HW2 2901   0.552   2.154   0.856
  853SOL     OW 2902   1.008   3.318   0.477
  853SOL    HW1 2903   0.962   3.390   0.425
  853SOL    HW2 2904   1.004   3.338   0.575
  854SOL     OW 2905   0.351   3.663   0.853
  854SOL    HW1 2906   0.401   3.577   0.859
  854SOL    HW2 2907   0.416   3.740   0.850
  855SOL     OW 2908   1.795   2.928   0.873
  855SOL    HW1 2909   1.733   2.913   0.797
  855SOL    HW2 2910   1.743   2.939   0.958
  856SOL     OW 2911   1.227   3.412   1.506
  856SOL    HW1 2912   1.233   3.335   1.570
  856SOL    HW2 2913   1.175   3.386   1.426
  857SOL     OW 2914   0.321   2.805   0.242
  857SOL    HW1 2915   0.403   2.844   0.200
  857SOL    HW2 2916   0.294   2.723   0.193
  858SOL     OW 2917   1.458   2.597   0.728
  858SOL    HW1 2918   1.453   2.532   0.803
  858SOL    HW2 2919   1.538   2.656   0.741
  859SOL     OW 2920   0.461   3.128   1.727
  859SOL    HW1 2921   0.411   3.129   1.641
  859SOL    HW2 2922   0.398   3.110   1.803
  860SOL     OW 2923   1.111   3.638   0.237
  860SOL    HW1 2924   1.051   3.576   0.287
  860SOL    HW2 2925   1.142   3.594   0.152
  861SOL     OW 2926   0.202   2.147   1.498
  861SOL    HW1 2927   0.122   2.207   1.485
  861SOL    HW2 2928   0.192   2.098   1.584
  862SOL     OW 2929   1.632   3.239   0.081
  862SOL    HW1 2930   1.600   3.333   0.071
  862SOL    HW2 2931   1.556   3.176   0.069
  863SOL     OW 2932   0.464   3.605   0.323
  863SOL    HW1 2933   0.497   3.644   0.409
  863SOL    HW2 2934   0.540   3.598   0.258
  864SOL     OW 2935   1.400   1.969   0.426
  864SOL    HW1 2936   1.376   1.932   0.336
  864SOL    HW2 2937   1.499   1.985   0.430
  865SOL     OW 2938   0.249   3.647   1.241
  865SOL    HW1 2939   0.306   3.582   1.291
  865SOL    HW2 2940   0.233   3.614   1.148
  866SOL     OW 2941   0.940   3.560   0.904
  866SOL    HW1 2942   1.020   3.503   0.925
  866SOL    HW2 2943   0.891   3.520   0.827
  867SOL     OW 2944   0.382   2.562   0.480
  867SOL    HW1 2945   0.427   2.472   0.477
  867SOL    HW2 2946   0.288   2.551   0.513
  868SOL     OW 2947   1.547   2.084   1.729
  868SOL    HW1 2948   1.542   2.121   1.821
  868SOL    HW2 2949   1.475   2.015   1.717
  869SOL     OW 2950   0.614   1.984   0.117
  869SOL    HW1 2951   0.712   1.962   0.124
  869SOL    HW2 2952   0.583   1.967   0.024
  870SOL     OW 2953   0.781   2.126   1.749
  870SOL    HW1 2954   0.848   2.065   1.792
  870SOL    HW2 2955   0.708   2.145   1.814
  871SOL     OW 2956   0.888   3.376   1.195
  871SOL    HW1 2957   0.865   3.351   1.101
  871SOL    HW2 2958   0.949   3.307   1.234
  872SOL     OW 2959   1.351   2.452   1.433
  872SOL    HW1 2960   1.379   2.409   1.518
  872SOL    HW2 2961   1.376   2.548   1.434
  873SOL     OW 2962   0.803   3.264   0.924
  873SOL    HW1 2963   0.893   3.278   0.882
  873SOL    HW2 2964   0.732   3.266   0.853
  874SOL     OW 2965   0.922   2.365   0.899
  874SOL    HW1 2966   0.897   2.356   0.803
  874SOL    HW2 2967   0.970   2.283   0.930
  875SOL     OW 2968   0.539   1.926   0.512
  875SOL    HW1 2969   0.458   1.927   0.570
  875SOL    HW2 2970   0.542   2.009   0.457
  876SOL     OW 2971   1.434   3.050   0.041
  876SOL    HW1 2972   1.466   2.974   0.098
  876SOL    HW2 2973   1.342   3.077   0.071
  877SOL     OW 2974   0.297   1.897   0.171
  877SOL    HW1 2975   0.346   1.981   0.150
  877SOL    HW2 2976   0.359   1.832   0.216
  878SOL     OW 2977   0.935   2.098   0.480
  878SOL    HW1 2978   0.887   2.139   0.402
  878SOL    HW2 2979   1.034   2.096   0.461
  879SOL     OW 2980   1.076   2.545   1.464
  879SOL    HW1 2981   0.996   2.484   1.467
  879SOL    HW2 2982   1.157   2.492   1.440
  880SOL     OW 2983   1.227   3.432   0.793
  880SOL    HW1 2984   1.248   3.506   0.728
  880SOL    HW2 2985   1.295   3.432   0.866
  881SOL     OW 2986   0.459   3.014   0.741
  881SOL    HW1 2987   0.388   2.987   0.806
  881SOL    HW2 2988   0.433   2.986   0.648
  882SOL     OW 2989   1.271   3.659   0.591
  882SOL    HW1 2990   1.315   3.723   0.527
  882SOL    HW2 2991   1.221   3.711   0.661
  883SOL     OW 2992   1.032   2.411   0.016
  883SOL    HW1 2993   0.991   2.493  -0.023
  883SOL    HW2 2994   1.096   2.437   0.089
  884SOL     OW 2995   0.078   2.418   1.386
  884SOL    HW1 2996   0.170   2.417   1.345
  884SOL    HW2 2997   0.072   2.492   1.453
  885SOL     OW 2998   0.561   2.084   1.147
  885SOL    HW1 2999   0.599   2.000   1.184
  885SOL    HW2 3000   0.473   2.103   1.191
  886SOL     OW 3001   0.866   2.316   0.642
  886SOL    HW1 3002   0.834   2.388   0.580
  886SOL    HW2 3003   0.890   2.235   0.589
  887SOL     OW 3004   1.017   1.901   0.753
  887SOL    HW1 3005   0.945   1.906   0.684
  887SOL    HW2 3006   0.993   1.832   0.822
  888SOL     OW 3007   1.429   3.035   0.867
  888SOL    HW1 3008   1.374   2.951   0.860
  888SOL    HW2 3009   1.455   3.064   0.775
  889SOL     OW 3010   1.466   2.452   0.992
  889SOL    HW1 3011   1.436   2.357   0.999
  889SOL    HW2 3012   1.539   2.468   1.058
  890SOL     OW 3013   1.857   2.695   0.377
  890SOL    HW1 3014   1.899   2.631   0.441
  890SOL    HW2 3015   1.819   2.644   0.299
  891SOL     OW 3016   0.488   3.247   0.174
  891SOL    HW1 3017   0.401   3.232   0.221
  891SOL    HW2 3018   0.471   3.273   0.079
  892SOL     OW 3019   1.664   3.142   0.657
  892SOL    HW1 3020   1.763   3.150   0.671
  892SOL    HW2 3021   1.619   3.226   0.688
  893SOL     OW 3022   1.390   2.437   0.078
  893SOL    HW1 3023   1.336   2.416   0.159
  893SOL    HW2 3024   1.481   2.396   0.087
  894SOL     OW 3025   0.527   2.118   0.328
  894SOL    HW1 3026   0.554   2.059   0.253
  894SOL    HW2 3027   0.527   2.213   0.297
  895SOL     OW 3028   1.754   3.085   1.588
  895SOL    HW1 3029   1.845   3.046   1.575
  895SOL    HW2 3030   1.762   3.181   1.612
  896SOL     OW 3031   1.064   3.209   1.340
  896SOL    HW1 3032   0.984   3.186   1.395
  896SOL    HW2 3033   1.147   3.183   1.389
  897SOL     OW 3034   1.592   3.491   1.625
  897SOL    HW1 3035   1.619   3.525   1.535
  897SOL    HW2 3036   1.671   3.453   1.671
  898SOL     OW 3037   1.111   3.057   1.100
  898SOL    HW1 3038   1.071   3.101   1.181
  898SOL    HW2 3039   1.070   3.094   1.017
  899SOL     OW 3040   1.638   2.961   1.079
  899SOL    HW1 3041   1.643   3.042   1.138
  899SOL    HW2 3042   1.552   2.963   1.028
  900SOL     OW 3043   0.915   1.951   1.402
  900SOL    HW1 3044   0.940   1.931   1.307
  900SOL    HW2 3045   0.987   2.007   1.444
  901SOL     OW 3046   0.980   2.978   1.719
  901SOL    HW1 3047   0.881   2.984   1.729
  901SOL    HW2 3048   1.003   2.898   1.663
  902SOL     OW 3049   0.705   2.912   0.368
  902SOL    HW1 3050   0.691   2.919   0.467
  902SOL    HW2 3051   0.789   2.861   0.350
  903SOL     OW 3052   0.410   2.675   1.251
  903SOL    HW1 3053   0.496   2.687   1.301
  903SOL    HW2 3054   0.368   2.588   1.278
  904SOL     OW 3055   1.274   2.248   1.262
  904SOL    HW1 3056   1.295   2.322   1.326
  904SOL    HW2 3057   1.185   2.265   1.219
  905SOL     OW 3058   0.064   3.426   1.331
  905SOL    HW1 3059   0.018   3.508   1.297
  905SOL    HW2 3060   0.162   3.445   1.340
  906SOL     OW 3061   0.367   2.962   0.501
  906SOL    HW1 3062   0.360   3.045   0.445
  906SOL    HW2 3063   0.371   2.882   0.441
  907SOL     OW 3064   0.566   2.399   0.865
  907SOL    HW1 3065   0.578   2.465   0.791
  907SOL    HW2 3066   0.612   2.433   0.948
  908SOL     OW 3067   1.252   3.210   0.388
  908SOL    HW1 3068   1.302   3.287   0.428
  908SOL    HW2 3069   1.157   3.212   0.420
  909SOL     OW 3070   1.272   3.307   1.142
  909SOL    HW1 3071   1.319   3.320   1.229
  909SOL    HW2 3072   1.206   3.233   1.151
  910SOL     OW 3073   1.582   2.501   0.472
  910SOL    HW1 3074   1.551   2.562   0.545
  910SOL    HW2 3075   1.632   2.553   0.403
  911SOL     OW 3076   0.354   3.372   1.329
  911SOL    HW1 3077   0.333   3.328   1.242
  911SOL    HW2 3078   0.451   3.398   1.332
  912SOL     OW 3079   0.402   2.613   1.598
  912SOL    HW1 3080   0.470   2.668   1.551
  912SOL    HW2 3081   0.442   2.525   1.625
  913SOL     OW 3082   1.587   2.641   1.670
  913SOL    HW1 3083   1.495   2.679   1.665
  913SOL    HW2 3084   1.647   2.688   1.605
  914SOL     OW 3085   1.013   1.967   1.770
  914SOL    HW1 3086   1.019   2.052   1.718
  914SOL    HW2 3087   1.045   1.891   1.713
  915SOL     OW 3088   0.504   1.912   1.740
  915SOL    HW1 3089   0.462   1.855   1.670
  915SOL    HW2 3090   0.438   1.981   1.772
  916SOL     OW 3091   0.573   2.732   1.029
  916SOL    HW1 3092   0.617   2.821   1.020
  916SOL    HW2 3093   0.510   2.732   1.106
  917SOL     OW 3094   1.360   2.724   1.045
  917SOL    HW1 3095   1.285   2.724   0.979
  917SOL    HW2 3096   1.397   2.632   1.054
  918SOL     OW 3097   1.209   2.387   0.275
  918SOL    HW1 3098   1.222   2.303   0.329
  918SOL    HW2 3099   1.180   2.461   0.335
  919SOL     OW 3100   0.307   2.075   1.231
  919SOL    HW1 3101   0.284   2.112   1.321
  919SOL    HW2 3102   0.277   1.980   1.225
  920SOL     OW 3103   0.037   3.172   1.282
  920SOL    HW1 3104   0.090   3.123   1.350
  920SOL    HW2 3105   0.059   3.270   1.287
  921SOL     OW 3106   0.732   2.496   1.064
  921SOL    HW1 3107   0.791   2.470   0.988
  921SOL    HW2 3108   0.704   2.592   1.053
  922SOL     OW 3109   1.728   2.797   1.854
  922SOL    HW1 3110   1.682   2.790   1.765
  922SOL    HW2 3111   1.666   2.841   1.920
  923SOL     OW 3112   0.307   1.925   0.618
  923SOL    HW1 3113   0.296   2.019   0.651
  923SOL    HW2 3114   0.302   1.862   0.695
  924SOL     OW 3115   1.622   2.229   0.374
  924SOL    HW1 3116   1.624   2.153   0.438
  924SOL    HW2 3117   1.574   2.306   0.414
  925SOL     OW 3118   1.023   2.628   0.966
  925SOL    HW1 3119   1.038   2.649   1.062
  925SOL    HW2 3120   0.993   2.533   0.957
  926SOL     OW 3121   0.980   3.435   1.700
  926SOL    HW1 3122   0.960   3.479   1.612
  926SOL    HW2 3123   1.019   3.344   1.684
  927SOL     OW 3124   1.859   3.380   1.605
  927SOL    HW1 3125   1.873   3.407   1.510
  927SOL    HW2 3126   1.942   3.402   1.658
  928SOL     OW 3127   0.350   2.760   1.804
  928SOL    HW1 3128   0.426   2.804   1.852
  928SOL    HW2 3129   0.385   2.713   1.722
  929SOL     OW 3130   1.540   2.136   0.125
  929SOL    HW1 3131   1.479   2.061   0.148
  929SOL    HW2 3132   1.562   2.188   0.208
  930SOL     OW 3133   1.303   2.700   0.042
  930SOL    HW1 3134   1.337   2.607   0.057
  930SOL    HW2 3135   1.321   2.727  -0.053
  931SOL     OW 3136   1.068   3.195   0.849
  931SOL    HW1 3137   1.075   3.111   0.794
  931SOL    HW2 3138   1.130   3.264   0.813
  932SOL     OW 3139   0.319   2.672   0.949
  932SOL    HW1 3140   0.412   2.708   0.954
  932SOL    HW2 3141   0.313   2.587   1.001
  933SOL     OW 3142   0.339   2.371   1.006
  933SOL    HW1 3143   0.287   2.288   0.989
  933SOL    HW2 3144   0.416   2.376   0.942
  934SOL     OW 3145   1.138   2.242   1.678
  934SOL    HW1 3146   1.093   2.305   1.742
  934SOL    HW2 3147   1.231   2.273   1.661
  935SOL     OW 3148   1.160   2.069   1.477
  935SOL    HW1 3149   1.160   2.133   1.554
  935SOL    HW2 3150   1.188   2.117   1.394
  936SOL     OW 3151   0.008   3.188   0.200
  936SOL    HW1 3152  -0.085   3.209   0.169
  936SOL    HW2 3153   0.018   3.089   0.213
  937SOL     OW 3154   0.088   3.663   0.927
  937SOL    HW1 3155   0.046   3.577   0.900
  937SOL    HW2 3156   0.182   3.666   0.893
  938SOL     OW 3157   0.504   3.430   0.910
  938SOL    HW1 3158   0.570   3.504   0.919
  938SOL    HW2 3159   0.548   3.351   0.868
  939SOL     OW 3160   1.002   2.658   1.238
  939SOL    HW1 3161   1.043   2.626   1.324
  939SOL    HW2 3162   0.906   2.631   1.235
  940SOL     OW 3163   0.040   2.406   1.114
  940SOL    HW1 3164   0.125   2.373   1.073
  940SOL    HW2 3165   0.053   2.421   1.212
  941SOL     OW 3166   0.189   2.382   1.722
  941SOL    HW1 3167   0.248   2.342   1.652
  941SOL    HW2 3168   0.131   2.453   1.681
  942SOL     OW 3169   1.369   2.812   1.660
  942SOL    HW1 3170   1.408   2.901   1.680
  942SOL    HW2 3171   1.379   2.792   1.563
  943SOL     OW 3172   0.815   2.434   0.325
  943SOL    HW1 3173   0.822   2.345   0.279
  943SOL    HW2 3174   0.721   2.468   0.317
  944SOL     OW 3175   1.657   2.466   1.206
  944SOL    HW1 3176   1.619   2.397   1.268
  944SOL    HW2 3177   1.739   2.430   1.162
  945SOL     OW 3178   0.252   3.426   1.744
  945SOL    HW1 3179   0.222   3.483   1.820
  945SOL    HW2 3180   0.245   3.329   1.770
  946SOL     OW 3181   0.671   2.326   1.269
  946SOL    HW1 3182   0.637   2.237   1.239
  946SOL    HW2 3183   0.697   2.380   1.189
  947SOL     OW 3184   0.930   3.540   1.465
  947SOL    HW1 3185   0.906   3.522   1.370
  947SOL    HW2 3186   0.960   3.634   1.475
  948SOL     OW 3187   0.473   2.362   0.191
  948SOL    HW1 3188   0.534   2.442   0.195
  948SOL    HW2 3189   0.378   2.393   0.198
  949SOL     OW 3190   0.159   2.999   1.466
  949SOL    HW1 3191   0.181   2.938   1.542
  949SOL    HW2 3192   0.169   2.950   1.380
  950SOL     OW 3193   1.347   2.921   1.234
  950SOL    HW1 3194   1.371   2.858   1.160
  950SOL    HW2 3195   1.257   2.961   1.216
  951SOL     OW 3196   1.302   2.717   0.309
  951SOL    HW1 3197   1.216   2.686   0.351
  951SOL    HW2 3198   1.298   2.703   0.210
  952SOL     OW 3199   1.759   3.609   1.154
  952SOL    HW1 3200   1.820   3.639   1.081
  952SOL    HW2 3201   1.721   3.520   1.132
  953SOL     OW 3202   1.252   3.593   1.128
  953SOL    HW1 3203   1.336   3.598   1.074
  953SOL    HW2 3204   1.229   3.497   1.146
  954SOL     OW 3205   0.083   3.120   1.022
  954SOL    HW1 3206   0.078   3.119   1.122
  954SOL    HW2 3207   0.000   3.079   0.984
  955SOL     OW 3208   0.688   3.524   1.716
  955SOL    HW1 3209   0.632   3.605   1.725
  955SOL    HW2 3210   0.740   3.528   1.630
  956SOL     OW 3211   0.903   1.948   0.133
  956SOL    HW1 3212   0.954   1.949   0.047
  956SOL    HW2 3213   0.959   1.906   0.204
  957SOL     OW 3214   1.726   1.997   0.523
  957SOL    HW1 3215   1.799   1.980   0.456
  957SOL    HW2 3216   1.695   1.910   0.561
  958SOL     OW 3217   1.388   3.435   0.477
  958SOL    HW1 3218   1.455   3.447   0.403
  958SOL    HW2 3219   1.348   3.524   0.500
  959SOL     OW 3220   0.130   3.656   1.851
  959SOL    HW1 3221   0.089   3.582   1.904
  959SOL    HW2 3222   0.194   3.707   1.909
  960SOL     OW 3223   1.280   2.789   0.672
  960SOL    HW1 3224   1.340   2.708   0.674
  960SOL    HW2 3225   1.320   2.858   0.612
  961SOL     OW 3226   0.830   3.135   1.422
  961SOL    HW1 3227   0.825   3.168   1.517
  961SOL    HW2 3228   0.744   3.154   1.376
  962SOL     OW 3229   0.672   3.478   0.154
  962SOL    HW1 3230   0.681   3.488   0.055
  962SOL    HW2 3231   0.632   3.389   0.175
  963SOL     OW 3232   1.650   3.582   1.394
  963SOL    HW1 3233   1.703   3.592   1.310
  963SOL    HW2 3234   1.623   3.672   1.428
  964SOL     OW 3235   1.841   2.037   0.963
  964SOL    HW1 3236   1.880   1.952   0.927
  964SOL    HW2 3237   1.743   2.039   0.944
  965SOL     OW 3238   0.263   2.188   0.720
  965SOL    HW1 3239   0.184   2.239   0.686
  965SOL    HW2 3240   0.254   2.173   0.818
  966SOL     OW 3241   1.194   3.474   0.031
  966SOL    HW1 3242   1.200   3.381   0.068
  966SOL    HW2 3243   1.135   3.474  -0.049
  967SOL     OW 3244   0.822   2.864   1.372
  967SOL    HW1 3245   0.862   2.863   1.280
  967SOL    HW2 3246   0.832   2.956   1.412
  968SOL     OW 3247   0.916   2.772   0.291
  968SOL    HW1 3248   0.979   2.810   0.223
  968SOL    HW2 3249   0.956   2.689   0.330
  969SOL     OW 3250   1.504   3.469   0.044
  969SOL    HW1 3251   1.412   3.506   0.051
  969SOL    HW2 3252   1.542   3.489  -0.046
  970SOL     OW 3253   0.372   3.150   1.490
  970SOL    HW1 3254   0.359   3.243   1.456
  970SOL    HW2 3255   0.288   3.098   1.477
  971SOL     OW 3256   1.614   3.154   1.289
  971SOL    HW1 3257   1.674   3.157   1.369
  971SOL    HW2 3258   1.539   3.218   1.302
  972SOL     OW 3259   1.039   2.960   0.696
  972SOL    HW1 3260   0.969   2.913   0.750
  972SOL    HW2 3261   1.098   2.892   0.653
  973SOL     OW 3262   1.014   2.098   0.971
  973SOL    HW1 3263   1.006   2.062   0.878
  973SOL    HW2 3264   1.012   2.022   1.036
  974SOL     OW 3265   0.590   3.349   0.491
  974SOL    HW1 3266   0.632   3.291   0.421
  974SOL    HW2 3267   0.546   3.428   0.447
  975SOL     OW 3268   1.709   2.247   1.381
  975SOL    HW1 3269   1.782   2.316   1.385
  975SOL    HW2 3270   1.737   2.172   1.322
  976SOL     OW 3271   0.255   3.210   0.290
  976SOL    HW1 3272   0.159   3.211   0.263
  976SOL    HW2 3273   0.267   3.263   0.374
  977SOL     OW 3274   0.105   2.875   1.726
  977SOL    HW1 3275   0.028   2.842   1.780
  977SOL    HW2 3276   0.190   2.845   1.768
  978SOL     OW 3277   0.672   2.065   1.489
  978SOL    HW1 3278   0.762   2.049   1.449
  978SOL    HW2 3279   0.680   2.070   1.588
  979SOL     OW 3280   0.075   2.207   0.033
  979SOL    HW1 3281  -0.017   2.179   0.004
  979SOL    HW2 3282   0.106   2.284  -0.023
  980SOL     OW 3283   1.440   2.718   1.398
  980SOL    HW1 3284   1.383   2.770   1.335
  980SOL    HW2 3285   1.536   2.730   1.374
  981SOL     OW 3286   0.072   2.028   0.318
  981SOL    HW1 3287   0.055   2.111   0.264
  981SOL    HW2 3288   0.162   1.991   0.296
  982SOL     OW 3289   1.183   3.197   0.119
  982SOL    HW1 3290   1.084   3.186   0.121
  982SOL    HW2 3291   1.217   3.212   0.212
  983SOL     OW 3292   0.613   2.704   1.431
  983SOL    HW1 3293   0.669   2.785   1.414
  983SOL    HW2 3294   0.672   2.624   1.434
  984SOL     OW 3295   1.493   3.629   0.959
  984SOL    HW1 3296   1.526   3.693   0.890
  984SOL    HW2 3297   1.559   3.623   1.034
  985SOL     OW 3298   0.716   2.427   1.708
  985SOL    HW1 3299   0.735   2.492   1.782
  985SOL    HW2 3300   0.776   2.347   1.717
  986SOL     OW 3301   1.450   3.082   1.633
  986SOL    HW1 3302   1.441   3.072   1.732
  986SOL    HW2 3303   1.546   3.075   1.607
  987SOL     OW 3304   0.390   3.603   1.560
  987SOL    HW1 3305   0.299   3.644   1.558
  987SOL    HW2 3306   0.383   3.509   1.592
  988SOL     OW 3307   1.674   2.745   1.254
  988SOL    HW1 3308   1.647   2.656   1.217
  988SOL    HW2 3309   1.675   2.813   1.181
  989SOL     OW 3310   1.225   2.187   0.449
  989SOL    HW1 3311   1.290   2.113   0.438
  989SOL    HW2 3312   1.245   2.237   0.533
  990SOL     OW 3313   0.594   2.607   0.652
  990SOL    HW1 3314   0.644   2.692   0.633
  990SOL    HW2 3315   0.506   2.609   0.604
  991SOL     OW 3316   1.777   2.204   1.642
  991SOL    HW1 3317   1.760   2.235   1.548
  991SOL    HW2 3318   1.693   2.167   1.680
  992SOL     OW 3319   1.730   2.796   1.517
  992SOL    HW1 3320   1.768   2.887   1.532
  992SOL    HW2 3321   1.722   2.779   1.418
  993SOL     OW 3322   0.859   3.236   0.016
  993SOL    HW1 3323   0.813   3.251   0.104
  993SOL    HW2 3324   0.903   3.321  -0.014
  994SOL     OW 3325   0.661   3.652   0.953
  994SOL    HW1 3326   0.615   3.740   0.940
  994SOL    HW2 3327   0.760   3.664   0.946
  995SOL     OW 3328   0.859   2.818   0.861
  995SOL    HW1 3329   0.913   2.749   0.909
  995SOL    HW2 3330   0.827   2.887   0.927
  996SOL     OW 3331   1.083   2.846   0.087
  996SOL    HW1 3332   1.060   2.899   0.005
  996SOL    HW2 3333   1.164   2.790   0.068
  997SOL     OW 3334   1.861   3.431   0.851
  997SOL    HW1 3335   1.790   3.419   0.781
  997SOL    HW2 3336   1.862   3.352   0.911
  998SOL     OW 3337   0.221   3.176   1.844
  998SOL    HW1 3338   0.156   3.103   1.823
  998SOL    HW2 3339   0.225   3.190   1.942
  999SOL     OW 3340   0.079   3.102   0.653
  999SOL    HW1 3341   0.078   3.055   0.741
  999SOL    HW2 3342   0.161   3.074   0.602
 1000SOL     OW 3343   0.672   3.253   1.624
 1000SOL    HW1 3344   0.594   3.203   1.662
 1000SOL    HW2 3345   0.669   3.348   1.655
 1001SOL     OW 3346   1.824   2.054   1.227
 1001SOL    HW1 3347   1.820   1.964   1.271
 1001SOL    HW2 3348   1.827   2.043   1.128
 1002SOL     OW 3349   0.428   2.286   0.520
 1002SOL    HW1 3350   0.458   2.214   0.458
 1002SOL    HW2 3351   0.389   2.246   0.603
 1003SOL     OW 3352   1.705   3.349   1.104
 1003SOL    HW1 3353   1.612   3.324   1.077
 1003SOL    HW2 3354   1.731   3.299   1.186
 1004SOL     OW 3355   0.317   2.409   1.280
 1004SOL    HW1 3356   0.355   2.350   1.352
 1004SOL    HW2 3357   0.357   2.383   1.192
 1005SOL     OW 3358   0.812   3.448   0.687
 1005SOL    HW1 3359   0.844   3.458   0.593
 1005SOL    HW2 3360   0.733   3.386   0.689
 1006SOL     OW 3361   1.424   2.076   1.112
 1006SOL    HW1 3362   1.476   2.011   1.167
 1006SOL    HW2 3363   1.375   2.139   1.173
 1007SOL     OW 3364   1.001   1.896   1.154
 1007SOL    HW1 3365   0.938   1.824   1.123
 1007SOL    HW2 3366   1.094   1.860   1.154
 1008SOL     OW 3367   0.770   3.192   0.301
 1008SOL    HW1 3368   0.724   3.105   0.318
 1008SOL    HW2 3369   0.861   3.189   0.342
 1009SOL     OW 3370   0.618   3.429   1.284
 1009SOL    HW1 3371   0.613   3.511   1.341
 1009SOL    HW2 3372   0.707   3.426   1.239
 1010SOL     OW 3373   1.352   1.914   0.168
 1010SOL    HW1 3374   1.387   1.873   0.084
 1010SOL    HW2 3375   1.262   1.876   0.188
 1011SOL     OW 3376   1.300   2.315   0.691
 1011SOL    HW1 3377   1.241   2.395   0.695
 1011SOL    HW2 3378   1.315   2.280   0.784
 1012SOL     OW 3379   1.593   2.083   0.882
 1012SOL    HW1 3380   1.509   2.082   0.936
 1012SOL    HW2 3381   1.595   2.166   0.826
 1013SOL     OW 3382   0.039   2.939   0.300
 1013SOL    HW1 3383   0.138   2.928   0.291
 1013SOL    HW2 3384  -0.001   2.853   0.332
 1014SOL     OW 3385   0.875   3.508   0.337
 1014SOL    HW1 3386   0.798   3.473   0.283
 1014SOL    HW2 3387   0.843   3.579   0.399
 1015SOL     OW 3388   0.230   2.490   1.975
 1015SOL    HW1 3389   0.137   2.488   2.012
 1015SOL    HW2 3390   0.231   2.451   1.883
 1016SOL     OW 3391   0.225   2.137   2.858
 1016SOL    HW1 3392   0.260   2.120   2.950
 1016SOL    HW2 3393   0.137   2.092   2.846
 1017SOL     OW 3394   0.019   2.230   2.509
 1017SOL    HW1 3395  -0.063   2.273   2.548
 1017SOL    HW2 3396  -0.009   2.157   2.446
 1018SOL     OW 3397   0.569   3.137   3.027
 1018SOL    HW1 3398   0.476   3.130   2.990
 1018SOL    HW2 3399   0.580   3.226   3.071
 1019SOL     OW 3400   1.555   3.373   2.565
 1019SOL    HW1 3401   1.498   3.357   2.646
 1019SOL    HW2 3402   1.496   3.383   2.485
 1020SOL     OW 3403   1.135   2.565   2.579
 1020SOL    HW1 3404   1.192   2.643   2.554
 1020SOL    HW2 3405   1.075   2.591   2.655
 1021SOL     OW 3406   1.755   2.469   2.093
 1021SOL    HW1 3407   1.743   2.456   1.994
 1021SOL    HW2 3408   1.725   2.388   2.142
 1022SOL     OW 3409   0.768   3.006   2.885
 1022SOL    HW1 3410   0.690   3.023   2.945
 1022SOL    HW2 3411   0.802   3.093   2.849
 1023SOL     OW 3412   0.850   2.660   3.685
 1023SOL    HW1 3413   0.846   2.736   3.750
 1023SOL    HW2 3414   0.872   2.696   3.594
 1024SOL     OW 3415   0.685   2.874   2.527
 1024SOL    HW1 3416   0.754   2.858   2.597
 1024SOL    HW2 3417   0.612   2.931   2.565
 1025SOL     OW 3418   0.686   3.023   3.665
 1025SOL    HW1 3419   0.746   3.102   3.679
 1025SOL    HW2 3420   0.600   3.054   3.624
 1026SOL     OW 3421   0.335   3.297   2.923
 1026SOL    HW1 3422   0.257   3.266   2.870
 1026SOL    HW2 3423   0.393   3.355   2.866
 1027SOL     OW 3424   1.460   3.367   3.201
 1027SOL    HW1 3425   1.484   3.461   3.227
 1027SOL    HW2 3426   1.444   3.313   3.283
 1028SOL     OW 3427   0.438   2.254   3.361
 1028SOL    HW1 3428   0.520   2.198   3.370
 1028SOL    HW2 3429   0.357   2.196   3.365
 1029SOL     OW 3430   1.603   2.309   2.599
 1029SOL    HW1 3431   1.529   2.355   2.549
 1029SOL    HW2 3432   1.654   2.377   2.652
 1030SOL     OW 3433   0.231   3.575   2.345
 1030SOL    HW1 3434   0.265   3.652   2.399
 1030SOL    HW2 3435   0.275   3.575   2.255
 1031SOL     OW 3436   1.127   3.203   3.552
 1031SOL    HW1 3437   1.174   3.203   3.640
 1031SOL    HW2 3438   1.079   3.116   3.541
 1032SOL     OW 3439   0.230   3.296   2.400
 1032SOL    HW1 3440   0.204   3.392   2.400
 1032SOL    HW2 3441   0.159   3.242   2.445
 1033SOL     OW 3442   0.240   2.953   2.748
 1033SOL    HW1 3443   0.254   2.869   2.800
 1033SOL    HW2 3444   0.185   3.017   2.803
 1034SOL     OW 3445   0.620   3.648   3.301
 1034SOL    HW1 3446   0.528   3.631   3.336
 1034SOL    HW2 3447   0.648   3.740   3.327
 1035SOL     OW 3448   0.606   2.826   1.985
 1035SOL    HW1 3449   0.613   2.910   1.931
 1035SOL    HW2 3450   0.652   2.839   2.073
 1036SOL     OW 3451   1.594   1.976   3.342
 1036SOL    HW1 3452   1.576   2.043   3.270
 1036SOL    HW2 3453   1.591   2.022   3.431
 1037SOL     OW 3454   0.122   2.505   2.425
 1037SOL    HW1 3455   0.077   2.417   2.442
 1037SOL    HW2 3456   0.121   2.559   2.509
 1038SOL     OW 3457   1.842   3.629   2.221
 1038SOL    HW1 3458   1.896   3.600   2.301
 1038SOL    HW2 3459   1.872   3.719   2.192
 1039SOL     OW 3460   0.027   3.458   1.979
 1039SOL    HW1 3461   0.008   3.362   2.000
 1039SOL    HW2 3462  -0.006   3.516   2.054
 1040SOL     OW 3463   1.689   2.784   2.474
 1040SOL    HW1 3464   1.784   2.755   2.482
 1040SOL    HW2 3465   1.681   2.849   2.399
 1041SOL     OW 3466   1.641   2.970   2.294
 1041SOL    HW1 3467   1.727   2.972   2.242
 1041SOL    HW2 3468   1.655   3.017   2.382
 1042SOL     OW 3469   0.113   2.599   3.459
 1042SOL    HW1 3470   0.201   2.586   3.504
 1042SOL    HW2 3471   0.100   2.696   3.437
 1043SOL     OW 3472   0.613   3.227   2.588
 1043SOL    HW1 3473   0.564   3.140   2.597
 1043SOL    HW2 3474   0.590   3.270   2.501
 1044SOL     OW 3475   1.293   3.090   3.285
 1044SOL    HW1 3476   1.330   3.017   3.227
 1044SOL    HW2 3477   1.345   3.095   3.370
 1045SOL     OW 3478   0.809   1.866   2.364
 1045SOL    HW1 3479   0.849   1.957   2.355
 1045SOL    HW2 3480   0.709   1.874   2.370
 1046SOL     OW 3481   0.197   2.838   3.126
 1046SOL    HW1 3482   0.286   2.793   3.112
 1046SOL    HW2 3483   0.124   2.773   3.107
 1047SOL     OW 3484   1.525   2.861   2.052
 1047SOL    HW1 3485   1.462   2.785   2.065
 1047SOL    HW2 3486   1.573   2.879   2.138
 1048SOL     OW 3487   1.187   3.654   3.478
 1048SOL    HW1 3488   1.211   3.714   3.402
 1048SOL    HW2 3489   1.194   3.559   3.448
 1049SOL     OW 3490   0.317   2.113   3.663
 1049SOL    HW1 3491   0.388   2.184   3.669
 1049SOL    HW2 3492   0.229   2.152   3.691
 1050SOL     OW 3493   1.466   3.279   2.815
 1050SOL    HW1 3494   1.407   3.285   2.895
 1050SOL    HW2 3495   1.451   3.191   2.769
 1051SOL     OW 3496   1.667   3.576   2.434
 1051SOL    HW1 3497   1.626   3.553   2.346
 1051SOL    HW2 3498   1.649   3.502   2.499
 1052SOL     OW 3499   0.598   2.591   2.132
 1052SOL    HW1 3500   0.622   2.660   2.064
 1052SOL    HW2 3501   0.520   2.624   2.186
 1053SOL     OW 3502   1.281   2.207   2.806
 1053SOL    HW1 3503   1.195   2.157   2.793
 1053SOL    HW2 3504   1.343   2.153   2.862
 1054SOL     OW 3505   1.576   3.524   2.169
 1054SOL    HW1 3506   1.665   3.570   2.172
 1054SOL    HW2 3507   1.555   3.500   2.074
 1055SOL     OW 3508   0.807   2.467   3.327
 1055SOL    HW1 3509   0.760   2.464   3.416
 1055SOL    HW2 3510   0.756   2.412   3.261
 1056SOL     OW 3511   1.394   2.331   3.536
 1056SOL    HW1 3512   1.374   2.374   3.624
 1056SOL    HW2 3513   1.472   2.269   3.545
 1057SOL     OW 3514   0.973   2.752   3.434
 1057SOL    HW1 3515   1.019   2.668   3.405
 1057SOL    HW2 3516   0.917   2.786   3.359
 1058SOL     OW 3517   0.991   2.272   3.104
 1058SOL    HW1 3518   0.914   2.306   3.158
 1058SOL    HW2 3519   0.957   2.221   3.025
 1059SOL     OW 3520   1.041   2.563   2.291
 1059SOL    HW1 3521   1.067   2.559   2.387
 1059SOL    HW2 3522   0.956   2.512   2.277
 1060SOL     OW 3523   0.076   2.673   2.651
 1060SOL    HW1 3524   0.175   2.661   2.660
 1060SOL    HW2 3525   0.052   2.768   2.672
 1061SOL     OW 3526   0.130   3.683   3.433
 1061SOL    HW1 3527   0.120   3.668   3.532
 1061SOL    HW2 3528   0.044   3.719   3.397
 1062SOL     OW 3529   0.865   2.210   2.057
 1062SOL    HW1 3530   0.924   2.273   2.008
 1062SOL    HW2 3531   0.884   2.116   2.028
 1063SOL     OW 3532   1.719   2.447   3.693
 1063SOL    HW1 3533   1.693   2.536   3.657
 1063SOL    HW2 3534   1.717   2.379   3.620
 1064SOL     OW 3535   1.362   3.006   2.407
 1064SOL    HW1 3536   1.445   2.977   2.359
 1064SOL    HW2 3537   1.313   3.073   2.351
 1065SOL     OW 3538   0.550   2.058   2.747
 1065SOL    HW1 3539   0.545   2.053   2.847
 1065SOL    HW2 3540   0.552   2.154   2.718
 1066SOL     OW 3541   1.008   3.318   2.339
 1066SOL    HW1 3542   0.962   3.390   2.287
 1066SOL    HW2 3543   1.004   3.338   2.437
 1067SOL     OW 3544   0.351   3.663   2.715
 1067SOL    HW1 3545   0.401   3.577   2.721
 1067SOL    HW2 3546   0.416   3.740   2.712
 1068SOL     OW 3547   1.795   2.928   2.735
 1068SOL    HW1 3548   1.733   2.913   2.659
 1068SOL    HW2 3549   1.743   2.939   2.820
 1069SOL     OW 3550   1.227   3.412   3.368
 1069SOL    HW1 3551   1.233   3.335   3.432
 1069SOL    HW2 3552   1.175   3.386   3.288
 1070SOL     OW 3553   0.321   2.805   2.104
 1070SOL    HW1 3554   0.403   2.844   2.062
 1070SOL    HW2 3555   0.294   2.723   2.055
 1071SOL     OW 3556   1.458   2.597   2.590
 1071SOL    HW1 3557   1.453   2.532   2.665
 1071SOL    HW2 3558   1.538   2.656   2.603
 1072SOL     OW 3559   0.461   3.128   3.589
 1072SOL    HW1 3560   0.411   3.129   3.503
 1072SOL    HW2 3561   0.398   3.110   3.665
 1073SOL     OW 3562   1.111   3.638   2.099
 1073SOL    HW1 3563   1.051   3.576   2.149
 1073SOL    HW2 3564   1.142   3.594   2.014
 1074SOL     OW 3565   0.202   2.147   3.360
 1074SOL    HW1 3566   0.122   2.207   3.347
 1074SOL    HW2 3567   0.192   2.098   3.446
 1075SOL     OW 3568   1.632   3.239   1.943
 1075SOL    HW1 3569   1.600   3.333   1.933
 1075SOL    HW2 3570   1.556   3.176   1.931
 1076SOL     OW 3571   0.464   3.605   2.185
 1076SOL    HW1 3572   0.497   3.644   2.271
 1076SOL    HW2 3573   0.540   3.598   2.120
 1077SOL     OW 3574   1.400   1.969   2.288
 1077SOL    HW1 3575   1.376   1.932   2.198
 1077SOL    HW2 3576   1.499   1.985   2.292
 1078SOL     OW 3577   0.249   3.647   3.103
 1078SOL    HW1 3578   0.306   3.582   3.153
 1078SOL    HW2 3579   0.233   3.614   3.010
 1079SOL     OW 3580   0.940   3.560   2.766
 1079SOL    HW1 3581   1.020   3.503   2.787
 1079SOL    HW2 3582   0.891   3.520   2.689
 1080SOL     OW 3583   0.382   2.562   2.342
 1080SOL    HW1 3584   0.427   2.472   2.339
 1080SOL    HW2 3585   0.288   2.551   2.375
 1081SOL     OW 3586   1.547   2.084   3.591
 1081SOL    HW1 3587   1.542   2.121   3.683
 1081SOL    HW2 3588   1.475   2.015   3.579
 1082SOL     OW 3589   0.614   1.984   1.979
 1082SOL    HW1 3590   0.712   1.962   1.986
 1082SOL    HW2 3591   0.583   1.967   1.886
 1083SOL     OW 3592   0.781   2.126   3.611
 1083SOL    HW1 3593   0.848   2.065   3.654
 1083SOL    HW2 3594   0.708   2.145   3.676
 1084SOL     OW 3595   0.888   3.376   3.057
 1084SOL    HW1 3596   0.865   3.351   2.963
 1084SOL    HW2 3597   0.949   3.307   3.096
 1085SOL     OW 3598   1.351   2.452   3.295
 1085SOL    HW1 3599   1.379   2.409   3.380
 1085SOL    HW2 3600   1.376   2.548   3.296
 1086SOL     OW 3601   0.803   3.264   2.786
 1086SOL    HW1 3602   0.893   3.278   2.744
 1086SOL    HW2 3603   0.732   3.266   2.715
 1087SOL     OW 3604   0.922   2.365   2.761
 1087SOL    HW1 3605   0.897   2.356   2.665
 1087SOL    HW2 3606   0.970   2.283   2.792
 1088SOL     OW 3607   0.539   1.926   2.374
 1088SOL    HW1 3608   0.458   1.927   2.432
 1088SOL    HW2 3609   0.542   2.009   2.319
 1089SOL     OW 3610   1.434   3.050   1.903
 1089SOL    HW1 3611   1.466   2.974   1.960
 1089SOL    HW2 3612   1.342   3.077   1.933
 1090SOL     OW 3613   0.297   1.897   2.033
 1090SOL    HW1 3614   0.346   1.981   2.012
 1090SOL    HW2 3615   0.359   1.832   2.078
 1091SOL     OW 3616   0.935   2.098   2.342
 1091SOL    HW1 3617   0.887   2.139   2.264
 1091SOL    HW2 3618   1.034   2.096   2.323
 1092SOL     OW 3619   1.076   2.545   3.326
 1092SOL    HW1 3620   0.996   2.484   3.329
 1092SOL    HW2 3621   1.157   2.492   3.302
 1093SOL     OW 3622   1.227   3.432   2.655
 1093SOL    HW1 3623   1.248   3.506   2.590
 1093SOL    HW2 3624   1.295   3.432   2.728
 1094SOL     OW 3625   0.459   3.014   2.603
 1094SOL    HW1 3626   0.388   2.987   2.668
 1094SOL    HW2 3627   0.433   2.986   2.510
 1095SOL     OW 3628   1.271   3.659   2.453
 1095SOL    HW1 3629   1.315   3.723   2.389
 1095SOL    HW2 3630   1.221   3.711   2.523
 1096SOL     OW 3631   1.032   2.411   1.878
 1096SOL    HW1 3632   0.991   2.493   1.839
 1096SOL    HW2 3633   1.096   2.437   1.951
 1097SOL     OW 3634   0.078   2.418   3.248
 1097SOL    HW1 3635   0.170   2.417   3.207
 1097SOL    HW2 3636   0.072   2.492   3.315
 1098SOL     OW 3637   0.561   2.084   3.009
 1098SOL    HW1 3638   0.599   2.000   3.046
 1098SOL    HW2 3639   0.473   2.103   3.053
 1099SOL     OW 3640   0.866   2.316   2.504
 1099SOL    HW1 3641   0.834   2.388   2.442
 1099SOL    HW2 3642   0.890   2.235   2.451
 1100SOL     OW 3643   1.017   1.901   2.615
 1100SOL    HW1 3644   0.945   1.906   2.546
 1100SOL    HW2 3645   0.993   1.832   2.684
 1101SOL     OW 3646   1.429   3.035   2.729
 1101SOL    HW1 3647   1.374   2.951   2.722
 1101SOL    HW2 3648   1.455   3.064   2.637
 1102SOL     OW 3649   1.466   2.452   2.854
 1102SOL    HW1 3650   1.436   2.357   2.861
 1102SOL    HW2 3651   1.539   2.468   2.920
 1103SOL     OW 3652   1.857   2.695   2.239
 1103SOL    HW1 3653   1.899   2.631   2.303
 1103SOL    HW2 3654   1.819   2.644   2.161
 1104SOL     OW 3655   0.488   3.247   2.036
 1104SOL    HW1 3656   0.401   3.232   2.083
 1104SOL    HW2 3657   0.471   3.273   1.941
 1105SOL     OW 3658   1.664   3.142   2.519
 1105SOL    HW1 3659   1.763   3.150   2.533
 1105SOL    HW2 3660   1.619   3.226   2.550
 1106SOL     OW 3661   1.390   2.437   1.940
 1106SOL    HW1 3662   1.336   2.416   2.021
 1106SOL    HW2 3663   1.481   2.396   1.949
 1107SOL     OW 3664   0.527   2.118   2.190
 1107SOL    HW1 3665   0.554   2.059   2.115
 1107SOL    HW2 3666   0.527   2.213   2.159
 1108SOL     OW 3667   1.754   3.085   3.450
 1108SOL    HW1 3668   1.845   3.046   3.437
 1108SOL    HW2 3669   1.762   3.181   3.474
 1109SOL     OW 3670   1.064   3.209   3.202
 1109SOL    HW1 3671   0.984   3.186   3.257
 1109SOL    HW2 3672   1.147   3.183   3.251
 1110SOL     OW 3673   1.592   3.491   3.487
 1110SOL    HW1 3674   1.619   3.525   3.397
 1110SOL    HW2 3675   1.671   3.453   3.533
 1111SOL     OW 3676   1.111   3.057   2.962
 1111SOL    HW1 3677   1.071   3.101   3.043
 1111SOL    HW2 3678   1.070   3.094   2.879
 1112SOL     OW 3679   1.638   2.961   2.941
 1112SOL    HW1 3680   1.643   3.042   3.000
 1112SOL    HW2 3681   1.552   2.963   2.890
 1113SOL     OW 3682   0.915   1.951   3.264
 1113SOL    HW1 3683   0.940   1.931   3.169
 1113SOL    HW2 3684   0.987   2.007   3.306
 1114SOL     OW 3685   0.980   2.978   3.581
 1114SOL    HW1 3686   0.881   2.984   3.591
 1114SOL    HW2 3687   1.003   2.898   3.525
 1115SOL     OW 3688   0.705   2.912   2.230
 1115SOL    HW1 3689   0.691   2.919   2.329
 1115SOL    HW2 3690   0.789   2.861   2.212
 1116SOL     OW 3691   0.410   2.675   3.113
 1116SOL    HW1 3692   0.496   2.687   3.163
 1116SOL    HW2 3693   0.368   2.588   3.140
 1117SOL     OW 3694   1.274   2.248   3.124
 1117SOL    HW1 3695   1.295   2.322   3.188
 1117SOL    HW2 3696   1.185   2.265   3.081
 1118SOL     OW 3697   0.064   3.426   3.193
 1118SOL    HW1 3698   0.018   3.508   3.159
 1118SOL    HW2 3699   0.162   3.445   3.202
 1119SOL     OW 3700   0.367   2.962   2.363
 1119SOL    HW1 3701   0.360   3.045   2.307
 1119SOL    HW2 3702   0.371   2.882   2.303
 1120SOL     OW 3703   0.566   2.399   2.727
 1120SOL    HW1 3704   0.578   2.465   2.653
 1120SOL    HW2 3705   0.612   2.433   2.810
 1121SOL     OW 3706   1.252   3.210   2.250
 1121SOL    HW1 3707   1.302   3.287   2.290
 1121SOL    HW2 3708   1.157   3.212   2.282
 1122SOL     OW 3709   1.272   3.307   3.004
 1122SOL    HW1 3710   1.319   3.320   3.091
 1122SOL    HW2 3711   1.206   3.233   3.013
 1123SOL     OW 3712   1.582   2.501   2.334
 1123SOL    HW1 3713   1.551   2.562   2.407
 1123SOL    HW2 3714   1.632   2.553   2.265
 1124SOL     OW 3715   0.354   3.372   3.191
 1124SOL    HW1 3716   0.333   3.328   3.104
 1124SOL    HW2 3717   0.451   3.398   3.194
 1125SOL     OW 3718   0.402   2.613   3.460
 1125SOL    HW1 3719   0.470   2.668   3.413
 1125SOL    HW2 3720   0.442   2.525   3.487
 1126SOL     OW 3721   1.587   2.641   3.532
 1126SOL    HW1 3722   1.495   2.679   3.527
 1126SOL    HW2 3723   1.647   2.688   3.467
 1127SOL     OW 3724   1.013   1.967   3.632
 1127SOL    HW1 3725   1.019   2.052   3.580
 1127SOL    HW2 3726   1.045   1.891   3.575
 1128SOL     OW 3727   0.504   1.912   3.602
 1128SOL    HW1 3728   0.462   1.855   3.532
 1128SOL    HW2 3729   0.438   1.981   3.634
 1129SOL     OW 3730   0.573   2.732   2.891
 1129SOL    HW1 3731   0.617   2.821   2.882
 1129SOL    HW2 3732   0.510   2.732   2.968
 1130SOL     OW 3733   1.360   2.724   2.907
 1130SOL    HW1 3734   1.285   2.724   2.841
 1130SOL    HW2 3735   1.397   2.632   2.916
 1131SOL     OW 3736   1.209   2.387   2.137
 1131SOL    HW1 3737   1.222   2.303   2.191
 1131SOL    HW2 3738   1.180   2.461   2.197
 1132SOL     OW 3739   0.307   2.075   3.093
 1132SOL    HW1 3740   0.284   2.112   3.183
 1132SOL    HW2 3741   0.277   1.980   3.087
 1133SOL     OW 3742   0.037   3.172   3.144
 1133SOL    HW1 3743   0.090   3.123   3.212
 1133SOL    HW2 3744   0.059   3.270   3.149
 1134SOL     OW 3745   0.732   2.496   2.926
 1134SOL    HW1 3746   0.791   2.470   2.850
 1134SOL    HW2 3747   0.704   2.592   2.915
 1135SOL     OW 3748   1.728   2.797   3.716
 1135SOL    HW1 3749   1.682   2.790   3.627
 1135SOL    HW2 3750   1.666   2.841   3.782
 1136SOL     OW 3751   0.307   1.925   2.480
 1136SOL    HW1 3752   0.296   2.019   2.513
 1136SOL    HW2 3753   0.302   1.862   2.557
 1137SOL     OW 3754   1.622   2.229   2.236
 1137SOL    HW1 3755   1.624   2.153   2.300
 1137SOL    HW2 3756   1.574   2.306   2.276
 1138SOL     OW 3757   1.023   2.628   2.828
 1138SOL    HW1 3758   1.038   2.649   2.924
 1138SOL    HW2 3759   0.993   2.533   2.819
 1139SOL     OW 3760   0.980   3.435   3.562
 1139SOL    HW1 3761   0.960   3.479   3.474
 1139SOL    HW2 3762   1.019   3.344   3.546
 1140SOL     OW 3763   1.859   3.380   3.467
 1140SOL    HW1 3764   1.873   3.407   3.372
 1140SOL    HW2 3765   1.942   3.402   3.520
 1141SOL     OW 3766   0.350   2.760   3.666
 1141SOL    HW1 3767   0.426   2.804   3.714
 1141SOL    HW2 3768   0.385   2.713   3.584
 1142SOL     OW 3769   1.540   2.136   1.987
 1142SOL    HW1 3770   1.479   2.061   2.010
 1142SOL    HW2 3771   1.562   2.188   2.070
 1143SOL     OW 3772   1.303   2.700   1.904
 1143SOL    HW1 3773   1.337   2.607   1.919
 1143SOL    HW2 3774   1.321   2.727   1.809
 1144SOL     OW 3775   1.068   3.195   2.711
 1144SOL    HW1 3776   1.075   3.111   2.656
 1144SOL    HW2 3777   1.130   3.264   2.675
 1145SOL     OW 3778   0.319   2.672   2.811
 1145SOL    HW1 3779   0.412   2.708   2.816
 1145SOL    HW2 3780   0.313   2.587   2.863
 1146SOL     OW 3781   0.339   2.371   2.868
 1146SOL    HW1 3782   0.287   2.288   2.851
 1146SOL    HW2 3783   0.416   2.376   2.804
 1147SOL     OW 3784   1.138   2.242   3.540
 1147SOL    HW1 3785   1.093   2.305   3.604
 1147SOL    HW2 3786   1.231   2.273   3.523
 1148SOL     OW 3787   1.160   2.069   3.339
 1148SOL    HW1 3788   1.160   2.133   3.416
 1148SOL    HW2 3789   1.188   2.117   3.256
 1149SOL     OW 3790   0.008   3.188   2.062
 1149SOL    HW1 3791  -0.085   3.209   2.031
 1149SOL    HW2 3792   0.018   3.089   2.075
 1150SOL     OW 3793   0.088   3.663   2.789
 1150SOL    HW1 3794   0.046   3.577   2.762
 1150SOL    HW2 3795   0.182   3.666   2.755
 1151SOL     OW 3796   0.504   3.430   2.772
 1151SOL    HW1 3797   0.570   3.504   2.781
 1151SOL    HW2 3798   0.548   3.351   2.730
 1152SOL     OW 3799   1.002   2.658   3.100
 1152SOL    HW1 3800   1.043   2.626   3.186
 1152SOL    HW2 3801   0.906   2.631   3.097
 1153SOL     OW 3802   0.040   2.406   2.976
 1153SOL    HW1 3803   0.125   2.373   2.935
 1153SOL    HW2 3804   0.053   2.421   3.074
 1154SOL     OW 3805   0.189   2.382   3.584
 1154SOL    HW1 3806   0.248   2.342   3.514
 1154SOL    HW2 3807   0.131   2.453   3.543
 1155SOL     OW 3808   1.369   2.812   3.522
 1155SOL    HW1 3809   1.408   2.901   3.542
 1155SOL    HW2 3810   1.379   2.792   3.425
 1156SOL     OW 3811   0.815   2.434   2.187
 1156SOL    HW1 3812   0.822   2.345   2.141
 1156SOL    HW2 3813   0.721   2.468   2.179
 1157SOL     OW 3814   1.657   2.466   3.068
 1157SOL    HW1 3815   1.619   2.397   3.130
 1157SOL    HW2 3816   1.739   2.430   3.024
 1158SOL     OW 3817   0.252   3.426   3.606
 1158SOL    HW1 3818   0.222   3.483   3.682
 1158SOL    HW2 3819   0.245   3.329   3.632
 1159SOL     OW 3820   0.671   2.326   3.131
 1159SOL    HW1 3821   0.637   2.237   3.101
 1159SOL    HW2 3822   0.697   2.380   3.051
 1160SOL     OW 3823   0.930   3.540   3.327
 1160SOL    HW1 3824   0.906   3.522   3.232
 1160SOL    HW2 3825   0.960   3.634   3.337
 1161SOL     OW 3826   0.473   2.362   2.053
 1161SOL    HW1 3827   0.534   2.442   2.057
 1161SOL    HW2 3828   0.378   2.393   2.060
 1162SOL     OW 3829   0.159   2.999   3.328
 1162SOL    HW1 3830   0.181   2.938   3.404
 1162SOL    HW2 3831   0.169   2.950   3.242
 1163SOL     OW 3832   1.347   2.921   3.096
 1163SOL    HW1 3833   1.371   2.858   3.022
 1163SOL    HW2 3834   1.257   2.961   3.078
 1164SOL     OW 3835   1.302   2.717   2.171
 1164SOL    HW1 3836   1.216   2.686   2.213
 1164SOL    HW2 3837   1.298   2.703   2.072
 1165SOL     OW 3838   1.759   3.609   3.016
 1165SOL    HW1 3839   1.820   3.639   2.943
 1165SOL    HW2 3840   1.721   3.520   2.994
 1166SOL     OW 3841   1.252   3.593   2.990
 1166SOL    HW1 3842   1.336   3.598   2.936
 1166SOL    HW2 3843   1.229   3.497   3.008
 1167SOL     OW 3844   0.083   3.120   2.884
 1167SOL    HW1 3845   0.078   3.119   2.984
 1167SOL    HW2 3846   0.000   3.079   2.846
 1168SOL     OW 3847   0.688   3.524   3.578
 1168SOL    HW1 3848   0.632   3.605   3.587
 1168SOL    HW2 3849   0.740   3.528   3.492
 1169SOL     OW 3850   1.726   1.997   2.385
 1169SOL    HW1 3851   1.799   1.980   2.318
 1169SOL    HW2 3852   1.695   1.910   2.423
 1170SOL     OW 3853   1.388   3.435   2.339
 1170SOL    HW1 3854   1.455   3.447   2.265
 1170SOL    HW2 3855   1.348   3.524   2.362
 1171SOL     OW 3856   0.130   3.656   3.713
 1171SOL    HW1 3857   0.089   3.582   3.766
 1171SOL    HW2 3858   0.194   3.707   3.771
 1172SOL     OW 3859   1.280   2.789   2.534
 1172SOL    HW1 3860   1.340   2.708   2.536
 1172SOL    HW2 3861   1.320   2.858   2.474
 1173SOL     OW 3862   0.830   3.135   3.284
 1173SOL    HW1 3863   0.825   3.168   3.379
 1173SOL    HW2 3864   0.744   3.154   3.238
 1174SOL     OW 3865   0.672   3.478   2.016
 1174SOL    HW1 3866   0.681   3.488   1.917
 1174SOL    HW2 3867   0.632   3.389   2.037
 1175SOL     OW 3868   1.650   3.582   3.256
 1175SOL    HW1 3869   1.703   3.592   3.172
 1175SOL    HW2 3870   1.623   3.672   3.290
 1176SOL     OW 3871   1.841   2.037   2.825
 1176SOL    HW1 3872   1.880   1.952   2.789
 1176SOL    HW2 3873   1.743   2.039   2.806
 1177SOL     OW 3874   0.263   2.188   2.582
 1177SOL    HW1 3875   0.184   2.239   2.548
 1177SOL    HW2 3876   0.254   2.173   2.680
 1178SOL     OW 3877   1.194   3.474   1.893
 1178SOL    HW1 3878   1.200   3.381   1.930
 1178SOL    HW2 3879   1.135   3.474   1.813
 1179SOL     OW 3880   0.822   2.864   3.234
 1179SOL    HW1 3881   0.862   2.863   3.142
 1179SOL    HW2 3882   0.832   2.956   3.274
 1180SOL     OW 3883   0.916   2.772   2.153
 1180SOL    HW1 3884   0.979   2.810   2.085
 1180SOL    HW2 3885   0.956   2.689   2.192
 1181SOL     OW 3886   1.504   3.469   1.906
 1181SOL    HW1 3887   1.412   3.506   1.913
 1181SOL    HW2 3888   1.542   3.489   1.816
 1182SOL     OW 3889   0.372   3.150   3.352
 1182SOL    HW1 3890   0.359   3.243   3.318
 1182SOL    HW2 3891   0.288   3.098   3.339
 1183SOL     OW 3892   1.614   3.154   3.151
 1183SOL    HW1 3893   1.674   3.157   3.231
 1183SOL    HW2 3894   1.539   3.218   3.164
 1184SOL     OW 3895   1.039   2.960   2.558
 1184SOL    HW1 3896   0.969   2.913   2.612
 1184SOL    HW2 3897   1.098   2.892   2.515
 1185SOL     OW 3898   1.014   2.098   2.833
 1185SOL    HW1 3899   1.006   2.062   2.740
 1185SOL    HW2 3900   1.012   2.022   2.898
 1186SOL     OW 3901   0.590   3.349   2.353
 1186SOL    HW1 3902   0.632   3.291   2.283
 1186SOL    HW2 3903   0.546   3.428   2.309
 1187SOL     OW 3904   1.709   2.247   3.243
 1187SOL    HW1 3905   1.782   2.316   3.247
 1187SOL    HW2 3906   1.737   2.172   3.184
 1188SOL     OW 3907   0.255   3.210   2.152
 1188SOL    HW1 3908   0.159   3.211   2.125
 1188SOL    HW2 3909   0.267   3.263   2.236
 1189SOL     OW 3910   0.105   2.875   3.588
 1189SOL    HW1 3911   0.028   2.842   3.642
 1189SOL    HW2 3912   0.190   2.845   3.630
 1190SOL     OW 3913   0.672   2.065   3.351
 1190SOL    HW1 3914   0.762   2.049   3.311
 1190SOL    HW2 3915   0.680   2.070   3.450
 1191SOL     OW 3916   0.075   2.207   1.895
 1191SOL    HW1 3917  -0.017   2.179   1.866
 1191SOL    HW2 3918   0.106   2.284   1.839
 1192SOL     OW 3919   1.440   2.718   3.260
 1192SOL    HW1 3920   1.383   2.770   3.197
 1192SOL    HW2 3921   1.536   2.730   3.236
 1193SOL     OW 3922   0.072   2.028   2.180
 1193SOL    HW1 3923   0.055   2.111   2.126
 1193SOL    HW2 3924   0.162   1.991   2.158
 1194SOL     OW 3925   1.183   3.197   1.981
 1194SOL    HW1 3926   1.084   3.186   1.983
 1194SOL    HW2 3927   1.217   3.212   2.074
 1195SOL     OW 3928   0.613   2.704   3.293
 1195SOL    HW1 3929   0.669   2.785   3.276
 1195SOL    HW2 3930   0.672   2.624   3.296
 1196SOL     OW 3931   1.493   3.629   2.821
 1196SOL    HW1 3932   1.526   3.693   2.752
 1196SOL    HW2 3933   1.559   3.623   2.896
 1197SOL     OW 3934   0.716   2.427   3.570
 1197SOL    HW1 3935   0.735   2.492   3.644
 1197SOL    HW2 3936   0.776   2.347   3.579
 1198SOL     OW 3937   1.450   3.082   3.495
 1198SOL    HW1 3938   1.441   3.072   3.594
 1198SOL    HW2 3939   1.546   3.075   3.469
 1199SOL     OW 3940   0.390   3.603   3.422
 1199SOL    HW1 3941   0.299   3.644   3.420
 1199SOL    HW2 3942   0.383   3.509   3.454
 1200SOL     OW 3943   1.674   2.745   3.116
 1200SOL    HW1 3944   1.647   2.656   3.079
 1200SOL    HW2 3945   1.675   2.813   3.043
 1201SOL     OW 3946   1.225   2.187   2.311
 1201SOL    HW1 3947   1.290   2.113   2.300
 1201SOL    HW2 3948   1.245   2.237   2.395
 1202SOL     OW 3949   0.594   2.607   2.514
 1202SOL    HW1 3950   0.644   2.692   2.495
 1202SOL    HW2 3951   0.506   2.609   2.466
 1203SOL     OW 3952   1.777   2.204   3.504
 1203SOL    HW1 3953   1.760   2.235   3.410
 1203SOL    HW2 3954   1.693   2.167   3.542
 1204SOL     OW 3955   1.730   2.796   3.379
 1204SOL    HW1 3956   1.768   2.887   3.394
 1204SOL    HW2 3957   1.722   2.779   3.280
 1205SOL     OW 3958   0.859   3.236   1.878
 1205SOL    HW1 3959   0.813   3.251   1.966
 1205SOL    HW2 3960   0.903   3.321   1.848
 1206SOL     OW 3961   0.661   3.652   2.815
 1206SOL    HW1 3962   0.615   3.740   2.802
 1206SOL    HW2 3963   0.760   3.664   2.808
 1207SOL     OW 3964   0.859   2.818   2.723
 1207SOL    HW1 3965   0.913   2.749   2.771
 1207SOL    HW2 3966   0.827   2.887   2.789
 1208SOL     OW 3967   1.083   2.846   1.949
 1208SOL    HW1 3968   1.060   2.899   1.867
 1208SOL    HW2 3969   1.164   2.790   1.930
 1209SOL     OW 3970   1.861   3.431   2.713
 1209SOL    HW1 3971   1.790   3.419   2.643
 1209SOL    HW2 3972   1.862   3.352   2.773
 1210SOL     OW 3973   0.221   3.176   3.706
 1210SOL    HW1 3974   0.156   3.103   3.685
 1210SOL    HW2 3975   0.225   3.190   3.804
 1211SOL     OW 3976   0.079   3.102   2.515
 1211SOL    HW1 3977   0.078   3.055   2.603
 1211SOL    HW2 3978   0.161   3.074   2.464
 1212SOL     OW 3979   0.672   3.253   3.486
 1212SOL    HW1 3980   0.594   3.203   3.524
 1212SOL    HW2 3981   0.669   3.348   3.517
 1213SOL     OW 3982   1.824   2.054   3.089
 1213SOL    HW1 3983   1.820   1.964   3.133
 1213SOL    HW2 3984   1.827   2.043   2.990
 1214SOL     OW 3985   0.428   2.286   2.382
 1214SOL    HW1 3986   0.458   2.214   2.320
 1214SOL    HW2 3987   0.389   2.246   2.465
 1215SOL     OW 3988   1.705   3.349   2.966
 1215SOL    HW1 3989   1.612   3.324   2.939
 1215SOL    HW2 3990   1.731   3.299   3.048
 1216SOL     OW 3991   0.317   2.409   3.142
 1216SOL    HW1 3992   0.355   2.350   3.214
 1216SOL    HW2 3993   0.357   2.383   3.054
 1217SOL     OW 3994   0.812   3.448   2.549
 1217SOL    HW1 3995   0.844   3.458   2.455
 1217SOL    HW2 3996   0.733   3.386   2.551
 1218SOL     OW 3997   1.424   2.076   2.974
 1218SOL    HW1 3998   1.476   2.011   3.029
 1218SOL    HW2 3999   1.375   2.139   3.035
 1219SOL     OW 4000   1.001   1.896   3.016
 1219SOL    HW1 4001   0.938   1.824   2.985
 1219SOL    HW2 4002   1.094   1.860   3.016
 1220SOL     OW 4003   0.770   3.192   2.163
 1220SOL    HW1 4004   0.724   3.105   2.180
 1220SOL    HW2 4005   0.861   3.189   2.204
 1221SOL     OW 4006   0.618   3.429   3.146
 1221SOL    HW1 4007   0.613   3.511   3.203
 1221SOL    HW2 4008   0.707   3.426   3.101
 1222SOL     OW 4009   1.352   1.914   2.030
 1222SOL    HW1 4010   1.387   1.873   1.946
 1222SOL    HW2 4011   1.262   1.876   2.050
 1223SOL     OW 4012   1.300   2.315   2.553
 1223SOL    HW1 4013   1.241   2.395   2.557
 1223SOL    HW2 4014   1.315   2.280   2.646
 1224SOL     OW 4015   1.593   2.083   2.744
 1224SOL    HW1 4016   1.509   2.082   2.798
 1224SOL    HW2 4017   1.595   2.166   2.688
 1225SOL     OW 4018   0.039   2.939   2.162
 1225SOL    HW1 4019   0.138   2.928   2.153
 1225SOL    HW2 4020  -0.001   2.853   2.194
 1226SOL     OW 4021   0.875   3.508   2.199
 1226SOL    HW1 4022   0.798   3.473   2.145
 1226SOL    HW2 4023   0.843   3.579   2.261
 1227SOL     OW 4024   0.230   2.490   3.837
 1227SOL    HW1 4025   0.137   2.488   3.874
 1227SOL    HW2 4026   0.231   2.451   3.745
 1228SOL     OW 4027   0.225   2.137   4.720
 1228SOL    HW1 4028   0.260   2.120   4.812
 1228SOL    HW2 4029   0.137   2.092   4.708
 1229SOL     OW 4030   0.019   2.230   4.371
 1229SOL    HW1 4031  -0.063   2.273   4.410
 1229SOL    HW2 4032  -0.009   2.157   4.308
 1230SOL     OW 4033   0.569   3.137   4.889
 1230SOL    HW1 4034   0.476   3.130   4.852
 1230SOL    HW2 4035   0.580   3.226   4.933
 1231SOL     OW 4036   1.555   3.373   4.427
 1231SOL    HW1 4037   1.498   3.357   4.508
 1231SOL    HW2 4038   1.496   3.383   4.347
 1232SOL     OW 4039   1.135   2.565   4.441
 1232SOL    HW1 4040   1.192   2.643   4.416
 1232SOL    HW2 4041   1.075   2.591   4.517
 1233SOL     OW 4042   1.755   2.469   3.955
 1233SOL    HW1 4043   1.743   2.456   3.856
 1233SOL    HW2 4044   1.725   2.388   4.004
 1234SOL     OW 4045   0.768   3.006   4.747
 1234SOL    HW1 4046   0.690   3.023   4.807
 1234SOL    HW2 4047   0.802   3.093   4.711
 1235SOL     OW 4048   0.850   2.660   5.547
 1235SOL    HW1 4049   0.846   2.736   5.612
 1235SOL    HW2 4050   0.872   2.696   5.456
 1236SOL     OW 4051   0.685   2.874   4.389
 1236SOL    HW1 4052   0.754   2.858   4.459
 1236SOL    HW2 4053   0.612   2.931   4.427
 1237SOL     OW 4054   0.686   3.023   5.527
 1237SOL    HW1 4055   0.746   3.102   5.541
 1237SOL    HW2 4056   0.600   3.054   5.486
 1238SOL     OW 4057   0.335   3.297   4.785
 1238SOL    HW1 4058   0.257   3.266   4.732
 1238SOL    HW2 4059   0.393   3.355   4.728
 1239SOL     OW 4060   1.460   3.367   5.063
 1239SOL    HW1 4061   1.484   3.461   5.089
 1239SOL    HW2 4062   1.444   3.313   5.145
 1240SOL     OW 4063   0.438   2.254   5.223
 1240SOL    HW1 4064   0.520   2.198   5.232
 1240SOL    HW2 4065   0.357   2.196   5.227
 1241SOL     OW 4066   1.603   2.309   4.461
 1241SOL    HW1 4067   1.529   2.355   4.411
 1241SOL    HW2 4068   1.654   2.377   4.514
 1242SOL     OW 4069   0.231   3.575   4.207
 1242SOL    HW1 4070   0.265   3.652   4.261
 1242SOL    HW2 4071   0.275   3.575   4.117
 1243SOL     OW 4072   1.127   3.203   5.414
 1243SOL    HW1 4073   1.174   3.203   5.502
 1243SOL    HW2 4074   1.079   3.116   5.403
 1244SOL     OW 4075   0.230   3.296   4.262
 1244SOL    HW1 4076   0.204   3.392   4.262
 1244SOL    HW2 4077   0.159   3.242   4.307
 1245SOL     OW 4078   0.240   2.953   4.610
 1245SOL    HW1 4079   0.254   2.869   4.662
 1245SOL    HW2 4080   0.185   3.017   4.665
 1246SOL     OW 4081   0.620   3.648   5.163
 1246SOL    HW1 4082   0.528   3.631   5.198
 1246SOL    HW2 4083   0.648   3.740   5.189
 1247SOL     OW 4084   0.606   2.826   3.847
 1247SOL    HW1 4085   0.613   2.910   3.793
 1247SOL    HW2 4086   0.652   2.839   3.935
 1248SOL     OW 4087   1.594   1.976   5.204
 1248SOL    HW1 4088   1.576   2.043   5.132
 1248SOL    HW2 4089   1.591   2.022   5.293
 1249SOL     OW 4090   0.122   2.505   4.287
 1249SOL    HW1 4091   0.077   2.417   4.304
 1249SOL    HW2 4092   0.121   2.559   4.371
 1250SOL     OW 4093   1.842   3.629   4.083
 1250SOL    HW1 4094   1.896   3.600   4.163
 1250SOL    HW2 4095   1.872   3.719   4.054
 1251SOL     OW 4096   0.027   3.458   3.841
 1251SOL    HW1 4097   0.008   3.362   3.862
 1251SOL    HW2 4098  -0.006   3.516   3.916
 1252SOL     OW 4099   1.689   2.784   4.336
 1252SOL    HW1 4100   1.784   2.755   4.344
 1252SOL    HW2 4101   1.681   2.849   4.261
 1253SOL     OW 4102   1.641   2.970   4.156
 1253SOL    HW1 4103   1.727   2.972   4.104
 1253SOL    HW2 4104   1.655   3.017   4.244
 1254SOL     OW 4105   0.113   2.599   5.321
 1254SOL    HW1 4106   0.201   2.586   5.366
 1254SOL    HW2 4107   0.100   2.696   5.299
 1255SOL     OW 4108   0.613   3.227   4.450
 1255SOL    HW1 4109   0.564   3.140   4.459
 1255SOL    HW2 4110   0.590   3.270   4.363
 1256SOL     OW 4111   1.293   3.090   5.147
 1256SOL    HW1 4112   1.330   3.017   5.089
 1256SOL    HW2 4113   1.345   3.095   5.232
 1257SOL     OW 4114   0.809   1.866   4.226
 1257SOL    HW1 4115   0.849   1.957   4.217
 1257SOL    HW2 4116   0.709   1.874   4.232
 1258SOL     OW 4117   0.197   2.838   4.988
 1258SOL    HW1 4118   0.286   2.793   4.974
 1258SOL    HW2 4119   0.124   2.773   4.969
 1259SOL     OW 4120   1.525   2.861   3.914
 1259SOL    HW1 4121   1.462   2.785   3.927
 1259SOL    HW2 4122   1.573   2.879   4.000
 1260SOL     OW 4123   1.187   3.654   5.340
 1260SOL    HW1 4124   1.211   3.714   5.264
 1260SOL    HW2 4125   1.194   3.559   5.310
 1261SOL     OW 4126   0.317   2.113   5.525
 1261SOL    HW1 4127   0.388   2.184   5.531
 1261SOL    HW2 4128   0.229   2.152   5.553
 1262SOL     OW 4129   1.466   3.279   4.677
 1262SOL    HW1 4130   1.407   3.285   4.757
 1262SOL    HW2 4131   1.451   3.191   4.631
 1263SOL     OW 4132   1.667   3.576   4.296
 1263SOL    HW1 4133   1.626   3.553   4.208
 1263SOL    HW2 4134   1.649   3.502   4.361
 1264SOL     OW 4135   0.598   2.591   3.994
 1264SOL    HW1 4136   0.622   2.660   3.926
 1264SOL    HW2 4137   0.520   2.624   4.048
 1265SOL     OW 4138   1.281   2.207   4.668
 1265SOL    HW1 4139   1.195   2.157   4.655
 1265SOL    HW2 4140   1.343   2.153   4.724
 1266SOL     OW 4141   1.576   3.524   4.031
 1266SOL    HW1 4142   1.665   3.570   4.034
 1266SOL    HW2 4143   1.555   3.500   3.936
 1267SOL     OW 4144   0.807   2.467   5.189
 1267SOL    HW1 4145   0.760   2.464   5.278
 1267SOL    HW2 4146   0.756   2.412   5.123
 1268SOL     OW 4147   1.394   2.331   5.398
 1268SOL    HW1 4148   1.374   2.374   5.486
 1268SOL    HW2 4149   1.472   2.269   5.407
 1269SOL     OW 4150   0.973   2.752   5.296
 1269SOL    HW1 4151   1.019   2.668   5.267
 1269SOL    HW2 4152   0.917   2.786   5.221
 1270SOL     OW 4153   0.991   2.272   4.966
 1270SOL    HW1 4154   0.914   2.306   5.020
 1270SOL    HW2 4155   0.957   2.221   4.887
 1271SOL     OW 4156   1.041   2.563   4.153
 1271SOL    HW1 4157   1.067   2.559   4.249
 1271SOL    HW2 4158   0.956   2.512   4.139
 1272SOL     OW 4159   0.076   2.673   4.513
 1272SOL    HW1 4160   0.175   2.661   4.522
 1272SOL    HW2 4161   0.052   2.768   4.534
 1273SOL     OW 4162   0.130   3.683   5.295
 1273SOL    HW1 4163   0.120   3.668   5.394
 1273SOL    HW2 4164   0.044   3.719   5.259
 1274SOL     OW 4165   0.865   2.210   3.919
 1274SOL    HW1 4166   0.924   2.273   3.870
 1274SOL    HW2 4167   0.884   2.116   3.890
 1275SOL     OW 4168   1.719   2.447   5.555
 1275SOL    HW1 4169   1.693   2.536   5.519
 1275SOL    HW2 4170   1.717   2.379   5.482
 1276SOL     OW 4171   1.362   3.006   4.269
 1276SOL    HW1 4172   1.445   2.977   4.221
 1276SOL    HW2 4173   1.313   3.073   4.213
 1277SOL     OW 4174   0.550   2.058   4.609
 1277SOL    HW1 4175   0.545   2.053   4.709
 1277SOL    HW2 4176   0.552   2.154   4.580
 1278SOL     OW 4177   1.008   3.318   4.201
 1278SOL    HW1 4178   0.962   3.390   4.149
 1278SOL    HW2 4179   1.004   3.338   4.299
 1279SOL     OW 4180   0.351   3.663   4.577
 1279SOL    HW1 4181   0.401   3.577   4.583
 1279SOL    HW2 4182   0.416   3.740   4.574
 1280SOL     OW 4183   1.795   2.928   4.597
 1280SOL    HW1 4184   1.733   2.913   4.521
 1280SOL    HW2 4185   1.743   2.939   4.682
 1281SOL     OW 4186   1.227   3.412   5.230
 1281SOL    HW1 4187   1.233   3.335   5.294
 1281SOL    HW2 4188   1.175   3.386   5.150
 1282SOL     OW 4189   0.321   2.805   3.966
 1282SOL    HW1 4190   0.403   2.844   3.924
 1282SOL    HW2 4191   0.294   2.723   3.917
 1283SOL     OW 4192   1.458   2.597   4.452
 1283SOL    HW1 4193   1.453   2.532   4.527
 1283SOL    HW2 4194   1.538   2.656   4.465
 1284SOL     OW 4195   0.461   3.128   5.451
 1284SOL    HW1 4196   0.411   3.129   5.365
 1284SOL    HW2 4197   0.398   3.110   5.527
 1285SOL     OW 4198   1.111   3.638   3.961
 1285SOL    HW1 4199   1.051   3.576   4.011
 1285SOL    HW2 4200   1.142   3.594   3.876
 1286SOL     OW 4201   0.202   2.147   5.222
 1286SOL    HW1 4202   0.122   2.207   5.209
 1286SOL    HW2 4203   0.192   2.098   5.308
 1287SOL     OW 4204   1.632   3.239   3.805
 1287SOL    HW1 4205   1.600   3.333   3.795
 1287SOL    HW2 4206   1.556   3.176   3.793
 1288SOL     OW 4207   0.464   3.605   4.047
 1288SOL    HW1 4208   0.497   3.644   4.133
 1288SOL    HW2 4209   0.540   3.598   3.982
 1289SOL     OW 4210   1.400   1.969   4.150
 1289SOL    HW1 4211   1.376   1.932   4.060
 1289SOL    HW2 4212   1.499   1.985   4.154
 1290SOL     OW 4213   0.249   3.647   4.965
 1290SOL    HW1 4214   0.306   3.582   5.015
 1290SOL    HW2 4215   0.233   3.614   4.872
 1291SOL     OW 4216   0.940   3.560   4.628
 1291SOL    HW1 4217   1.020   3.503   4.649
 1291SOL    HW2 4218   0.891   3.520   4.551
 1292SOL     OW 4219   0.382   2.562   4.204
 1292SOL    HW1 4220   0.427   2.472   4.201
 1292SOL    HW2 4221   0.288   2.551   4.237
 1293SOL     OW 4222   1.547   2.084   5.453
 1293SOL    HW1 4223   1.542   2.121   5.545
 1293SOL    HW2 4224   1.475   2.015   5.441
 1294SOL     OW 4225   0.614   1.984   3.841
 1294SOL    HW1 4226   0.712   1.962   3.848
 1294SOL    HW2 4227   0.583   1.967   3.748
 1295SOL     OW 4228   0.781   2.126   5.473
 1295SOL    HW1 4229   0.848   2.065   5.516
 1295SOL    HW2 4230   0.708   2.145   5.538
 1296SOL     OW 4231   0.888   3.376   4.919
 1296SOL    HW1 4232   0.865   3.351   4.825
 1296SOL    HW2 4233   0.949   3.307   4.958
 1297SOL     OW 4234   1.351   2.452   5.157
 1297SOL    HW1 4235   1.379   2.409   5.242
 1297SOL    HW2 4236   1.376   2.548   5.158
 1298SOL     OW 4237   0.803   3.264   4.648
 1298SOL    HW1 4238   0.893   3.278   4.606
 1298SOL    HW2 4239   0.732   3.266   4.577
 1299SOL     OW 4240   0.922   2.365   4.623
 1299SOL    HW1 4241   0.897   2.356   4.527
 1299SOL    HW2 4242   0.970   2.283   4.654
 1300SOL     OW 4243   0.539   1.926   4.236
 1300SOL    HW1 4244   0.458   1.927   4.294
 1300SOL    HW2 4245   0.542   2.009   4.181
 1301SOL     OW 4246   1.434   3.050   3.765
 1301SOL    HW1 4247   1.466   2.974   3.822
 1301SOL    HW2 4248   1.342   3.077   3.795
 1302SOL     OW 4249   0.297   1.897   3.895
 1302SOL    HW1 4250   0.346   1.981   3.874
 1302SOL    HW2 4251   0.359   1.832   3.940
 1303SOL     OW 4252   0.935   2.098   4.204
 1303SOL    HW1 4253   0.887   2.139   4.126
 1303SOL    HW2 4254   1.034   2.096   4.185
 1304SOL     OW 4255   1.076   2.545   5.188
 1304SOL    HW1 4256   0.996   2.484   5.191
 1304SOL    HW2 4257   1.157   2.492   5.164
 1305SOL     OW 4258   1.227   3.432   4.517
 1305SOL    HW1 4259   1.248   3.506   4.452
 1305SOL    HW2 4260   1.295   3.432   4.590
 1306SOL     OW 4261   0.459   3.014   4.465
 1306SOL    HW1 4262   0.388   2.987   4.530
 1306SOL    HW2 4263   0.433   2.986   4.372
 1307SOL     OW 4264   1.271   3.659   4.315
 1307SOL    HW1 4265   1.315   3.723   4.251
 1307SOL    HW2 4266   1.221   3.711   4.385
 1308SOL     OW 4267   1.032   2.411   3.740
 1308SOL    HW1 4268   0.991   2.493   3.701
 1308SOL    HW2 4269   1.096   2.437   3.813
 1309SOL     OW 4270   0.078   2.418   5.110
 1309SOL    HW1 4271   0.170   2.417   5.069
 1309SOL    HW2 4272   0.072   2.492   5.177
 1310SOL     OW 4273   0.561   2.084   4.871
 1310SOL    HW1 4274   0.599   2.000   4.908
 1310SOL    HW2 4275   0.473   2.103   4.915
 1311SOL     OW 4276   0.866   2.316   4.366
 1311SOL    HW1 4277   0.834   2.388   4.304
 1311SOL    HW2 4278   0.890   2.235   4.313
 1312SOL     OW 4279   1.017   1.901   4.477
 1312SOL    HW1 4280   0.945   1.906   4.408
 1312SOL    HW2 4281   0.993   1.832   4.546
 1313SOL     OW 4282   1.429   3.035   4.591
 1313SOL    HW1 4283   1.374   2.951   4.584
 1313SOL    HW2 4284   1.455   3.064   4.499
 1314SOL     OW 4285   1.466   2.452   4.716
 1314SOL    HW1 4286   1.436   2.357   4.723
 1314SOL    HW2 4287   1.539   2.468   4.782
 1315SOL     OW 4288   1.857   2.695   4.101
 1315SOL    HW1 4289   1.899   2.631   4.165
 1315SOL    HW2 4290   1.819   2.644   4.023
 1316SOL     OW 4291   0.488   3.247   3.898
 1316SOL    HW1 4292   0.401   3.232   3.945
 1316SOL    HW2 4293   0.471   3.273   3.803
 1317SOL     OW 4294   1.664   3.142   4.381
 1317SOL    HW1 4295   1.763   3.150   4.395
 1317SOL    HW2 4296   1.619   3.226   4.412
 1318SOL     OW 4297   1.390   2.437   3.802
 1318SOL    HW1 4298   1.336   2.416   3.883
 1318SOL    HW2 4299   1.481   2.396   3.811
 1319SOL     OW 4300   0.527   2.118   4.052
 1319SOL    HW1 4301   0.554   2.059   3.977
 1319SOL    HW2 4302   0.527   2.213   4.021
 1320SOL     OW 4303   1.754   3.085   5.312
 1320SOL    HW1 4304   1.845   3.046   5.299
 1320SOL    HW2 4305   1.762   3.181   5.336
 1321SOL     OW 4306   1.064   3.209   5.064
 1321SOL    HW1 4307   0.984   3.186   5.119
 1321SOL    HW2 4308   1.147   3.183   5.113
 1322SOL     OW 4309   1.592   3.491   5.349
 1322SOL    HW1 4310   1.619   3.525   5.259
 1322SOL    HW2 4311   1.671   3.453   5.395
 1323SOL     OW 4312   1.111   3.057   4.824
 1323SOL    HW1 4313   1.071   3.101   4.905
 1323SOL    HW2 4314   1.070   3.094   4.741
 1324SOL     OW 4315   1.638   2.961   4.803
 1324SOL    HW1 4316   1.643   3.042   4.862
 1324SOL    HW2 4317   1.552   2.963   4.752
 1325SOL     OW 4318   0.915   1.951   5.126
 1325SOL    HW1 4319   0.940   1.931   5.031
 1325SOL    HW2 4320   0.987   2.007   5.168
 1326SOL     OW 4321   0.980   2.978   5.443
 1326SOL    HW1 4322   0.881   2.984   5.453
 1326SOL    HW2 4323   1.003   2.898   5.387
 1327SOL     OW 4324   0.705   2.912   4.092
 1327SOL    HW1 4325   0.691   2.919   4.191
 1327SOL    HW2 4326   0.789   2.861   4.074
 1328SOL     OW 4327   0.410   2.675   4.975
 1328SOL    HW1 4328   0.496   2.687   5.025
 1328SOL    HW2 4329   0.368   2.588   5.002
 1329SOL     OW 4330   1.274   2.248   4.986
 1329SOL    HW1 4331   1.295   2.322   5.050
 1329SOL    HW2 4332   1.185   2.265   4.943
 1330SOL     OW 4333   0.064   3.426   5.055
 1330SOL    HW1 4334   0.018   3.508   5.021
 1330SOL    HW2 4335   0.162   3.445   5.064
 1331SOL     OW 4336   0.367   2.962   4.225
 1331SOL    HW1 4337   0.360   3.045   4.169
 1331SOL    HW2 4338   0.371   2.882   4.165
 1332SOL     OW 4339   0.566   2.399   4.589
 1332SOL    HW1 4340   0.578   2.465   4.515
 1332SOL    HW2 4341   0.612   2.433   4.672
 1333SOL     OW 4342   1.252   3.210   4.112
 1333SOL    HW1 4343   1.302   3.287   4.152
 1333SOL    HW2 4344   1.157   3.212   4.144
 1334SOL     OW 4345   1.272   3.307   4.866
 1334SOL    HW1 4346   1.319   3.320   4.953
 1334SOL    HW2 4347   1.206   3.233   4.875
 1335SOL     OW 4348   1.582   2.501   4.196
 1335SOL    HW1 4349   1.551   2.562   4.269
 1335SOL    HW2 4350   1.632   2.553   4.127
 1336SOL     OW 4351   0.354   3.372   5.053
 1336SOL    HW1 4352   0.333   3.328   4.966
 1336SOL    HW2 4353   0.451   3.398   5.056
 1337SOL     OW 4354   0.402   2.613   5.322
 1337SOL    HW1 4355   0.470   2.668   5.275
 1337SOL    HW2 4356   0.442   2.525   5.349
 1338SOL     OW 4357   1.587   2.641   5.394
 1338SOL    HW1 4358   1.495   2.679   5.389
 1338SOL    HW2 4359   1.647   2.688   5.329
 1339SOL     OW 4360   1.013   1.967   5.494
 1339SOL    HW1 4361   1.019   2.052   5.442
 1339SOL    HW2 4362   1.045   1.891   5.437
 1340SOL     OW 4363   0.504   1.912   5.464
 1340SOL    HW1 4364   0.462   1.855   5.394
 1340SOL    HW2 4365   0.438   1.981   5.496
 1341SOL     OW 4366   0.573   2.732   4.753
 1341SOL    HW1 4367   0.617   2.821   4.744
 1341SOL    HW2 4368   0.510   2.732   4.830
 1342SOL     OW 4369   1.360   2.724   4.769
 1342SOL    HW1 4370   1.285   2.724   4.703
 1342SOL    HW2 4371   1.397   2.632   4.778
 1343SOL     OW 4372   1.209   2.387   3.999
 1343SOL    HW1 4373   1.222   2.303   4.053
 1343SOL    HW2 4374   1.180   2.461   4.059
 1344SOL     OW 4375   0.307   2.075   4.955
 1344SOL    HW1 4376   0.284   2.112   5.045
 1344SOL    HW2 4377   0.277   1.980   4.949
 1345SOL     OW 4378   0.037   3.172   5.006
 1345SOL    HW1 4379   0.090   3.123   5.074
 1345SOL    HW2 4380   0.059   3.270   5.011
 1346SOL     OW 4381   0.732   2.496   4.788
 1346SOL    HW1 4382   0.791   2.470   4.712
 1346SOL    HW2 4383   0.704   2.592   4.777
 1347SOL     OW 4384   1.728   2.797   5.578
 1347SOL    HW1 4385   1.682   2.790   5.489
 1347SOL    HW2 4386   1.666   2.841   5.644
 1348SOL     OW 4387   0.307   1.925   4.342
 1348SOL    HW1 4388   0.296   2.019   4.375
 1348SOL    HW2 4389   0.302   1.862   4.419
 1349SOL     OW 4390   1.622   2.229   4.098
 1349SOL    HW1 4391   1.624   2.153   4.162
 1349SOL    HW2 4392   1.574   2.306   4.138
 1350SOL     OW 4393   1.023   2.628   4.690
 1350SOL    HW1 4394   1.038   2.649   4.786
 1350SOL    HW2 4395   0.993   2.533   4.681
 1351SOL     OW 4396   0.980   3.435   5.424
 1351SOL    HW1 4397   0.960   3.479   5.336
 1351SOL    HW2 4398   1.019   3.344   5.408
 1352SOL     OW 4399   1.859   3.380   5.329
 1352SOL    HW1 4400   1.873   3.407   5.234
 1352SOL    HW2 4401   1.942   3.402   5.382
 1353SOL     OW 4402   0.350   2.760   5.528
 1353SOL    HW1 4403   0.426   2.804   5.576
 1353SOL    HW2 4404   0.385   2.713   5.446
 1354SOL     OW 4405   1.540   2.136   3.849
 1354SOL    HW1 4406   1.479   2.061   3.872
 1354SOL    HW2 4407   1.562   2.188   3.932
 1355SOL     OW 4408   1.303   2.700   3.766
 1355SOL    HW1 4409   1.337   2.607   3.781
 1355SOL    HW2 4410   1.321   2.727   3.671
 1356SOL     OW 4411   1.068   3.195   4.573
 1356SOL    HW1 4412   1.075   3.111   4.518
 1356SOL    HW2 4413   1.130   3.264   4.537
 1357SOL     OW 4414   0.319   2.672   4.673
 1357SOL    HW1 4415   0.412   2.708   4.678
 1357SOL    HW2 4416   0.313   2.587   4.725
 1358SOL     OW 4417   0.339   2.371   4.730
 1358SOL    HW1 4418   0.287   2.288   4.713
 1358SOL    HW2 4419   0.416   2.376   4.666
 1359SOL     OW 4420   1.138   2.242   5.402
 1359SOL    HW1 4421   1.093   2.305   5.466
 1359SOL    HW2 4422   1.231   2.273   5.385
 1360SOL     OW 4423   1.160   2.069   5.201
 1360SOL    HW1 4424   1.160   2.133   5.278
 1360SOL    HW2 4425   1.188   2.117   5.118
 1361SOL     OW 4426   0.008   3.188   3.924
 1361SOL    HW1 4427  -0.085   3.209   3.893
 1361SOL    HW2 4428   0.018   3.089   3.937
 1362SOL     OW 4429   0.088   3.663   4.651
 1362SOL    HW1 4430   0.046   3.577   4.624
 1362SOL    HW2 4431   0.182   3.666   4.617
 1363SOL     OW 4432   0.504   3.430   4.634
 1363SOL    HW1 4433   0.570   3.504   4.643
 1363SOL    HW2 4434   0.548   3.351   4.592
 1364SOL     OW 4435   1.002   2.658   4.962
 1364SOL    HW1 4436   1.043   2.626   5.048
 1364SOL    HW2 4437   0.906   2.631   4.959
 1365SOL     OW 4438   0.040   2.406   4.838
 1365SOL    HW1 4439   0.125   2.373   4.797
 1365SOL    HW2 4440   0.053   2.421   4.936
 1366SOL     OW 4441   0.189   2.382   5.446
 1366SOL    HW1 4442   0.248   2.342   5.376
 1366SOL    HW2 4443   0.131   2.453   5.405
 1367SOL     OW 4444   1.369   2.812   5.384
 1367SOL    HW1 4445   1.408   2.901   5.404
 1367SOL    HW2 4446   1.379   2.792   5.287
 1368SOL     OW 4447   0.815   2.434   4.049
 1368SOL    HW1 4448   0.822   2.345   4.003
 1368SOL    HW2 4449   0.721   2.468   4.041
 1369SOL     OW 4450   1.657   2.466   4.930
 1369SOL    HW1 4451   1.619   2.397   4.992
 1369SOL    HW2 4452   1.739   2.430   4.886
 1370SOL     OW 4453   0.252   3.426   5.468
 1370SOL    HW1 4454   0.222   3.483   5.544
 1370SOL    HW2 4455   0.245   3.329   5.494
 1371SOL     OW 4456   0.671   2.326   4.993
 1371SOL    HW1 4457   0.637   2.237   4.963
 1371SOL    HW2 4458   0.697   2.380   4.913
 1372SOL     OW 4459   0.930   3.540   5.189
 1372SOL    HW1 4460   0.906   3.522   5.094
 1372SOL    HW2 4461   0.960   3.634   5.199
 1373SOL     OW 4462   0.473   2.362   3.915
 1373SOL    HW1 4463   0.534   2.442   3.919
 1373SOL    HW2 4464   0.378   2.393   3.922
 1374SOL     OW 4465   0.159   2.999   5.190
 1374SOL    HW1 4466   0.181   2.938   5.266
 1374SOL    HW2 4467   0.169   2.950   5.104
 1375SOL     OW 4468   1.347   2.921   4.958
 1375SOL    HW1 4469   1.371   2.858   4.884
 1375SOL    HW2 4470   1.257   2.961   4.940
 1376SOL     OW 4471   1.302   2.717   4.033
 1376SOL    HW1 4472   1.216   2.686   4.075
 1376SOL    HW2 4473   1.298   2.703   3.934
 1377SOL     OW 4474   1.759   3.609   4.878
 1377SOL    HW1 4475   1.820   3.639   4.805
 1377SOL    HW2 4476   1.721   3.520   4.856
 1378SOL     OW 4477   1.252   3.593   4.852
 1378SOL    HW1 4478   1.336   3.598   4.798
 1378SOL    HW2 4479   1.229   3.497   4.870
 1379SOL     OW 4480   0.083   3.120   4.746
 1379SOL    HW1 4481   0.078   3.119   4.846
 1379SOL    HW2 4482   0.000   3.079   4.708
 1380SOL     OW 4483   0.688   3.524   5.440
 1380SOL    HW1 4484   0.632   3.605   5.449
 1380SOL    HW2 4485   0.740   3.528   5.354
 1381SOL     OW 4486   1.726   1.997   4.247
 1381SOL    HW1 4487   1.799   1.980   4.180
 1381SOL    HW2 4488   1.695   1.910   4.285
 1382SOL     OW 4489   1.388   3.435   4.201
 1382SOL    HW1 4490   1.455   3.447   4.127
 1382SOL    HW2 4491   1.348   3.524   4.224
 1383SOL     OW 4492   0.130   3.656   5.575
 1383SOL    HW1 4493   0.089   3.582   5.628
 1383SOL    HW2 4494   0.194   3.707   5.633
 1384SOL     OW 4495   1.280   2.789   4.396
 1384SOL    HW1 4496   1.340   2.708   4.398
 1384SOL    HW2 4497   1.320   2.858   4.336
 1385SOL     OW 4498   0.830   3.135   5.146
 1385SOL    HW1 4499   0.825   3.168   5.241
 1385SOL    HW2 4500   0.744   3.154   5.100
 1386SOL     OW 4501   0.672   3.478   3.878
 1386SOL    HW1 4502   0.681   3.488   3.779
 1386SOL    HW2 4503   0.632   3.389   3.899
 1387SOL     OW 4504   1.650   3.582   5.118
 1387SOL    HW1 4505   1.703   3.592   5.034
 1387SOL    HW2 4506   1.623   3.672   5.152
 1388SOL     OW 4507   1.841   2.037   4.687
 1388SOL    HW1 4508   1.880   1.952   4.651
 1388SOL    HW2 4509   1.743   2.039   4.668
 1389SOL     OW 4510   0.263   2.188   4.444
 1389SOL    HW1 4511   0.184   2.239   4.410
 1389SOL    HW2 4512   0.254   2.173   4.542
 1390SOL     OW 4513   1.194   3.474   3.755
 1390SOL    HW1 4514   1.200   3.381   3.792
 1390SOL    HW2 4515   1.135   3.474   3.675
 1391SOL     OW 4516   0.822   2.864   5.096
 1391SOL    HW1 4517   0.862   2.863   5.004
 1391SOL    HW2 4518   0.832   2.956   5.136
 1392SOL     OW 4519   0.916   2.772   4.015
 1392SOL    HW1 4520   0.979   2.810   3.947
 1392SOL    HW2 4521   0.956   2.689   4.054
 1393SOL     OW 4522   1.504   3.469   3.768
 1393SOL    HW1 4523   1.412   3.506   3.775
 1393SOL    HW2 4524   1.542   3.489   3.678
 1394SOL     OW 4525   0.372   3.150   5.214
 1394SOL    HW1 4526   0.359   3.243   5.180
 1394SOL    HW2 4527   0.288   3.098   5.201
 1395SOL     OW 4528   1.614   3.154   5.013
 1395SOL    HW1 4529   1.674   3.157   5.093
 1395SOL    HW2 4530   1.539   3.218   5.026
 1396SOL     OW 4531   1.039   2.960   4.420
 1396SOL    HW1 4532   0.969   2.913   4.474
 1396SOL    HW2 4533   1.098   2.892   4.377
 1397SOL     OW 4534   1.014   2.098   4.695
 1397SOL    HW1 4535   1.006   2.062   4.602
 1397SOL    HW2 4536   1.012   2.022   4.760
 1398SOL     OW 4537   0.590   3.349   4.215
 1398SOL    HW1 4538   0.632   3.291   4.145
 1398SOL    HW2 4539   0.546   3.428   4.171
 1399SOL     OW 4540   1.709   2.247   5.105
 1399SOL    HW1 4541   1.782   2.316   5.109
 1399SOL    HW2 4542   1.737   2.172   5.046
 1400SOL     OW 4543   0.255   3.210   4.014
 1400SOL    HW1 4544   0.159   3.211   3.987
 1400SOL    HW2 4545   0.267   3.263   4.098
 1401SOL     OW 4546   0.105   2.875   5.450
 1401SOL    HW1 4547   0.028   2.842   5.504
 1401SOL    HW2 4548   0.190   2.845   5.492
 1402SOL     OW 4549   0.672   2.065   5.213
 1402SOL    HW1 4550   0.762   2.049   5.173
 1402SOL    HW2 4551   0.680   2.070   5.312
 1403SOL     OW 4552   0.075   2.207   3.757
 1403SOL    HW1 4553  -0.017   2.179   3.728
 1403SOL    HW2 4554   0.106   2.284   3.701
 1404SOL     OW 4555   1.440   2.718   5.122
 1404SOL    HW1 4556   1.383   2.770   5.059
 1404SOL    HW2 4557   1.536   2.730   5.098
 1405SOL     OW 4558   0.072   2.028   4.042
 1405SOL    HW1 4559   0.055   2.111   3.988
 1405SOL    HW2 4560   0.162   1.991   4.020
 1406SOL     OW 4561   1.183   3.197   3.843
 1406SOL    HW1 4562   1.084   3.186   3.845
 1406SOL    HW2 4563   1.217   3.212   3.936
 1407SOL     OW 4564   0.613   2.704   5.155
 1407SOL    HW1 4565   0.669   2.785   5.138
 1407SOL    HW2 4566   0.672   2.624   5.158
 1408SOL     OW 4567   1.493   3.629   4.683
 1408SOL    HW1 4568   1.526   3.693   4.614
 1408SOL    HW2 4569   1.559   3.623   4.758
 1409SOL     OW 4570   0.716   2.427   5.432
 1409SOL    HW1 4571   0.735   2.492   5.506
 1409SOL    HW2 4572   0.776   2.347   5.441
 1410SOL     OW 4573   1.450   3.082   5.357
 1410SOL    HW1 4574   1.441   3.072   5.456
 1410SOL    HW2 4575   1.546   3.075   5.331
 1411SOL     OW 4576   0.390   3.603   5.284
 1411SOL    HW1 4577   0.299   3.644   5.282
 1411SOL    HW2 4578   0.383   3.509   5.316
 1412SOL     OW 4579   1.674   2.745   4.978
 1412SOL    HW1 4580   1.647   2.656   4.941
 1412SOL    HW2 4581   1.675   2.813   4.905
 1413SOL     OW 4582   1.225   2.187   4.173
 1413SOL    HW1 4583   1.290   2.113   4.162
 1413SOL    HW2 4584   1.245   2.237   4.257
 1414SOL     OW 4585   0.594   2.607   4.376
 1414SOL    HW1 4586   0.644   2.692   4.357
 1414SOL    HW2 4587   0.506   2.609   4.328
 1415SOL     OW 4588   1.777   2.204   5.366
 1415SOL    HW1 4589   1.760   2.235   5.272
 1415SOL    HW2 4590   1.693   2.167   5.404
 1416SOL     OW 4591   1.730   2.796   5.241
 1416SOL    HW1 4592   1.768   2.887   5.256
 1416SOL    HW2 4593   1.722   2.779   5.142
 1417SOL     OW 4594   0.859   3.236   3.740
 1417SOL    HW1 4595   0.813   3.251   3.828
 1417SOL    HW2 4596   0.903   3.321   3.710
 1418SOL     OW 4597   0.661   3.652   4.677
 1418SOL    HW1 4598   0.615   3.740   4.664
 1418SOL    HW2 4599   0.760   3.664   4.670
 1419SOL     OW 4600   0.859   2.818   4.585
 1419SOL    HW1 4601   0.913   2.749   4.633
 1419SOL    HW2 4602   0.827   2.887   4.651
 1420SOL     OW 4603   1.083   2.846   3.811
 1420SOL    HW1 4604   1.060   2.899   3.729
 1420SOL    HW2 4605   1.164   2.790   3.792
 1421SOL     OW 4606   1.861   3.431   4.575
 1421SOL    HW1 4607   1.790   3.419   4.505
 1421SOL    HW2 4608   1.862   3.352   4.635
 1422SOL     OW 4609   0.221   3.176   5.568
 1422SOL    HW1 4610   0.156   3.103   5.547
 1422SOL    HW2 4611   0.225   3.190   5.666
 1423SOL     OW 4612   0.079   3.102   4.377
 1423SOL    HW1 4613   0.078   3.055   4.465
 1423SOL    HW2 4614   0.161   3.074   4.326
 1424SOL     OW 4615   0.672   3.253   5.348
 1424SOL    HW1 4616   0.594   3.203   5.386
 1424SOL    HW2 4617   0.669   3.348   5.379
 1425SOL     OW 4618   1.824   2.054   4.951
 1425SOL    HW1 4619   1.820   1.964   4.995
 1425SOL    HW2 4620   1.827   2.043   4.852
 1426SOL     OW 4621   0.428   2.286   4.244
 1426SOL    HW1 4622   0.458   2.214   4.182
 1426SOL    HW2 4623   0.389   2.246   4.327
 1427SOL     OW 4624   1.705   3.349   4.828
 1427SOL    HW1 4625   1.612   3.324   4.801
 1427SOL    HW2 4626   1.731   3.299   4.910
 1428SOL     OW 4627   0.317   2.409   5.004
 1428SOL    HW1 4628   0.355   2.350   5.076
 1428SOL    HW2 4629   0.357   2.383   4.916
 1429SOL     OW 4630   0.812   3.448   4.411
 1429SOL    HW1 4631   0.844   3.458   4.317
 1429SOL    HW2 4632   0.733   3.386   4.413
 1430SOL     OW 4633   1.424   2.076   4.836
 1430SOL    HW1 4634   1.476   2.011   4.891
 1430SOL    HW2 4635   1.375   2.139   4.897
 1431SOL     OW 4636   1.001   1.896   4.878
 1431SOL    HW1 4637   0.938   1.824   4.847
 1431SOL    HW2 4638   1.094   1.860   4.878
 1432SOL     OW 4639   0.770   3.192   4.025
 1432SOL    HW1 4640   0.724   3.105   4.042
 1432SOL    HW2 4641   0.861   3.189   4.066
 1433SOL     OW 4642   0.618   3.429   5.008
 1433SOL    HW1 4643   0.613   3.511   5.065
 1433SOL    HW2 4644   0.707   3.426   4.963
 1434SOL     OW 4645   1.352   1.914   3.892
 1434SOL    HW1 4646   1.387   1.873   3.808
 1434SOL    HW2 4647   1.262   1.876   3.912
 1435SOL     OW 4648   1.300   2.315   4.415
 1435SOL    HW1 4649   1.241   2.395   4.419
 1435SOL    HW2 4650   1.315   2.280   4.508
 1436SOL     OW 4651   1.593   2.083   4.606
 1436SOL    HW1 4652   1.509   2.082   4.660
 1436SOL    HW2 4653   1.595   2.166   4.550
 1437SOL     OW 4654   0.039   2.939   4.024
 1437SOL    HW1 4655   0.138   2.928   4.015
 1437SOL    HW2 4656  -0.001   2.853   4.056
 1438SOL     OW 4657   0.875   3.508   4.061
 1438SOL    HW1 4658   0.798   3.473   4.007
 1438SOL    HW2 4659   0.843   3.579   4.123
 1439SOL     OW 4660   0.230   2.490   5.699
 1439SOL    HW1 4661   0.137   2.488   5.736
 1439SOL    HW2 4662   0.231   2.451   5.607
 1440SOL     OW 4663   0.225   2.137   6.582
 1440SOL    HW1 4664   0.260   2.120   6.674
 1440SOL    HW2 4665   0.137   2.092   6.570
 1441SOL     OW 4666   0.019   2.230   6.233
 1441SOL    HW1 4667  -0.063   2.273   6.272
 1441SOL    HW2 4668  -0.009   2.157   6.170
 1442SOL     OW 4669   0.569   3.137   6.751
 1442SOL    HW1 4670   0.476   3.130   6.714
 1442SOL    HW2 4671   0.580   3.226   6.795
 1443SOL     OW 4672   1.555   3.373   6.289
 1443SOL    HW1 4673   1.498   3.357   6.370
 1443SOL    HW2 4674   1.496   3.383   6.209
 1444SOL     OW 4675   1.135   2.565   6.303
 1444SOL    HW1 4676   1.192   2.643   6.278
 1444SOL    HW2 4677   1.075   2.591   6.379
 1445SOL     OW 4678   1.755   2.469   5.817
 1445SOL    HW1 4679   1.743   2.456   5.718
 1445SOL    HW2 4680   1.725   2.388   5.866
 1446SOL     OW 4681   0.768   3.006   6.609
 1446SOL    HW1 4682   0.690   3.023   6.669
 1446SOL    HW2 4683   0.802   3.093   6.573
 1447SOL     OW 4684   0.685   2.874   6.251
 1447SOL    HW1 4685   0.754   2.858   6.321
 1447SOL    HW2 4686   0.612   2.931   6.289
 1448SOL     OW 4687   0.335   3.297   6.647
 1448SOL    HW1 4688   0.257   3.266   6.594
 1448SOL    HW2 4689   0.393   3.355   6.590
 1449SOL     OW 4690   1.603   2.309   6.323
 1449SOL    HW1 4691   1.529   2.355   6.273
 1449SOL    HW2 4692   1.654   2.377   6.376
 1450SOL     OW 4693   0.231   3.575   6.069
 1450SOL    HW1 4694   0.265   3.652   6.123
 1450SOL    HW2 4695   0.275   3.575   5.979
 1451SOL     OW 4696   0.230   3.296   6.124
 1451SOL    HW1 4697   0.204   3.392   6.124
 1451SOL    HW2 4698   0.159   3.242   6.169
 1452SOL     OW 4699   0.240   2.953   6.472
 1452SOL    HW1 4700   0.254   2.869   6.524
 1452SOL    HW2 4701   0.185   3.017   6.527
 1453SOL     OW 4702   0.606   2.826   5.709
 1453SOL    HW1 4703   0.613   2.910   5.655
 1453SOL    HW2 4704   0.652   2.839   5.797
 1454SOL     OW 4705   0.122   2.505   6.149
 1454SOL    HW1 4706   0.077   2.417   6.166
 1454SOL    HW2 4707   0.121   2.559   6.233
 1455SOL     OW 4708   1.842   3.629   5.945
 1455SOL    HW1 4709   1.896   3.600   6.025
 1455SOL    HW2 4710   1.872   3.719   5.916
 1456SOL     OW 4711   0.027   3.458   5.703
 1456SOL    HW1 4712   0.008   3.362   5.724
 1456SOL    HW2 4713  -0.006   3.516   5.778
 1457SOL     OW 4714   1.689   2.784   6.198
 1457SOL    HW1 4715   1.784   2.755   6.206
 1457SOL    HW2 4716   1.681   2.849   6.123
 1458SOL     OW 4717   1.641   2.970   6.018
 1458SOL    HW1 4718   1.727   2.972   5.966
 1458SOL    HW2 4719   1.655   3.017   6.106
 1459SOL     OW 4720   0.613   3.227   6.312
 1459SOL    HW1 4721   0.564   3.140   6.321
 1459SOL    HW2 4722   0.590   3.270   6.225
 1460SOL     OW 4723   0.809   1.866   6.088
 1460SOL    HW1 4724   0.849   1.957   6.079
 1460SOL    HW2 4725   0.709   1.874   6.094
 1461SOL     OW 4726   1.525   2.861   5.776
 1461SOL    HW1 4727   1.462   2.785   5.789
 1461SOL    HW2 4728   1.573   2.879   5.862
 1462SOL     OW 4729   1.466   3.279   6.539
 1462SOL    HW1 4730   1.407   3.285   6.619
 1462SOL    HW2 4731   1.451   3.191   6.493
 1463SOL     OW 4732   1.667   3.576   6.158
 1463SOL    HW1 4733   1.626   3.553   6.070
 1463SOL    HW2 4734   1.649   3.502   6.223
 1464SOL     OW 4735   0.598   2.591   5.856
 1464SOL    HW1 4736   0.622   2.660   5.788
 1464SOL    HW2 4737   0.520   2.624   5.910
 1465SOL     OW 4738   1.281   2.207   6.530
 1465SOL    HW1 4739   1.195   2.157   6.517
 1465SOL    HW2 4740   1.343   2.153   6.586
 1466SOL     OW 4741   1.576   3.524   5.893
 1466SOL    HW1 4742   1.665   3.570   5.896
 1466SOL    HW2 4743   1.555   3.500   5.798
 1467SOL     OW 4744   0.991   2.272   6.828
 1467SOL    HW1 4745   0.914   2.306   6.882
 1467SOL    HW2 4746   0.957   2.221   6.749
 1468SOL     OW 4747   1.041   2.563   6.015
 1468SOL    HW1 4748   1.067   2.559   6.111
 1468SOL    HW2 4749   0.956   2.512   6.001
 1469SOL     OW 4750   0.076   2.673   6.375
 1469SOL    HW1 4751   0.175   2.661   6.384
 1469SOL    HW2 4752   0.052   2.768   6.396
 1470SOL     OW 4753   0.865   2.210   5.781
 1470SOL    HW1 4754   0.924   2.273   5.732
 1470SOL    HW2 4755   0.884   2.116   5.752
 1471SOL     OW 4756   1.362   3.006   6.131
 1471SOL    HW1 4757   1.445   2.977   6.083
 1471SOL    HW2 4758   1.313   3.073   6.075
 1472SOL     OW 4759   0.550   2.058   6.471
 1472SOL    HW1 4760   0.545   2.053   6.571
 1472SOL    HW2 4761   0.552   2.154   6.442
 1473SOL     OW 4762   1.008   3.318   6.063
 1473SOL    HW1 4763   0.962   3.390   6.011
 1473SOL    HW2 4764   1.004   3.338   6.161
 1474SOL     OW 4765   0.351   3.663   6.439
 1474SOL    HW1 4766   0.401   3.577   6.445
 1474SOL    HW2 4767   0.416   3.740   6.436
 1475SOL     OW 4768   1.795   2.928   6.459
 1475SOL    HW1 4769   1.733   2.913   6.383
 1475SOL    HW2 4770   1.743   2.939   6.544
 1476SOL     OW 4771   0.321   2.805   5.828
 1476SOL    HW1 4772   0.403   2.844   5.786
 1476SOL    HW2 4773   0.294   2.723   5.779
 1477SOL     OW 4774   1.458   2.597   6.314
 1477SOL    HW1 4775   1.453   2.532   6.389
 1477SOL    HW2 4776   1.538   2.656   6.327
 1478SOL     OW 4777   1.111   3.638   5.823
 1478SOL    HW1 4778   1.051   3.576   5.873
 1478SOL    HW2 4779   1.142   3.594   5.738
 1479SOL     OW 4780   1.632   3.239   5.667
 1479SOL    HW1 4781   1.600   3.333   5.657
 1479SOL    HW2 4782   1.556   3.176   5.655
 1480SOL     OW 4783   0.464   3.605   5.909
 1480SOL    HW1 4784   0.497   3.644   5.995
 1480SOL    HW2 4785   0.540   3.598   5.844
 1481SOL     OW 4786   1.400   1.969   6.012
 1481SOL    HW1 4787   1.376   1.932   5.922
 1481SOL    HW2 4788   1.499   1.985   6.016
 1482SOL     OW 4789   0.249   3.647   6.827
 1482SOL    HW1 4790   0.306   3.582   6.877
 1482SOL    HW2 4791   0.233   3.614   6.734
 1483SOL     OW 4792   0.940   3.560   6.490
 1483SOL    HW1 4793   1.020   3.503   6.511
 1483SOL    HW2 4794   0.891   3.520   6.413
 1484SOL     OW 4795   0.382   2.562   6.066
 1484SOL    HW1 4796   0.427   2.472   6.063
 1484SOL    HW2 4797   0.288   2.551   6.099
 1485SOL     OW 4798   0.614   1.984   5.703
 1485SOL    HW1 4799   0.712   1.962   5.710
 1485SOL    HW2 4800   0.583   1.967   5.610
 1486SOL     OW 4801   0.888   3.376   6.781
 1486SOL    HW1 4802   0.865   3.351   6.687
 1486SOL    HW2 4803   0.949   3.307   6.820
 1487SOL     OW 4804   0.803   3.264   6.510
 1487SOL    HW1 4805   0.893   3.278   6.468
 1487SOL    HW2 4806   0.732   3.266   6.439
 1488SOL     OW 4807   0.922   2.365   6.485
 1488SOL    HW1 4808   0.897   2.356   6.389
 1488SOL    HW2 4809   0.970   2.283   6.516
 1489SOL     OW 4810   0.539   1.926   6.098
 1489SOL    HW1 4811   0.458   1.927   6.156
 1489SOL    HW2 4812   0.542   2.009   6.043
 1490SOL     OW 4813   1.434   3.050   5.627
 1490SOL    HW1 4814   1.466   2.974   5.684
 1490SOL    HW2 4815   1.342   3.077   5.657
 1491SOL     OW 4816   0.297   1.897   5.757
 1491SOL    HW1 4817   0.346   1.981   5.736
 1491SOL    HW2 4818   0.359   1.832   5.802
 1492SOL     OW 4819   0.935   2.098   6.066
 1492SOL    HW1 4820   0.887   2.139   5.988
 1492SOL    HW2 4821   1.034   2.096   6.047
 1493SOL     OW 4822   1.227   3.432   6.379
 1493SOL    HW1 4823   1.248   3.506   6.314
 1493SOL    HW2 4824   1.295   3.432   6.452
 1494SOL     OW 4825   0.459   3.014   6.327
 1494SOL    HW1 4826   0.388   2.987   6.392
 1494SOL    HW2 4827   0.433   2.986   6.234
 1495SOL     OW 4828   1.271   3.659   6.177
 1495SOL    HW1 4829   1.315   3.723   6.113
 1495SOL    HW2 4830   1.221   3.711   6.247
 1496SOL     OW 4831   1.032   2.411   5.602
 1496SOL    HW1 4832   0.991   2.493   5.563
 1496SOL    HW2 4833   1.096   2.437   5.675
 1497SOL     OW 4834   0.561   2.084   6.733
 1497SOL    HW1 4835   0.599   2.000   6.770
 1497SOL    HW2 4836   0.473   2.103   6.777
 1498SOL     OW 4837   0.866   2.316   6.228
 1498SOL    HW1 4838   0.834   2.388   6.166
 1498SOL    HW2 4839   0.890   2.235   6.175
 1499SOL     OW 4840   1.017   1.901   6.339
 1499SOL    HW1 4841   0.945   1.906   6.270
 1499SOL    HW2 4842   0.993   1.832   6.408
 1500SOL     OW 4843   1.429   3.035   6.453
 1500SOL    HW1 4844   1.374   2.951   6.446
 1500SOL    HW2 4845   1.455   3.064   6.361
 1501SOL     OW 4846   1.466   2.452   6.578
 1501SOL    HW1 4847   1.436   2.357   6.585
 1501SOL    HW2 4848   1.539   2.468   6.644
 1502SOL     OW 4849   1.857   2.695   5.963
 1502SOL    HW1 4850   1.899   2.631   6.027
 1502SOL    HW2 4851   1.819   2.644   5.885
 1503SOL     OW 4852   0.488   3.247   5.760
 1503SOL    HW1 4853   0.401   3.232   5.807
 1503SOL    HW2 4854   0.471   3.273   5.665
 1504SOL     OW 4855   1.664   3.142   6.243
 1504SOL    HW1 4856   1.763   3.150   6.257
 1504SOL    HW2 4857   1.619   3.226   6.274
 1505SOL     OW 4858   1.390   2.437   5.664
 1505SOL    HW1 4859   1.336   2.416   5.745
 1505SOL    HW2 4860   1.481   2.396   5.673
 1506SOL     OW 4861   0.527   2.118   5.914
 1506SOL    HW1 4862   0.554   2.059   5.839
 1506SOL    HW2 4863   0.527   2.213   5.883
 1507SOL     OW 4864   1.111   3.057   6.686
 1507SOL    HW1 4865   1.071   3.101   6.767
 1507SOL    HW2 4866   1.070   3.094   6.603
 1508SOL     OW 4867   1.638   2.961   6.665
 1508SOL    HW1 4868   1.643   3.042   6.724
 1508SOL    HW2 4869   1.552   2.963   6.614
 1509SOL     OW 4870   0.705   2.912   5.954
 1509SOL    HW1 4871   0.691   2.919   6.053
 1509SOL    HW2 4872   0.789   2.861   5.936
 1510SOL     OW 4873   0.367   2.962   6.087
 1510SOL    HW1 4874   0.360   3.045   6.031
 1510SOL    HW2 4875   0.371   2.882   6.027
 1511SOL     OW 4876   0.566   2.399   6.451
 1511SOL    HW1 4877   0.578   2.465   6.377
 1511SOL    HW2 4878   0.612   2.433   6.534
 1512SOL     OW 4879   1.252   3.210   5.974
 1512SOL    HW1 4880   1.302   3.287   6.014
 1512SOL    HW2 4881   1.157   3.212   6.006
 1513SOL     OW 4882   1.272   3.307   6.728
 1513SOL    HW1 4883   1.319   3.320   6.815
 1513SOL    HW2 4884   1.206   3.233   6.737
 1514SOL     OW 4885   1.582   2.501   6.058
 1514SOL    HW1 4886   1.551   2.562   6.131
 1514SOL    HW2 4887   1.632   2.553   5.989
 1515SOL     OW 4888   0.573   2.732   6.615
 1515SOL    HW1 4889   0.617   2.821   6.606
 1515SOL    HW2 4890   0.510   2.732   6.692
 1516SOL     OW 4891   1.360   2.724   6.631
 1516SOL    HW1 4892   1.285   2.724   6.565
 1516SOL    HW2 4893   1.397   2.632   6.640
 1517SOL     OW 4894   1.209   2.387   5.861
 1517SOL    HW1 4895   1.222   2.303   5.915
 1517SOL    HW2 4896   1.180   2.461   5.921
 1518SOL     OW 4897   0.732   2.496   6.650
 1518SOL    HW1 4898   0.791   2.470   6.574
 1518SOL    HW2 4899   0.704   2.592   6.639
 1519SOL     OW 4900   0.307   1.925   6.204
 1519SOL    HW1 4901   0.296   2.019   6.237
 1519SOL    HW2 4902   0.302   1.862   6.281
 1520SOL     OW 4903   1.622   2.229   5.960
 1520SOL    HW1 4904   1.624   2.153   6.024
 1520SOL    HW2 4905   1.574   2.306   6.000
 1521SOL     OW 4906   1.023   2.628   6.552
 1521SOL    HW1 4907   1.038   2.649   6.648
 1521SOL    HW2 4908   0.993   2.533   6.543
 1522SOL     OW 4909   1.540   2.136   5.711
 1522SOL    HW1 4910   1.479   2.061   5.734
 1522SOL    HW2 4911   1.562   2.188   5.794
 1523SOL     OW 4912   1.303   2.700   5.628
 1523SOL    HW1 4913   1.337   2.607   5.643
 1523SOL    HW2 4914   1.321   2.727   5.533
 1524SOL     OW 4915   1.068   3.195   6.435
 1524SOL    HW1 4916   1.075   3.111   6.380
 1524SOL    HW2 4917   1.130   3.264   6.399
 1525SOL     OW 4918   0.319   2.672   6.535
 1525SOL    HW1 4919   0.412   2.708   6.540
 1525SOL    HW2 4920   0.313   2.587   6.587
 1526SOL     OW 4921   0.339   2.371   6.592
 1526SOL    HW1 4922   0.287   2.288   6.575
 1526SOL    HW2 4923   0.416   2.376   6.528
 1527SOL     OW 4924   0.008   3.188   5.786
 1527SOL    HW1 4925  -0.085   3.209   5.755
 1527SOL    HW2 4926   0.018   3.089   5.799
 1528SOL     OW 4927   0.088   3.663   6.513
 1528SOL    HW1 4928   0.046   3.577   6.486
 1528SOL    HW2 4929   0.182   3.666   6.479
 1529SOL     OW 4930   0.504   3.430   6.496
 1529SOL    HW1 4931   0.570   3.504   6.505
 1529SOL    HW2 4932   0.548   3.351   6.454
 1530SOL     OW 4933   0.040   2.406   6.700
 1530SOL    HW1 4934   0.125   2.373   6.659
 1530SOL    HW2 4935   0.053   2.421   6.798
 1531SOL     OW 4936   0.815   2.434   5.911
 1531SOL    HW1 4937   0.822   2.345   5.865
 1531SOL    HW2 4938   0.721   2.468   5.903
 1532SOL     OW 4939   1.657   2.466   6.792
 1532SOL    HW1 4940   1.619   2.397   6.854
 1532SOL    HW2 4941   1.739   2.430   6.748
 1533SOL     OW 4942   0.671   2.326   6.855
 1533SOL    HW1 4943   0.637   2.237   6.825
 1533SOL    HW2 4944   0.697   2.380   6.775
 1534SOL     OW 4945   0.473   2.362   5.777
 1534SOL    HW1 4946   0.534   2.442   5.781
 1534SOL    HW2 4947   0.378   2.393   5.784
 1535SOL     OW 4948   1.347   2.921   6.820
 1535SOL    HW1 4949   1.371   2.858   6.746
 1535SOL    HW2 4950   1.257   2.961   6.802
 1536SOL     OW 4951   1.302   2.717   5.895
 1536SOL    HW1 4952   1.216   2.686   5.937
 1536SOL    HW2 4953   1.298   2.703   5.796
 1537SOL     OW 4954   1.759   3.609   6.740
 1537SOL    HW1 4955   1.820   3.639   6.667
 1537SOL    HW2 4956   1.721   3.520   6.718
 1538SOL     OW 4957   1.252   3.593   6.714
 1538SOL    HW1 4958   1.336   3.598   6.660
 1538SOL    HW2 4959   1.229   3.497   6.732
 1539SOL     OW 4960   0.083   3.120   6.608
 1539SOL    HW1 4961   0.078   3.119   6.708
 1539SOL    HW2 4962   0.000   3.079   6.570
 1540SOL     OW 4963   1.726   1.997   6.109
 1540SOL    HW1 4964   1.799   1.980   6.042
 1540SOL    HW2 4965   1.695   1.910   6.147
 1541SOL     OW 4966   1.388   3.435   6.063
 1541SOL    HW1 4967   1.455   3.447   5.989
 1541SOL    HW2 4968   1.348   3.524   6.086
 1542SOL     OW 4969   1.280   2.789   6.258
 1542SOL    HW1 4970   1.340   2.708   6.260
 1542SOL    HW2 4971   1.320   2.858   6.198
 1543SOL     OW 4972   0.672   3.478   5.740
 1543SOL    HW1 4973   0.681   3.488   5.641
 1543SOL    HW2 4974   0.632   3.389   5.761
 1544SOL     OW 4975   1.841   2.037   6.549
 1544SOL    HW1 4976   1.880   1.952   6.513
 1544SOL    HW2 4977   1.743   2.039   6.530
 1545SOL     OW 4978   0.263   2.188   6.306
 1545SOL    HW1 4979   0.184   2.239   6.272
 1545SOL    HW2 4980   0.254   2.173   6.404
 1546SOL     OW 4981   1.194   3.474   5.617
 1546SOL    HW1 4982   1.200   3.381   5.654
 1546SOL    HW2 4983   1.135   3.474   5.537
 1547SOL     OW 4984   0.916   2.772   5.877
 1547SOL    HW1 4985   0.979   2.810   5.809
 1547SOL    HW2 4986   0.956   2.689   5.916
 1548SOL     OW 4987   1.504   3.469   5.630
 1548SOL    HW1 4988   1.412   3.506   5.637
 1548SOL    HW2 4989   1.542   3.489   5.540
 1549SOL     OW 4990   1.039   2.960   6.282
 1549SOL    HW1 4991   0.969   2.913   6.336
 1549SOL    HW2 4992   1.098   2.892   6.239
 1550SOL     OW 4993   1.014   2.098   6.557
 1550SOL    HW1 4994   1.006   2.062   6.464
 1550SOL    HW2 4995   1.012   2.022   6.622
 1551SOL     OW 4996   0.590   3.349   6.077
 1551SOL    HW1 4997   0.632   3.291   6.007
 1551SOL    HW2 4998   0.546   3.428   6.033
 1552SOL     OW 4999   0.255   3.210   5.876
 1552SOL    HW1 5000   0.159   3.211   5.849
 1552SOL    HW2 5001   0.267   3.263   5.960
 1553SOL     OW 5002   0.075   2.207   5.619
 1553SOL    HW1 5003  -0.017   2.179   5.590
 1553SOL    HW2 5004   0.106   2.284   5.563
 1554SOL     OW 5005   0.072   2.028   5.904
 1554SOL    HW1 5006   0.055   2.111   5.850
 1554SOL    HW2 5007   0.162   1.991   5.882
 1555SOL     OW 5008   1.183   3.197   5.705
 1555SOL    HW1 5009   1.084   3.186   5.707
 1555SOL    HW2 5010   1.217   3.212   5.798
 1556SOL     OW 5011   1.493   3.629   6.545
 1556SOL    HW1 5012   1.526   3.693   6.476
 1556SOL    HW2 5013   1.559   3.623   6.620
 1557SOL     OW 5014   1.674   2.745   6.840
 1557SOL    HW1 5015   1.647   2.656   6.803
 1557SOL    HW2 5016   1.675   2.813   6.767
 1558SOL     OW 5017   1.225   2.187   6.035
 1558SOL    HW1 5018   1.290   2.113   6.024
 1558SOL    HW2 5019   1.245   2.237   6.119
 1559SOL     OW 5020   0.594   2.607   6.238
 1559SOL    HW1 5021   0.644   2.692   6.219
 1559SOL    HW2 5022   0.506   2.609   6.190
 1560SOL     OW 5023   0.859   3.236   5.602
 1560SOL    HW1 5024   0.813   3.251   5.690
 1560SOL    HW2 5025   0.903   3.321   5.572
 1561SOL     OW 5026   0.661   3.652   6.539
 1561SOL    HW1 5027   0.615   3.740   6.526
 1561SOL    HW2 5028   0.760   3.664   6.532
 1562SOL     OW 5029   0.859   2.818   6.447
 1562SOL    HW1 5030   0.913   2.749   6.495
 1562SOL    HW2 5031   0.827   2.887   6.513
 1563SOL     OW 5032   1.083   2.846   5.673
 1563SOL    HW1 5033   1.060   2.899   5.591
 1563SOL    HW2 5034   1.164   2.790   5.654
 1564SOL     OW 5035   1.861   3.431   6.437
 1564SOL    HW1 5036   1.790   3.419   6.367
 1564SOL    HW2 5037   1.862   3.352   6.497
 1565SOL     OW 5038   0.079   3.102   6.239
 1565SOL    HW1 5039   0.078   3.055   6.327
 1565SOL    HW2 5040   0.161   3.074   6.188
 1566SOL     OW 5041   1.824   2.054   6.813
 1566SOL    HW1 5042   1.820   1.964   6.857
 1566SOL    HW2 5043   1.827   2.043   6.714
 1567SOL     OW 5044   0.428   2.286   6.106
 1567SOL    HW1 5045   0.458   2.214   6.044
 1567SOL    HW2 5046   0.389   2.246   6.189
 1568SOL     OW 5047   1.705   3.349   6.690
 1568SOL    HW1 5048   1.612   3.324   6.663
 1568SOL    HW2 5049   1.731   3.299   6.772
 1569SOL     OW 5050   0.317   2.409   6.866
 1569SOL    HW1 5051   0.355   2.350   6.938
 1569SOL    HW2 5052   0.357   2.383   6.778
 1570SOL     OW 5053   0.812   3.448   6.273
 1570SOL    HW1 5054   0.844   3.458   6.179
 1570SOL    HW2 5055   0.733   3.386   6.275
 1571SOL     OW 5056   1.424   2.076   6.698
 1571SOL    HW1 5057   1.476   2.011   6.753
 1571SOL    HW2 5058   1.375   2.139   6.759
 1572SOL     OW 5059   1.001   1.896   6.740
 1572SOL    HW1 5060   0.938   1.824   6.709
 1572SOL    HW2 5061   1.094   1.860   6.740
 1573SOL     OW 5062   0.770   3.192   5.887
 1573SOL    HW1 5063   0.724   3.105   5.904
 1573SOL    HW2 5064   0.861   3.189   5.928
 1574SOL     OW 5065   1.352   1.914   5.754
 1574SOL    HW1 5066   1.387   1.873   5.670
 1574SOL    HW2 5067   1.262   1.876   5.774
 1575SOL     OW 5068   1.300   2.315   6.277
 1575SOL    HW1 5069   1.241   2.395   6.281
 1575SOL    HW2 5070   1.315   2.280   6.370
 1576SOL     OW 5071   1.593   2.083   6.468
 1576SOL    HW1 5072   1.509   2.082   6.522
 1576SOL    HW2 5073   1.595   2.166   6.412
 1577SOL     OW 5074   0.039   2.939   5.886
 1577SOL    HW1 5075   0.138   2.928   5.877
 1577SOL    HW2 5076  -0.001   2.853   5.918
 1578SOL     OW 5077   0.875   3.508   5.923
 1578SOL    HW1 5078   0.798   3.473   5.869
 1578SOL    HW2 5079   0.843   3.579   5.985
 1579SOL     OW 5080   0.230   4.352   0.113
 1579SOL    HW1 5081   0.137   4.350   0.150
 1579SOL    HW2 5082   0.231   4.313   0.021
 1580SOL     OW 5083   0.225   3.999   0.996
 1580SOL    HW1 5084   0.260   3.982   1.088
 1580SOL    HW2 5085   0.137   3.954   0.984
 1581SOL     OW 5086   0.019   4.092   0.647
 1581SOL    HW1 5087  -0.063   4.135   0.686
 1581SOL    HW2 5088  -0.009   4.019   0.584
 1582SOL     OW 5089   0.569   4.999   1.165
 1582SOL    HW1 5090   0.476   4.992   1.128
 1582SOL    HW2 5091   0.580   5.088   1.209
 1583SOL     OW 5092   1.555   5.235   0.703
 1583SOL    HW1 5093   1.498   5.219   0.784
 1583SOL    HW2 5094   1.496   5.245   0.623
 1584SOL     OW 5095   1.135   4.427   0.717
 1584SOL    HW1 5096   1.192   4.505   0.692
 1584SOL    HW2 5097   1.075   4.453   0.793
 1585SOL     OW 5098   1.755   4.331   0.231
 1585SOL    HW1 5099   1.743   4.318   0.132
 1585SOL    HW2 5100   1.725   4.250   0.280
 1586SOL     OW 5101   0.768   4.868   1.023
 1586SOL    HW1 5102   0.690   4.885   1.083
 1586SOL    HW2 5103   0.802   4.955   0.987
 1587SOL     OW 5104   0.850   4.522   1.823
 1587SOL    HW1 5105   0.846   4.598   1.888
 1587SOL    HW2 5106   0.872   4.558   1.732
 1588SOL     OW 5107   0.685   4.736   0.665
 1588SOL    HW1 5108   0.754   4.720   0.735
 1588SOL    HW2 5109   0.612   4.793   0.703
 1589SOL     OW 5110   0.686   4.885   1.803
 1589SOL    HW1 5111   0.746   4.964   1.817
 1589SOL    HW2 5112   0.600   4.916   1.762
 1590SOL     OW 5113   0.335   5.159   1.061
 1590SOL    HW1 5114   0.257   5.128   1.008
 1590SOL    HW2 5115   0.393   5.217   1.004
 1591SOL     OW 5116   1.460   5.229   1.339
 1591SOL    HW1 5117   1.484   5.323   1.365
 1591SOL    HW2 5118   1.444   5.175   1.421
 1592SOL     OW 5119   0.438   4.116   1.499
 1592SOL    HW1 5120   0.520   4.060   1.508
 1592SOL    HW2 5121   0.357   4.058   1.503
 1593SOL     OW 5122   1.603   4.171   0.737
 1593SOL    HW1 5123   1.529   4.217   0.687
 1593SOL    HW2 5124   1.654   4.239   0.790
 1594SOL     OW 5125   0.231   5.437   0.483
 1594SOL    HW1 5126   0.265   5.514   0.537
 1594SOL    HW2 5127   0.275   5.437   0.393
 1595SOL     OW 5128   1.127   5.065   1.690
 1595SOL    HW1 5129   1.174   5.065   1.778
 1595SOL    HW2 5130   1.079   4.978   1.679
 1596SOL     OW 5131   0.230   5.158   0.538
 1596SOL    HW1 5132   0.204   5.254   0.538
 1596SOL    HW2 5133   0.159   5.104   0.583
 1597SOL     OW 5134   0.240   4.815   0.886
 1597SOL    HW1 5135   0.254   4.731   0.938
 1597SOL    HW2 5136   0.185   4.879   0.941
 1598SOL     OW 5137   0.620   5.510   1.439
 1598SOL    HW1 5138   0.528   5.493   1.474
 1598SOL    HW2 5139   0.648   5.602   1.465
 1599SOL     OW 5140   0.606   4.688   0.123
 1599SOL    HW1 5141   0.613   4.772   0.069
 1599SOL    HW2 5142   0.652   4.701   0.211
 1600SOL     OW 5143   1.594   3.838   1.480
 1600SOL    HW1 5144   1.576   3.905   1.408
 1600SOL    HW2 5145   1.591   3.884   1.569
 1601SOL     OW 5146   0.122   4.367   0.563
 1601SOL    HW1 5147   0.077   4.279   0.580
 1601SOL    HW2 5148   0.121   4.421   0.647
 1602SOL     OW 5149   1.842   5.491   0.359
 1602SOL    HW1 5150   1.896   5.462   0.439
 1602SOL    HW2 5151   1.872   5.581   0.330
 1603SOL     OW 5152   0.027   5.320   0.117
 1603SOL    HW1 5153   0.008   5.224   0.138
 1603SOL    HW2 5154  -0.006   5.378   0.192
 1604SOL     OW 5155   1.689   4.646   0.612
 1604SOL    HW1 5156   1.784   4.617   0.620
 1604SOL    HW2 5157   1.681   4.711   0.537
 1605SOL     OW 5158   1.641   4.832   0.432
 1605SOL    HW1 5159   1.727   4.834   0.380
 1605SOL    HW2 5160   1.655   4.879   0.520
 1606SOL     OW 5161   0.113   4.461   1.597
 1606SOL    HW1 5162   0.201   4.448   1.642
 1606SOL    HW2 5163   0.100   4.558   1.575
 1607SOL     OW 5164   0.613   5.089   0.726
 1607SOL    HW1 5165   0.564   5.002   0.735
 1607SOL    HW2 5166   0.590   5.132   0.639
 1608SOL     OW 5167   1.293   4.952   1.423
 1608SOL    HW1 5168   1.330   4.879   1.365
 1608SOL    HW2 5169   1.345   4.957   1.508
 1609SOL     OW 5170   0.809   3.728   0.502
 1609SOL    HW1 5171   0.849   3.819   0.493
 1609SOL    HW2 5172   0.709   3.736   0.508
 1610SOL     OW 5173   0.197   4.700   1.264
 1610SOL    HW1 5174   0.286   4.655   1.250
 1610SOL    HW2 5175   0.124   4.635   1.245
 1611SOL     OW 5176   1.525   4.723   0.190
 1611SOL    HW1 5177   1.462   4.647   0.203
 1611SOL    HW2 5178   1.573   4.741   0.276
 1612SOL     OW 5179   1.187   5.516   1.616
 1612SOL    HW1 5180   1.211   5.576   1.540
 1612SOL    HW2 5181   1.194   5.421   1.586
 1613SOL     OW 5182   0.317   3.975   1.801
 1613SOL    HW1 5183   0.388   4.046   1.807
 1613SOL    HW2 5184   0.229   4.014   1.829
 1614SOL     OW 5185   1.466   5.141   0.953
 1614SOL    HW1 5186   1.407   5.147   1.033
 1614SOL    HW2 5187   1.451   5.053   0.907
 1615SOL     OW 5188   1.667   5.438   0.572
 1615SOL    HW1 5189   1.626   5.415   0.484
 1615SOL    HW2 5190   1.649   5.364   0.637
 1616SOL     OW 5191   0.598   4.453   0.270
 1616SOL    HW1 5192   0.622   4.522   0.202
 1616SOL    HW2 5193   0.520   4.486   0.324
 1617SOL     OW 5194   1.281   4.069   0.944
 1617SOL    HW1 5195   1.195   4.019   0.931
 1617SOL    HW2 5196   1.343   4.015   1.000
 1618SOL     OW 5197   1.576   5.386   0.307
 1618SOL    HW1 5198   1.665   5.432   0.310
 1618SOL    HW2 5199   1.555   5.362   0.212
 1619SOL     OW 5200   0.807   4.329   1.465
 1619SOL    HW1 5201   0.760   4.326   1.554
 1619SOL    HW2 5202   0.756   4.274   1.399
 1620SOL     OW 5203   1.394   4.193   1.674
 1620SOL    HW1 5204   1.374   4.236   1.762
 1620SOL    HW2 5205   1.472   4.131   1.683
 1621SOL     OW 5206   0.973   4.614   1.572
 1621SOL    HW1 5207   1.019   4.530   1.543
 1621SOL    HW2 5208   0.917   4.648   1.497
 1622SOL     OW 5209   0.991   4.134   1.242
 1622SOL    HW1 5210   0.914   4.168   1.296
 1622SOL    HW2 5211   0.957   4.083   1.163
 1623SOL     OW 5212   1.041   4.425   0.429
 1623SOL    HW1 5213   1.067   4.421   0.525
 1623SOL    HW2 5214   0.956   4.374   0.415
 1624SOL     OW 5215   0.076   4.535   0.789
 1624SOL    HW1 5216   0.175   4.523   0.798
 1624SOL    HW2 5217   0.052   4.630   0.810
 1625SOL     OW 5218   0.130   5.545   1.571
 1625SOL    HW1 5219   0.120   5.530   1.670
 1625SOL    HW2 5220   0.044   5.581   1.535
 1626SOL     OW 5221   0.865   4.072   0.195
 1626SOL    HW1 5222   0.924   4.135   0.146
 1626SOL    HW2 5223   0.884   3.978   0.166
 1627SOL     OW 5224   1.719   4.309   1.831
 1627SOL    HW1 5225   1.693   4.398   1.795
 1627SOL    HW2 5226   1.717   4.241   1.758
 1628SOL     OW 5227   1.362   4.868   0.545
 1628SOL    HW1 5228   1.445   4.839   0.497
 1628SOL    HW2 5229   1.313   4.935   0.489
 1629SOL     OW 5230   0.550   3.920   0.885
 1629SOL    HW1 5231   0.545   3.915   0.985
 1629SOL    HW2 5232   0.552   4.016   0.856
 1630SOL     OW 5233   1.008   5.180   0.477
 1630SOL    HW1 5234   0.962   5.252   0.425
 1630SOL    HW2 5235   1.004   5.200   0.575
 1631SOL     OW 5236   0.351   5.525   0.853
 1631SOL    HW1 5237   0.401   5.439   0.859
 1631SOL    HW2 5238   0.416   5.602   0.850
 1632SOL     OW 5239   1.795   4.790   0.873
 1632SOL    HW1 5240   1.733   4.775   0.797
 1632SOL    HW2 5241   1.743   4.801   0.958
 1633SOL     OW 5242   1.227   5.274   1.506
 1633SOL    HW1 5243   1.233   5.197   1.570
 1633SOL    HW2 5244   1.175   5.248   1.426
 1634SOL     OW 5245   0.321   4.667   0.242
 1634SOL    HW1 5246   0.403   4.706   0.200
 1634SOL    HW2 5247   0.294   4.585   0.193
 1635SOL     OW 5248   1.458   4.459   0.728
 1635SOL    HW1 5249   1.453   4.394   0.803
 1635SOL    HW2 5250   1.538   4.518   0.741
 1636SOL     OW 5251   0.461   4.990   1.727
 1636SOL    HW1 5252   0.411   4.991   1.641
 1636SOL    HW2 5253   0.398   4.972   1.803
 1637SOL     OW 5254   1.111   5.500   0.237
 1637SOL    HW1 5255   1.051   5.438   0.287
 1637SOL    HW2 5256   1.142   5.456   0.152
 1638SOL     OW 5257   0.202   4.009   1.498
 1638SOL    HW1 5258   0.122   4.069   1.485
 1638SOL    HW2 5259   0.192   3.960   1.584
 1639SOL     OW 5260   1.632   5.101   0.081
 1639SOL    HW1 5261   1.600   5.195   0.071
 1639SOL    HW2 5262   1.556   5.038   0.069
 1640SOL     OW 5263   0.464   5.467   0.323
 1640SOL    HW1 5264   0.497   5.506   0.409
 1640SOL    HW2 5265   0.540   5.460   0.258
 1641SOL     OW 5266   1.400   3.831   0.426
 1641SOL    HW1 5267   1.376   3.794   0.336
 1641SOL    HW2 5268   1.499   3.847   0.430
 1642SOL     OW 5269   0.249   5.509   1.241
 1642SOL    HW1 5270   0.306   5.444   1.291
 1642SOL    HW2 5271   0.233   5.476   1.148
 1643SOL     OW 5272   0.940   5.422   0.904
 1643SOL    HW1 5273   1.020   5.365   0.925
 1643SOL    HW2 5274   0.891   5.382   0.827
 1644SOL     OW 5275   0.382   4.424   0.480
 1644SOL    HW1 5276   0.427   4.334   0.477
 1644SOL    HW2 5277   0.288   4.413   0.513
 1645SOL     OW 5278   1.547   3.946   1.729
 1645SOL    HW1 5279   1.542   3.983   1.821
 1645SOL    HW2 5280   1.475   3.877   1.717
 1646SOL     OW 5281   0.614   3.846   0.117
 1646SOL    HW1 5282   0.712   3.824   0.124
 1646SOL    HW2 5283   0.583   3.829   0.024
 1647SOL     OW 5284   0.781   3.988   1.749
 1647SOL    HW1 5285   0.848   3.927   1.792
 1647SOL    HW2 5286   0.708   4.007   1.814
 1648SOL     OW 5287   0.888   5.238   1.195
 1648SOL    HW1 5288   0.865   5.213   1.101
 1648SOL    HW2 5289   0.949   5.169   1.234
 1649SOL     OW 5290   1.351   4.314   1.433
 1649SOL    HW1 5291   1.379   4.271   1.518
 1649SOL    HW2 5292   1.376   4.410   1.434
 1650SOL     OW 5293   0.803   5.126   0.924
 1650SOL    HW1 5294   0.893   5.140   0.882
 1650SOL    HW2 5295   0.732   5.128   0.853
 1651SOL     OW 5296   0.922   4.227   0.899
 1651SOL    HW1 5297   0.897   4.218   0.803
 1651SOL    HW2 5298   0.970   4.145   0.930
 1652SOL     OW 5299   0.539   3.788   0.512
 1652SOL    HW1 5300   0.458   3.789   0.570
 1652SOL    HW2 5301   0.542   3.871   0.457
 1653SOL     OW 5302   1.434   4.912   0.041
 1653SOL    HW1 5303   1.466   4.836   0.098
 1653SOL    HW2 5304   1.342   4.939   0.071
 1654SOL     OW 5305   0.297   3.759   0.171
 1654SOL    HW1 5306   0.346   3.843   0.150
 1654SOL    HW2 5307   0.359   3.694   0.216
 1655SOL     OW 5308   0.935   3.960   0.480
 1655SOL    HW1 5309   0.887   4.001   0.402
 1655SOL    HW2 5310   1.034   3.958   0.461
 1656SOL     OW 5311   1.076   4.407   1.464
 1656SOL    HW1 5312   0.996   4.346   1.467
 1656SOL    HW2 5313   1.157   4.354   1.440
 1657SOL     OW 5314   1.227   5.294   0.793
 1657SOL    HW1 5315   1.248   5.368   0.728
 1657SOL    HW2 5316   1.295   5.294   0.866
 1658SOL     OW 5317   0.459   4.876   0.741
 1658SOL    HW1 5318   0.388   4.849   0.806
 1658SOL    HW2 5319   0.433   4.848   0.648
 1659SOL     OW 5320   1.271   5.521   0.591
 1659SOL    HW1 5321   1.315   5.585   0.527
 1659SOL    HW2 5322   1.221   5.573   0.661
 1660SOL     OW 5323   1.032   4.273   0.016
 1660SOL    HW1 5324   0.991   4.355  -0.023
 1660SOL    HW2 5325   1.096   4.299   0.089
 1661SOL     OW 5326   0.078   4.280   1.386
 1661SOL    HW1 5327   0.170   4.279   1.345
 1661SOL    HW2 5328   0.072   4.354   1.453
 1662SOL     OW 5329   0.561   3.946   1.147
 1662SOL    HW1 5330   0.599   3.862   1.184
 1662SOL    HW2 5331   0.473   3.965   1.191
 1663SOL     OW 5332   0.866   4.178   0.642
 1663SOL    HW1 5333   0.834   4.250   0.580
 1663SOL    HW2 5334   0.890   4.097   0.589
 1664SOL     OW 5335   1.017   3.763   0.753
 1664SOL    HW1 5336   0.945   3.768   0.684
 1664SOL    HW2 5337   0.993   3.694   0.822
 1665SOL     OW 5338   1.429   4.897   0.867
 1665SOL    HW1 5339   1.374   4.813   0.860
 1665SOL    HW2 5340   1.455   4.926   0.775
 1666SOL     OW 5341   1.466   4.314   0.992
 1666SOL    HW1 5342   1.436   4.219   0.999
 1666SOL    HW2 5343   1.539   4.330   1.058
 1667SOL     OW 5344   1.857   4.557   0.377
 1667SOL    HW1 5345   1.899   4.493   0.441
 1667SOL    HW2 5346   1.819   4.506   0.299
 1668SOL     OW 5347   0.488   5.109   0.174
 1668SOL    HW1 5348   0.401   5.094   0.221
 1668SOL    HW2 5349   0.471   5.135   0.079
 1669SOL     OW 5350   1.664   5.004   0.657
 1669SOL    HW1 5351   1.763   5.012   0.671
 1669SOL    HW2 5352   1.619   5.088   0.688
 1670SOL     OW 5353   1.390   4.299   0.078
 1670SOL    HW1 5354   1.336   4.278   0.159
 1670SOL    HW2 5355   1.481   4.258   0.087
 1671SOL     OW 5356   0.527   3.980   0.328
 1671SOL    HW1 5357   0.554   3.921   0.253
 1671SOL    HW2 5358   0.527   4.075   0.297
 1672SOL     OW 5359   1.754   4.947   1.588
 1672SOL    HW1 5360   1.845   4.908   1.575
 1672SOL    HW2 5361   1.762   5.043   1.612
 1673SOL     OW 5362   1.064   5.071   1.340
 1673SOL    HW1 5363   0.984   5.048   1.395
 1673SOL    HW2 5364   1.147   5.045   1.389
 1674SOL     OW 5365   1.592   5.353   1.625
 1674SOL    HW1 5366   1.619   5.387   1.535
 1674SOL    HW2 5367   1.671   5.315   1.671
 1675SOL     OW 5368   1.111   4.919   1.100
 1675SOL    HW1 5369   1.071   4.963   1.181
 1675SOL    HW2 5370   1.070   4.956   1.017
 1676SOL     OW 5371   1.638   4.823   1.079
 1676SOL    HW1 5372   1.643   4.904   1.138
 1676SOL    HW2 5373   1.552   4.825   1.028
 1677SOL     OW 5374   0.915   3.813   1.402
 1677SOL    HW1 5375   0.940   3.793   1.307
 1677SOL    HW2 5376   0.987   3.869   1.444
 1678SOL     OW 5377   0.980   4.840   1.719
 1678SOL    HW1 5378   0.881   4.846   1.729
 1678SOL    HW2 5379   1.003   4.760   1.663
 1679SOL     OW 5380   0.705   4.774   0.368
 1679SOL    HW1 5381   0.691   4.781   0.467
 1679SOL    HW2 5382   0.789   4.723   0.350
 1680SOL     OW 5383   0.410   4.537   1.251
 1680SOL    HW1 5384   0.496   4.549   1.301
 1680SOL    HW2 5385   0.368   4.450   1.278
 1681SOL     OW 5386   1.274   4.110   1.262
 1681SOL    HW1 5387   1.295   4.184   1.326
 1681SOL    HW2 5388   1.185   4.127   1.219
 1682SOL     OW 5389   0.064   5.288   1.331
 1682SOL    HW1 5390   0.018   5.370   1.297
 1682SOL    HW2 5391   0.162   5.307   1.340
 1683SOL     OW 5392   0.367   4.824   0.501
 1683SOL    HW1 5393   0.360   4.907   0.445
 1683SOL    HW2 5394   0.371   4.744   0.441
 1684SOL     OW 5395   0.566   4.261   0.865
 1684SOL    HW1 5396   0.578   4.327   0.791
 1684SOL    HW2 5397   0.612   4.295   0.948
 1685SOL     OW 5398   1.252   5.072   0.388
 1685SOL    HW1 5399   1.302   5.149   0.428
 1685SOL    HW2 5400   1.157   5.074   0.420
 1686SOL     OW 5401   1.272   5.169   1.142
 1686SOL    HW1 5402   1.319   5.182   1.229
 1686SOL    HW2 5403   1.206   5.095   1.151
 1687SOL     OW 5404   1.582   4.363   0.472
 1687SOL    HW1 5405   1.551   4.424   0.545
 1687SOL    HW2 5406   1.632   4.415   0.403
 1688SOL     OW 5407   0.354   5.234   1.329
 1688SOL    HW1 5408   0.333   5.190   1.242
 1688SOL    HW2 5409   0.451   5.260   1.332
 1689SOL     OW 5410   0.402   4.475   1.598
 1689SOL    HW1 5411   0.470   4.530   1.551
 1689SOL    HW2 5412   0.442   4.387   1.625
 1690SOL     OW 5413   1.587   4.503   1.670
 1690SOL    HW1 5414   1.495   4.541   1.665
 1690SOL    HW2 5415   1.647   4.550   1.605
 1691SOL     OW 5416   1.013   3.829   1.770
 1691SOL    HW1 5417   1.019   3.914   1.718
 1691SOL    HW2 5418   1.045   3.753   1.713
 1692SOL     OW 5419   0.504   3.774   1.740
 1692SOL    HW1 5420   0.462   3.717   1.670
 1692SOL    HW2 5421   0.438   3.843   1.772
 1693SOL     OW 5422   0.573   4.594   1.029
 1693SOL    HW1 5423   0.617   4.683   1.020
 1693SOL    HW2 5424   0.510   4.594   1.106
 1694SOL     OW 5425   1.360   4.586   1.045
 1694SOL    HW1 5426   1.285   4.586   0.979
 1694SOL    HW2 5427   1.397   4.494   1.054
 1695SOL     OW 5428   1.209   4.249   0.275
 1695SOL    HW1 5429   1.222   4.165   0.329
 1695SOL    HW2 5430   1.180   4.323   0.335
 1696SOL     OW 5431   0.307   3.937   1.231
 1696SOL    HW1 5432   0.284   3.974   1.321
 1696SOL    HW2 5433   0.277   3.842   1.225
 1697SOL     OW 5434   0.037   5.034   1.282
 1697SOL    HW1 5435   0.090   4.985   1.350
 1697SOL    HW2 5436   0.059   5.132   1.287
 1698SOL     OW 5437   0.732   4.358   1.064
 1698SOL    HW1 5438   0.791   4.332   0.988
 1698SOL    HW2 5439   0.704   4.454   1.053
 1699SOL     OW 5440   1.728   4.659   1.854
 1699SOL    HW1 5441   1.682   4.652   1.765
 1699SOL    HW2 5442   1.666   4.703   1.920
 1700SOL     OW 5443   0.307   3.787   0.618
 1700SOL    HW1 5444   0.296   3.881   0.651
 1700SOL    HW2 5445   0.302   3.724   0.695
 1701SOL     OW 5446   1.622   4.091   0.374
 1701SOL    HW1 5447   1.624   4.015   0.438
 1701SOL    HW2 5448   1.574   4.168   0.414
 1702SOL     OW 5449   1.023   4.490   0.966
 1702SOL    HW1 5450   1.038   4.511   1.062
 1702SOL    HW2 5451   0.993   4.395   0.957
 1703SOL     OW 5452   0.980   5.297   1.700
 1703SOL    HW1 5453   0.960   5.341   1.612
 1703SOL    HW2 5454   1.019   5.206   1.684
 1704SOL     OW 5455   1.859   5.242   1.605
 1704SOL    HW1 5456   1.873   5.269   1.510
 1704SOL    HW2 5457   1.942   5.264   1.658
 1705SOL     OW 5458   0.350   4.622   1.804
 1705SOL    HW1 5459   0.426   4.666   1.852
 1705SOL    HW2 5460   0.385   4.575   1.722
 1706SOL     OW 5461   1.540   3.998   0.125
 1706SOL    HW1 5462   1.479   3.923   0.148
 1706SOL    HW2 5463   1.562   4.050   0.208
 1707SOL     OW 5464   1.303   4.562   0.042
 1707SOL    HW1 5465   1.337   4.469   0.057
 1707SOL    HW2 5466   1.321   4.589  -0.053
 1708SOL     OW 5467   1.068   5.057   0.849
 1708SOL    HW1 5468   1.075   4.973   0.794
 1708SOL    HW2 5469   1.130   5.126   0.813
 1709SOL     OW 5470   0.319   4.534   0.949
 1709SOL    HW1 5471   0.412   4.570   0.954
 1709SOL    HW2 5472   0.313   4.449   1.001
 1710SOL     OW 5473   0.339   4.233   1.006
 1710SOL    HW1 5474   0.287   4.150   0.989
 1710SOL    HW2 5475   0.416   4.238   0.942
 1711SOL     OW 5476   1.138   4.104   1.678
 1711SOL    HW1 5477   1.093   4.167   1.742
 1711SOL    HW2 5478   1.231   4.135   1.661
 1712SOL     OW 5479   1.160   3.931   1.477
 1712SOL    HW1 5480   1.160   3.995   1.554
 1712SOL    HW2 5481   1.188   3.979   1.394
 1713SOL     OW 5482   0.008   5.050   0.200
 1713SOL    HW1 5483  -0.085   5.071   0.169
 1713SOL    HW2 5484   0.018   4.951   0.213
 1714SOL     OW 5485   0.088   5.525   0.927
 1714SOL    HW1 5486   0.046   5.439   0.900
 1714SOL    HW2 5487   0.182   5.528   0.893
 1715SOL     OW 5488   0.504   5.292   0.910
 1715SOL    HW1 5489   0.570   5.366   0.919
 1715SOL    HW2 5490   0.548   5.213   0.868
 1716SOL     OW 5491   1.002   4.520   1.238
 1716SOL    HW1 5492   1.043   4.488   1.324
 1716SOL    HW2 5493   0.906   4.493   1.235
 1717SOL     OW 5494   0.040   4.268   1.114
 1717SOL    HW1 5495   0.125   4.235   1.073
 1717SOL    HW2 5496   0.053   4.283   1.212
 1718SOL     OW 5497   0.189   4.244   1.722
 1718SOL    HW1 5498   0.248   4.204   1.652
 1718SOL    HW2 5499   0.131   4.315   1.681
 1719SOL     OW 5500   1.369   4.674   1.660
 1719SOL    HW1 5501   1.408   4.763   1.680
 1719SOL    HW2 5502   1.379   4.654   1.563
 1720SOL     OW 5503   0.815   4.296   0.325
 1720SOL    HW1 5504   0.822   4.207   0.279
 1720SOL    HW2 5505   0.721   4.330   0.317
 1721SOL     OW 5506   1.657   4.328   1.206
 1721SOL    HW1 5507   1.619   4.259   1.268
 1721SOL    HW2 5508   1.739   4.292   1.162
 1722SOL     OW 5509   0.252   5.288   1.744
 1722SOL    HW1 5510   0.222   5.345   1.820
 1722SOL    HW2 5511   0.245   5.191   1.770
 1723SOL     OW 5512   0.671   4.188   1.269
 1723SOL    HW1 5513   0.637   4.099   1.239
 1723SOL    HW2 5514   0.697   4.242   1.189
 1724SOL     OW 5515   0.930   5.402   1.465
 1724SOL    HW1 5516   0.906   5.384   1.370
 1724SOL    HW2 5517   0.960   5.496   1.475
 1725SOL     OW 5518   0.473   4.224   0.191
 1725SOL    HW1 5519   0.534   4.304   0.195
 1725SOL    HW2 5520   0.378   4.255   0.198
 1726SOL     OW 5521   0.159   4.861   1.466
 1726SOL    HW1 5522   0.181   4.800   1.542
 1726SOL    HW2 5523   0.169   4.812   1.380
 1727SOL     OW 5524   1.347   4.783   1.234
 1727SOL    HW1 5525   1.371   4.720   1.160
 1727SOL    HW2 5526   1.257   4.823   1.216
 1728SOL     OW 5527   1.302   4.579   0.309
 1728SOL    HW1 5528   1.216   4.548   0.351
 1728SOL    HW2 5529   1.298   4.565   0.210
 1729SOL     OW 5530   1.759   5.471   1.154
 1729SOL    HW1 5531   1.820   5.501   1.081
 1729SOL    HW2 5532   1.721   5.382   1.132
 1730SOL     OW 5533   1.252   5.455   1.128
 1730SOL    HW1 5534   1.336   5.460   1.074
 1730SOL    HW2 5535   1.229   5.359   1.146
 1731SOL     OW 5536   0.083   4.982   1.022
 1731SOL    HW1 5537   0.078   4.981   1.122
 1731SOL    HW2 5538   0.000   4.941   0.984
 1732SOL     OW 5539   0.688   5.386   1.716
 1732SOL    HW1 5540   0.632   5.467   1.725
 1732SOL    HW2 5541   0.740   5.390   1.630
 1733SOL     OW 5542   0.903   3.810   0.133
 1733SOL    HW1 5543   0.954   3.811   0.047
 1733SOL    HW2 5544   0.959   3.768   0.204
 1734SOL     OW 5545   1.726   3.859   0.523
 1734SOL    HW1 5546   1.799   3.842   0.456
 1734SOL    HW2 5547   1.695   3.772   0.561
 1735SOL     OW 5548   1.388   5.297   0.477
 1735SOL    HW1 5549   1.455   5.309   0.403
 1735SOL    HW2 5550   1.348   5.386   0.500
 1736SOL     OW 5551   0.130   5.518   1.851
 1736SOL    HW1 5552   0.089   5.444   1.904
 1736SOL    HW2 5553   0.194   5.569   1.909
 1737SOL     OW 5554   1.280   4.651   0.672
 1737SOL    HW1 5555   1.340   4.570   0.674
 1737SOL    HW2 5556   1.320   4.720   0.612
 1738SOL     OW 5557   0.830   4.997   1.422
 1738SOL    HW1 5558   0.825   5.030   1.517
 1738SOL    HW2 5559   0.744   5.016   1.376
 1739SOL     OW 5560   0.672   5.340   0.154
 1739SOL    HW1 5561   0.681   5.350   0.055
 1739SOL    HW2 5562   0.632   5.251   0.175
 1740SOL     OW 5563   1.650   5.444   1.394
 1740SOL    HW1 5564   1.703   5.454   1.310
 1740SOL    HW2 5565   1.623   5.534   1.428
 1741SOL     OW 5566   1.841   3.899   0.963
 1741SOL    HW1 5567   1.880   3.814   0.927
 1741SOL    HW2 5568   1.743   3.901   0.944
 1742SOL     OW 5569   0.263   4.050   0.720
 1742SOL    HW1 5570   0.184   4.101   0.686
 1742SOL    HW2 5571   0.254   4.035   0.818
 1743SOL     OW 5572   1.194   5.336   0.031
 1743SOL    HW1 5573   1.200   5.243   0.068
 1743SOL    HW2 5574   1.135   5.336  -0.049
 1744SOL     OW 5575   0.822   4.726   1.372
 1744SOL    HW1 5576   0.862   4.725   1.280
 1744SOL    HW2 5577   0.832   4.818   1.412
 1745SOL     OW 5578   0.916   4.634   0.291
 1745SOL    HW1 5579   0.979   4.672   0.223
 1745SOL    HW2 5580   0.956   4.551   0.330
 1746SOL     OW 5581   1.504   5.331   0.044
 1746SOL    HW1 5582   1.412   5.368   0.051
 1746SOL    HW2 5583   1.542   5.351  -0.046
 1747SOL     OW 5584   0.372   5.012   1.490
 1747SOL    HW1 5585   0.359   5.105   1.456
 1747SOL    HW2 5586   0.288   4.960   1.477
 1748SOL     OW 5587   1.614   5.016   1.289
 1748SOL    HW1 5588   1.674   5.019   1.369
 1748SOL    HW2 5589   1.539   5.080   1.302
 1749SOL     OW 5590   1.039   4.822   0.696
 1749SOL    HW1 5591   0.969   4.775   0.750
 1749SOL    HW2 5592   1.098   4.754   0.653
 1750SOL     OW 5593   1.014   3.960   0.971
 1750SOL    HW1 5594   1.006   3.924   0.878
 1750SOL    HW2 5595   1.012   3.884   1.036
 1751SOL     OW 5596   0.590   5.211   0.491
 1751SOL    HW1 5597   0.632   5.153   0.421
 1751SOL    HW2 5598   0.546   5.290   0.447
 1752SOL     OW 5599   1.709   4.109   1.381
 1752SOL    HW1 5600   1.782   4.178   1.385
 1752SOL    HW2 5601   1.737   4.034   1.322
 1753SOL     OW 5602   0.255   5.072   0.290
 1753SOL    HW1 5603   0.159   5.073   0.263
 1753SOL    HW2 5604   0.267   5.125   0.374
 1754SOL     OW 5605   0.105   4.737   1.726
 1754SOL    HW1 5606   0.028   4.704   1.780
 1754SOL    HW2 5607   0.190   4.707   1.768
 1755SOL     OW 5608   0.672   3.927   1.489
 1755SOL    HW1 5609   0.762   3.911   1.449
 1755SOL    HW2 5610   0.680   3.932   1.588
 1756SOL     OW 5611   0.075   4.069   0.033
 1756SOL    HW1 5612  -0.017   4.041   0.004
 1756SOL    HW2 5613   0.106   4.146  -0.023
 1757SOL     OW 5614   1.440   4.580   1.398
 1757SOL    HW1 5615   1.383   4.632   1.335
 1757SOL    HW2 5616   1.536   4.592   1.374
 1758SOL     OW 5617   0.072   3.890   0.318
 1758SOL    HW1 5618   0.055   3.973   0.264
 1758SOL    HW2 5619   0.162   3.853   0.296
 1759SOL     OW 5620   1.183   5.059   0.119
 1759SOL    HW1 5621   1.084   5.048   0.121
 1759SOL    HW2 5622   1.217   5.074   0.212
 1760SOL     OW 5623   0.613   4.566   1.431
 1760SOL    HW1 5624   0.669   4.647   1.414
 1760SOL    HW2 5625   0.672   4.486   1.434
 1761SOL     OW 5626   1.493   5.491   0.959
 1761SOL    HW1 5627   1.526   5.555   0.890
 1761SOL    HW2 5628   1.559   5.485   1.034
 1762SOL     OW 5629   0.716   4.289   1.708
 1762SOL    HW1 5630   0.735   4.354   1.782
 1762SOL    HW2 5631   0.776   4.209   1.717
 1763SOL     OW 5632   1.450   4.944   1.633
 1763SOL    HW1 5633   1.441   4.934   1.732
 1763SOL    HW2 5634   1.546   4.937   1.607
 1764SOL     OW 5635   0.390   5.465   1.560
 1764SOL    HW1 5636   0.299   5.506   1.558
 1764SOL    HW2 5637   0.383   5.371   1.592
 1765SOL     OW 5638   1.674   4.607   1.254
 1765SOL    HW1 5639   1.647   4.518   1.217
 1765SOL    HW2 5640   1.675   4.675   1.181
 1766SOL     OW 5641   1.225   4.049   0.449
 1766SOL    HW1 5642   1.290   3.975   0.438
 1766SOL    HW2 5643   1.245   4.099   0.533
 1767SOL     OW 5644   0.594   4.469   0.652
 1767SOL    HW1 5645   0.644   4.554   0.633
 1767SOL    HW2 5646   0.506   4.471   0.604
 1768SOL     OW 5647   1.777   4.066   1.642
 1768SOL    HW1 5648   1.760   4.097   1.548
 1768SOL    HW2 5649   1.693   4.029   1.680
 1769SOL     OW 5650   1.730   4.658   1.517
 1769SOL    HW1 5651   1.768   4.749   1.532
 1769SOL    HW2 5652   1.722   4.641   1.418
 1770SOL     OW 5653   0.859   5.098   0.016
 1770SOL    HW1 5654   0.813   5.113   0.104
 1770SOL    HW2 5655   0.903   5.183  -0.014
 1771SOL     OW 5656   0.661   5.514   0.953
 1771SOL    HW1 5657   0.615   5.602   0.940
 1771SOL    HW2 5658   0.760   5.526   0.946
 1772SOL     OW 5659   0.859   4.680   0.861
 1772SOL    HW1 5660   0.913   4.611   0.909
 1772SOL    HW2 5661   0.827   4.749   0.927
 1773SOL     OW 5662   1.083   4.708   0.087
 1773SOL    HW1 5663   1.060   4.761   0.005
 1773SOL    HW2 5664   1.164   4.652   0.068
 1774SOL     OW 5665   1.861   5.293   0.851
 1774SOL    HW1 5666   1.790   5.281   0.781
 1774SOL    HW2 5667   1.862   5.214   0.911
 1775SOL     OW 5668   0.221   5.038   1.844
 1775SOL    HW1 5669   0.156   4.965   1.823
 1775SOL    HW2 5670   0.225   5.052   1.942
 1776SOL     OW 5671   0.079   4.964   0.653
 1776SOL    HW1 5672   0.078   4.917   0.741
 1776SOL    HW2 5673   0.161   4.936   0.602
 1777SOL     OW 5674   0.672   5.115   1.624
 1777SOL    HW1 5675   0.594   5.065   1.662
 1777SOL    HW2 5676   0.669   5.210   1.655
 1778SOL     OW 5677   1.824   3.916   1.227
 1778SOL    HW1 5678   1.820   3.826   1.271
 1778SOL    HW2 5679   1.827   3.905   1.128
 1779SOL     OW 5680   0.428   4.148   0.520
 1779SOL    HW1 5681   0.458   4.076   0.458
 1779SOL    HW2 5682   0.389   4.108   0.603
 1780SOL     OW 5683   1.705   5.211   1.104
 1780SOL    HW1 5684   1.612   5.186   1.077
 1780SOL    HW2 5685   1.731   5.161   1.186
 1781SOL     OW 5686   0.317   4.271   1.280
 1781SOL    HW1 5687   0.355   4.212   1.352
 1781SOL    HW2 5688   0.357   4.245   1.192
 1782SOL     OW 5689   0.812   5.310   0.687
 1782SOL    HW1 5690   0.844   5.320   0.593
 1782SOL    HW2 5691   0.733   5.248   0.689
 1783SOL     OW 5692   1.424   3.938   1.112
 1783SOL    HW1 5693   1.476   3.873   1.167
 1783SOL    HW2 5694   1.375   4.001   1.173
 1784SOL     OW 5695   1.001   3.758   1.154
 1784SOL    HW1 5696   0.938   3.686   1.123
 1784SOL    HW2 5697   1.094   3.722   1.154
 1785SOL     OW 5698   0.770   5.054   0.301
 1785SOL    HW1 5699   0.724   4.967   0.318
 1785SOL    HW2 5700   0.861   5.051   0.342
 1786SOL     OW 5701   0.618   5.291   1.284
 1786SOL    HW1 5702   0.613   5.373   1.341
 1786SOL    HW2 5703   0.707   5.288   1.239
 1787SOL     OW 5704   1.352   3.776   0.168
 1787SOL    HW1 5705   1.387   3.735   0.084
 1787SOL    HW2 5706   1.262   3.738   0.188
 1788SOL     OW 5707   1.300   4.177   0.691
 1788SOL    HW1 5708   1.241   4.257   0.695
 1788SOL    HW2 5709   1.315   4.142   0.784
 1789SOL     OW 5710   1.593   3.945   0.882
 1789SOL    HW1 5711   1.509   3.944   0.936
 1789SOL    HW2 5712   1.595   4.028   0.826
 1790SOL     OW 5713   0.039   4.801   0.300
 1790SOL    HW1 5714   0.138   4.790   0.291
 1790SOL    HW2 5715  -0.001   4.715   0.332
 1791SOL     OW 5716   0.875   5.370   0.337
 1791SOL    HW1 5717   0.798   5.335   0.283
 1791SOL    HW2 5718   0.843   5.441   0.399
 1792SOL     OW 5719   0.230   4.352   1.975
 1792SOL    HW1 5720   0.137   4.350   2.012
 1792SOL    HW2 5721   0.231   4.313   1.883
 1793SOL     OW 5722   0.225   3.999   2.858
 1793SOL    HW1 5723   0.260   3.982   2.950
 1793SOL    HW2 5724   0.137   3.954   2.846
 1794SOL     OW 5725   0.019   4.092   2.509
 1794SOL    HW1 5726  -0.063   4.135   2.548
 1794SOL    HW2 5727  -0.009   4.019   2.446
 1795SOL     OW 5728   0.569   4.999   3.027
 1795SOL    HW1 5729   0.476   4.992   2.990
 1795SOL    HW2 5730   0.580   5.088   3.071
 1796SOL     OW 5731   1.555   5.235   2.565
 1796SOL    HW1 5732   1.498   5.219   2.646
 1796SOL    HW2 5733   1.496   5.245   2.485
 1797SOL     OW 5734   1.135   4.427   2.579
 1797SOL    HW1 5735   1.192   4.505   2.554
 1797SOL    HW2 5736   1.075   4.453   2.655
 1798SOL     OW 5737   1.755   4.331   2.093
 1798SOL    HW1 5738   1.743   4.318   1.994
 1798SOL    HW2 5739   1.725   4.250   2.142
 1799SOL     OW 5740   0.768   4.868   2.885
 1799SOL    HW1 5741   0.690   4.885   2.945
 1799SOL    HW2 5742   0.802   4.955   2.849
 1800SOL     OW 5743   0.850   4.522   3.685
 1800SOL    HW1 5744   0.846   4.598   3.750
 1800SOL    HW2 5745   0.872   4.558   3.594
 1801SOL     OW 5746   0.685   4.736   2.527
 1801SOL    HW1 5747   0.754   4.720   2.597
 1801SOL    HW2 5748   0.612   4.793   2.565
 1802SOL     OW 5749   0.686   4.885   3.665
 1802SOL    HW1 5750   0.746   4.964   3.679
 1802SOL    HW2 5751   0.600   4.916   3.624
 1803SOL     OW 5752   0.335   5.159   2.923
 1803SOL    HW1 5753   0.257   5.128   2.870
 1803SOL    HW2 5754   0.393   5.217   2.866
 1804SOL     OW 5755   1.460   5.229   3.201
 1804SOL    HW1 5756   1.484   5.323   3.227
 1804SOL    HW2 5757   1.444   5.175   3.283
 1805SOL     OW 5758   0.438   4.116   3.361
 1805SOL    HW1 5759   0.520   4.060   3.370
 1805SOL    HW2 5760   0.357   4.058   3.365
 1806SOL     OW 5761   1.603   4.171   2.599
 1806SOL    HW1 5762   1.529   4.217   2.549
 1806SOL    HW2 5763   1.654   4.239   2.652
 1807SOL     OW 5764   0.231   5.437   2.345
 1807SOL    HW1 5765   0.265   5.514   2.399
 1807SOL    HW2 5766   0.275   5.437   2.255
 1808SOL     OW 5767   1.127   5.065   3.552
 1808SOL    HW1 5768   1.174   5.065   3.640
 1808SOL    HW2 5769   1.079   4.978   3.541
 1809SOL     OW 5770   0.230   5.158   2.400
 1809SOL    HW1 5771   0.204   5.254   2.400
 1809SOL    HW2 5772   0.159   5.104   2.445
 1810SOL     OW 5773   0.240   4.815   2.748
 1810SOL    HW1 5774   0.254   4.731   2.800
 1810SOL    HW2 5775   0.185   4.879   2.803
 1811SOL     OW 5776   0.620   5.510   3.301
 1811SOL    HW1 5777   0.528   5.493   3.336
 1811SOL    HW2 5778   0.648   5.602   3.327
 1812SOL     OW 5779   0.606   4.688   1.985
 1812SOL    HW1 5780   0.613   4.772   1.931
 1812SOL    HW2 5781   0.652   4.701   2.073
 1813SOL     OW 5782   1.594   3.838   3.342
 1813SOL    HW1 5783   1.576   3.905   3.270
 1813SOL    HW2 5784   1.591   3.884   3.431
 1814SOL     OW 5785   0.122   4.367   2.425
 1814SOL    HW1 5786   0.077   4.279   2.442
 1814SOL    HW2 5787   0.121   4.421   2.509
 1815SOL     OW 5788   1.842   5.491   2.221
 1815SOL    HW1 5789   1.896   5.462   2.301
 1815SOL    HW2 5790   1.872   5.581   2.192
 1816SOL     OW 5791   0.027   5.320   1.979
 1816SOL    HW1 5792   0.008   5.224   2.000
 1816SOL    HW2 5793  -0.006   5.378   2.054
 1817SOL     OW 5794   1.689   4.646   2.474
 1817SOL    HW1 5795   1.784   4.617   2.482
 1817SOL    HW2 5796   1.681   4.711   2.399
 1818SOL     OW 5797   1.641   4.832   2.294
 1818SOL    HW1 5798   1.727   4.834   2.242
 1818SOL    HW2 5799   1.655   4.879   2.382
 1819SOL     OW 5800   0.113   4.461   3.459
 1819SOL    HW1 5801   0.201   4.448   3.504
 1819SOL    HW2 5802   0.100   4.558   3.437
 1820SOL     OW 5803   0.613   5.089   2.588
 1820SOL    HW1 5804   0.564   5.002   2.597
 1820SOL    HW2 5805   0.590   5.132   2.501
 1821SOL     OW 5806   1.293   4.952   3.285
 1821SOL    HW1 5807   1.330   4.879   3.227
 1821SOL    HW2 5808   1.345   4.957   3.370
 1822SOL     OW 5809   0.809   3.728   2.364
 1822SOL    HW1 5810   0.849   3.819   2.355
 1822SOL    HW2 5811   0.709   3.736   2.370
 1823SOL     OW 5812   0.197   4.700   3.126
 1823SOL    HW1 5813   0.286   4.655   3.112
 1823SOL    HW2 5814   0.124   4.635   3.107
 1824SOL     OW 5815   1.525   4.723   2.052
 1824SOL    HW1 5816   1.462   4.647   2.065
 1824SOL    HW2 5817   1.573   4.741   2.138
 1825SOL     OW 5818   1.187   5.516   3.478
 1825SOL    HW1 5819   1.211   5.576   3.402
 1825SOL    HW2 5820   1.194   5.421   3.448
 1826SOL     OW 5821   0.317   3.975   3.663
 1826SOL    HW1 5822   0.388   4.046   3.669
 1826SOL    HW2 5823   0.229   4.014   3.691
 1827SOL     OW 5824   1.466   5.141   2.815
 1827SOL    HW1 5825   1.407   5.147   2.895
 1827SOL    HW2 5826   1.451   5.053   2.769
 1828SOL     OW 5827   1.667   5.438   2.434
 1828SOL    HW1 5828   1.626   5.415   2.346
 1828SOL    HW2 5829   1.649   5.364   2.499
 1829SOL     OW 5830   0.598   4.453   2.132
 1829SOL    HW1 5831   0.622   4.522   2.064
 1829SOL    HW2 5832   0.520   4.486   2.186
 1830SOL     OW 5833   1.281   4.069   2.806
 1830SOL    HW1 5834   1.195   4.019   2.793
 1830SOL    HW2 5835   1.343   4.015   2.862
 1831SOL     OW 5836   1.576   5.386   2.169
 1831SOL    HW1 5837   1.665   5.432   2.172
 1831SOL    HW2 5838   1.555   5.362   2.074
 1832SOL     OW 5839   0.807   4.329   3.327
 1832SOL    HW1 5840   0.760   4.326   3.416
 1832SOL    HW2 5841   0.756   4.274   3.261
 1833SOL     OW 5842   1.394   4.193   3.536
 1833SOL    HW1 5843   1.374   4.236   3.624
 1833SOL    HW2 5844   1.472   4.131   3.545
 1834SOL     OW 5845   0.973   4.614   3.434
 1834SOL    HW1 5846   1.019   4.530   3.405
 1834SOL    HW2 5847   0.917   4.648   3.359
 1835SOL     OW 5848   0.991   4.134   3.104
 1835SOL    HW1 5849   0.914   4.168   3.158
 1835SOL    HW2 5850   0.957   4.083   3.025
 1836SOL     OW 5851   1.041   4.425   2.291
 1836SOL    HW1 5852   1.067   4.421   2.387
 1836SOL    HW2 5853   0.956   4.374   2.277
 1837SOL     OW 5854   0.076   4.535   2.651
 1837SOL    HW1 5855   0.175   4.523   2.660
 1837SOL    HW2 5856   0.052   4.630   2.672
 1838SOL     OW 5857   0.130   5.545   3.433
 1838SOL    HW1 5858   0.120   5.530   3.532
 1838SOL    HW2 5859   0.044   5.581   3.397
 1839SOL     OW 5860   0.865   4.072   2.057
 1839SOL    HW1 5861   0.924   4.135   2.008
 1839SOL    HW2 5862   0.884   3.978   2.028
 1840SOL     OW 5863   1.719   4.309   3.693
 1840SOL    HW1 5864   1.693   4.398   3.657
 1840SOL    HW2 5865   1.717   4.241   3.620
 1841SOL     OW 5866   1.362   4.868   2.407
 1841SOL    HW1 5867   1.445   4.839   2.359
 1841SOL    HW2 5868   1.313   4.935   2.351
 1842SOL     OW 5869   0.550   3.920   2.747
 1842SOL    HW1 5870   0.545   3.915   2.847
 1842SOL    HW2 5871   0.552   4.016   2.718
 1843SOL     OW 5872   1.008   5.180   2.339
 1843SOL    HW1 5873   0.962   5.252   2.287
 1843SOL    HW2 5874   1.004   5.200   2.437
 1844SOL     OW 5875   0.351   5.525   2.715
 1844SOL    HW1 5876   0.401   5.439   2.721
 1844SOL    HW2 5877   0.416   5.602   2.712
 1845SOL     OW 5878   1.795   4.790   2.735
 1845SOL    HW1 5879   1.733   4.775   2.659
 1845SOL    HW2 5880   1.743   4.801   2.820
 1846SOL     OW 5881   1.227   5.274   3.368
 1846SOL    HW1 5882   1.233   5.197   3.432
 1846SOL    HW2 5883   1.175   5.248   3.288
 1847SOL     OW 5884   0.321   4.667   2.104
 1847SOL    HW1 5885   0.403   4.706   2.062
 1847SOL    HW2 5886   0.294   4.585   2.055
 1848SOL     OW 5887   1.458   4.459   2.590
 1848SOL    HW1 5888   1.453   4.394   2.665
 1848SOL    HW2 5889   1.538   4.518   2.603
 1849SOL     OW 5890   0.461   4.990   3.589
 1849SOL    HW1 5891   0.411   4.991   3.503
 1849SOL    HW2 5892   0.398   4.972   3.665
 1850SOL     OW 5893   1.111   5.500   2.099
 1850SOL    HW1 5894   1.051   5.438   2.149
 1850SOL    HW2 5895   1.142   5.456   2.014
 1851SOL     OW 5896   0.202   4.009   3.360
 1851SOL    HW1 5897   0.122   4.069   3.347
 1851SOL    HW2 5898   0.192   3.960   3.446
 1852SOL     OW 5899   1.632   5.101   1.943
 1852SOL    HW1 5900   1.600   5.195   1.933
 1852SOL    HW2 5901   1.556   5.038   1.931
 1853SOL     OW 5902   0.464   5.467   2.185
 1853SOL    HW1 5903   0.497   5.506   2.271
 1853SOL    HW2 5904   0.540   5.460   2.120
 1854SOL     OW 5905   1.400   3.831   2.288
 1854SOL    HW1 5906   1.376   3.794   2.198
 1854SOL    HW2 5907   1.499   3.847   2.292
 1855SOL     OW 5908   0.249   5.509   3.103
 1855SOL    HW1 5909   0.306   5.444   3.153
 1855SOL    HW2 5910   0.233   5.476   3.010
 1856SOL     OW 5911   0.940   5.422   2.766
 1856SOL    HW1 5912   1.020   5.365   2.787
 1856SOL    HW2 5913   0.891   5.382   2.689
 1857SOL     OW 5914   0.382   4.424   2.342
 1857SOL    HW1 5915   0.427   4.334   2.339
 1857SOL    HW2 5916   0.288   4.413   2.375
 1858SOL     OW 5917   1.547   3.946   3.591
 1858SOL    HW1 5918   1.542   3.983   3.683
 1858SOL    HW2 5919   1.475   3.877   3.579
 1859SOL     OW 5920   0.614   3.846   1.979
 1859SOL    HW1 5921   0.712   3.824   1.986
 1859SOL    HW2 5922   0.583   3.829   1.886
 1860SOL     OW 5923   0.781   3.988   3.611
 1860SOL    HW1 5924   0.848   3.927   3.654
 1860SOL    HW2 5925   0.708   4.007   3.676
 1861SOL     OW 5926   0.888   5.238   3.057
 1861SOL    HW1 5927   0.865   5.213   2.963
 1861SOL    HW2 5928   0.949   5.169   3.096
 1862SOL     OW 5929   1.351   4.314   3.295
 1862SOL    HW1 5930   1.379   4.271   3.380
 1862SOL    HW2 5931   1.376   4.410   3.296
 1863SOL     OW 5932   0.803   5.126   2.786
 1863SOL    HW1 5933   0.893   5.140   2.744
 1863SOL    HW2 5934   0.732   5.128   2.715
 1864SOL     OW 5935   0.922   4.227   2.761
 1864SOL    HW1 5936   0.897   4.218   2.665
 1864SOL    HW2 5937   0.970   4.145   2.792
 1865SOL     OW 5938   0.539   3.788   2.374
 1865SOL    HW1 5939   0.458   3.789   2.432
 1865SOL    HW2 5940   0.542   3.871   2.319
 1866SOL     OW 5941   1.434   4.912   1.903
 1866SOL    HW1 5942   1.466   4.836   1.960
 1866SOL    HW2 5943   1.342   4.939   1.933
 1867SOL     OW 5944   0.297   3.759   2.033
 1867SOL    HW1 5945   0.346   3.843   2.012
 1867SOL    HW2 5946   0.359   3.694   2.078
 1868SOL     OW 5947   0.935   3.960   2.342
 1868SOL    HW1 5948   0.887   4.001   2.264
 1868SOL    HW2 5949   1.034   3.958   2.323
 1869SOL     OW 5950   1.076   4.407   3.326
 1869SOL    HW1 5951   0.996   4.346   3.329
 1869SOL    HW2 5952   1.157   4.354   3.302
 1870SOL     OW 5953   1.227   5.294   2.655
 1870SOL    HW1 5954   1.248   5.368   2.590
 1870SOL    HW2 5955   1.295   5.294   2.728
 1871SOL     OW 5956   0.459   4.876   2.603
 1871SOL    HW1 5957   0.388   4.849   2.668
 1871SOL    HW2 5958   0.433   4.848   2.510
 1872SOL     OW 5959   1.271   5.521   2.453
 1872SOL    HW1 5960   1.315   5.585   2.389
 1872SOL    HW2 5961   1.221   5.573   2.523
 1873SOL     OW 5962   1.032   4.273   1.878
 1873SOL    HW1 5963   0.991   4.355   1.839
 1873SOL    HW2 5964   1.096   4.299   1.951
 1874SOL     OW 5965   0.078   4.280   3.248
 1874SOL    HW1 5966   0.170   4.279   3.207
 1874SOL    HW2 5967   0.072   4.354   3.315
 1875SOL     OW 5968   0.561   3.946   3.009
 1875SOL    HW1 5969   0.599   3.862   3.046
 1875SOL    HW2 5970   0.473   3.965   3.053
 1876SOL     OW 5971   0.866   4.178   2.504
 1876SOL    HW1 5972   0.834   4.250   2.442
 1876SOL    HW2 5973   0.890   4.097   2.451
 1877SOL     OW 5974   1.017   3.763   2.615
 1877SOL    HW1 5975   0.945   3.768   2.546
 1877SOL    HW2 5976   0.993   3.694   2.684
 1878SOL     OW 5977   1.429   4.897   2.729
 1878SOL    HW1 5978   1.374   4.813   2.722
 1878SOL    HW2 5979   1.455   4.926   2.637
 1879SOL     OW 5980   1.466   4.314   2.854
 1879SOL    HW1 5981   1.436   4.219   2.861
 1879SOL    HW2 5982   1.539   4.330   2.920
 1880SOL     OW 5983   1.857   4.557   2.239
 1880SOL    HW1 5984   1.899   4.493   2.303
 1880SOL    HW2 5985   1.819   4.506   2.161
 1881SOL     OW 5986   0.488   5.109   2.036
 1881SOL    HW1 5987   0.401   5.094   2.083
 1881SOL    HW2 5988   0.471   5.135   1.941
 1882SOL     OW 5989   1.664   5.004   2.519
 1882SOL    HW1 5990   1.763   5.012   2.533
 1882SOL    HW2 5991   1.619   5.088   2.550
 1883SOL     OW 5992   1.390   4.299   1.940
 1883SOL    HW1 5993   1.336   4.278   2.021
 1883SOL    HW2 5994   1.481   4.258   1.949
 1884SOL     OW 5995   0.527   3.980   2.190
 1884SOL    HW1 5996   0.554   3.921   2.115
 1884SOL    HW2 5997   0.527   4.075   2.159
 1885SOL     OW 5998   1.754   4.947   3.450
 1885SOL    HW1 5999   1.845   4.908   3.437
 1885SOL    HW2 6000   1.762   5.043   3.474
 1886SOL     OW 6001   1.064   5.071   3.202
 1886SOL    HW1 6002   0.984   5.048   3.257
 1886SOL    HW2 6003   1.147   5.045   3.251
 1887SOL     OW 6004   1.592   5.353   3.487
 1887SOL    HW1 6005   1.619   5.387   3.397
 1887SOL    HW2 6006   1.671   5.315   3.533
 1888SOL     OW 6007   1.111   4.919   2.962
 1888SOL    HW1 6008   1.071   4.963   3.043
 1888SOL    HW2 6009   1.070   4.956   2.879
 1889SOL     OW 6010   1.638   4.823   2.941
 1889SOL    HW1 6011   1.643   4.904   3.000
 1889SOL    HW2 6012   1.552   4.825   2.890
 1890SOL     OW 6013   0.915   3.813   3.264
 1890SOL    HW1 6014   0.940   3.793   3.169
 1890SOL    HW2 6015   0.987   3.869   3.306
 1891SOL     OW 6016   0.980   4.840   3.581
 1891SOL    HW1 6017   0.881   4.846   3.591
 1891SOL    HW2 6018   1.003   4.760   3.525
 1892SOL     OW 6019   0.705   4.774   2.230
 1892SOL    HW1 6020   0.691   4.781   2.329
 1892SOL    HW2 6021   0.789   4.723   2.212
 1893SOL     OW 6022   0.410   4.537   3.113
 1893SOL    HW1 6023   0.496   4.549   3.163
 1893SOL    HW2 6024   0.368   4.450   3.140
 1894SOL     OW 6025   1.274   4.110   3.124
 1894SOL    HW1 6026   1.295   4.184   3.188
 1894SOL    HW2 6027   1.185   4.127   3.081
 1895SOL     OW 6028   0.064   5.288   3.193
 1895SOL    HW1 6029   0.018   5.370   3.159
 1895SOL    HW2 6030   0.162   5.307   3.202
 1896SOL     OW 6031   0.367   4.824   2.363
 1896SOL    HW1 6032   0.360   4.907   2.307
 1896SOL    HW2 6033   0.371   4.744   2.303
 1897SOL     OW 6034   0.566   4.261   2.727
 1897SOL    HW1 6035   0.578   4.327   2.653
 1897SOL    HW2 6036   0.612   4.295   2.810
 1898SOL     OW 6037   1.252   5.072   2.250
 1898SOL    HW1 6038   1.302   5.149   2.290
 1898SOL    HW2 6039   1.157   5.074   2.282
 1899SOL     OW 6040   1.272   5.169   3.004
 1899SOL    HW1 6041   1.319   5.182   3.091
 1899SOL    HW2 6042   1.206   5.095   3.013
 1900SOL     OW 6043   1.582   4.363   2.334
 1900SOL    HW1 6044   1.551   4.424   2.407
 1900SOL    HW2 6045   1.632   4.415   2.265
 1901SOL     OW 6046   0.354   5.234   3.191
 1901SOL    HW1 6047   0.333   5.190   3.104
 1901SOL    HW2 6048   0.451   5.260   3.194
 1902SOL     OW 6049   0.402   4.475   3.460
 1902SOL    HW1 6050   0.470   4.530   3.413
 1902SOL    HW2 6051   0.442   4.387   3.487
 1903SOL     OW 6052   1.587   4.503   3.532
 1903SOL    HW1 6053   1.495   4.541   3.527
 1903SOL    HW2 6054   1.647   4.550   3.467
 1904SOL     OW 6055   1.013   3.829   3.632
 1904SOL    HW1 6056   1.019   3.914   3.580
 1904SOL    HW2 6057   1.045   3.753   3.575
 1905SOL     OW 6058   0.504   3.774   3.602
 1905SOL    HW1 6059   0.462   3.717   3.532
 1905SOL    HW2 6060   0.438   3.843   3.634
 1906SOL     OW 6061   0.573   4.594   2.891
 1906SOL    HW1 6062   0.617   4.683   2.882
 1906SOL    HW2 6063   0.510   4.594   2.968
 1907SOL     OW 6064   1.360   4.586   2.907
 1907SOL    HW1 6065   1.285   4.586   2.841
 1907SOL    HW2 6066   1.397   4.494   2.916
 1908SOL     OW 6067   1.209   4.249   2.137
 1908SOL    HW1 6068   1.222   4.165   2.191
 1908SOL    HW2 6069   1.180   4.323   2.197
 1909SOL     OW 6070   0.307   3.937   3.093
 1909SOL    HW1 6071   0.284   3.974   3.183
 1909SOL    HW2 6072   0.277   3.842   3.087
 1910SOL     OW 6073   0.037   5.034   3.144
 1910SOL    HW1 6074   0.090   4.985   3.212
 1910SOL    HW2 6075   0.059   5.132   3.149
 1911SOL     OW 6076   0.732   4.358   2.926
 1911SOL    HW1 6077   0.791   4.332   2.850
 1911SOL    HW2 6078   0.704   4.454   2.915
 1912SOL     OW 6079   1.728   4.659   3.716
 1912SOL    HW1 6080   1.682   4.652   3.627
 1912SOL    HW2 6081   1.666   4.703   3.782
 1913SOL     OW 6082   0.307   3.787   2.480
 1913SOL    HW1 6083   0.296   3.881   2.513
 1913SOL    HW2 6084   0.302   3.724   2.557
 1914SOL     OW 6085   1.622   4.091   2.236
 1914SOL    HW1 6086   1.624   4.015   2.300
 1914SOL    HW2 6087   1.574   4.168   2.276
 1915SOL     OW 6088   1.023   4.490   2.828
 1915SOL    HW1 6089   1.038   4.511   2.924
 1915SOL    HW2 6090   0.993   4.395   2.819
 1916SOL     OW 6091   0.980   5.297   3.562
 1916SOL    HW1 6092   0.960   5.341   3.474
 1916SOL    HW2 6093   1.019   5.206   3.546
 1917SOL     OW 6094   1.859   5.242   3.467
 1917SOL    HW1 6095   1.873   5.269   3.372
 1917SOL    HW2 6096   1.942   5.264   3.520
 1918SOL     OW 6097   0.350   4.622   3.666
 1918SOL    HW1 6098   0.426   4.666   3.714
 1918SOL    HW2 6099   0.385   4.575   3.584
 1919SOL     OW 6100   1.540   3.998   1.987
 1919SOL    HW1 6101   1.479   3.923   2.010
 1919SOL    HW2 6102   1.562   4.050   2.070
 1920SOL     OW 6103   1.303   4.562   1.904
 1920SOL    HW1 6104   1.337   4.469   1.919
 1920SOL    HW2 6105   1.321   4.589   1.809
 1921SOL     OW 6106   1.068   5.057   2.711
 1921SOL    HW1 6107   1.075   4.973   2.656
 1921SOL    HW2 6108   1.130   5.126   2.675
 1922SOL     OW 6109   0.319   4.534   2.811
 1922SOL    HW1 6110   0.412   4.570   2.816
 1922SOL    HW2 6111   0.313   4.449   2.863
 1923SOL     OW 6112   0.339   4.233   2.868
 1923SOL    HW1 6113   0.287   4.150   2.851
 1923SOL    HW2 6114   0.416   4.238   2.804
 1924SOL     OW 6115   1.138   4.104   3.540
 1924SOL    HW1 6116   1.093   4.167   3.604
 1924SOL    HW2 6117   1.231   4.135   3.523
 1925SOL     OW 6118   1.160   3.931   3.339
 1925SOL    HW1 6119   1.160   3.995   3.416
 1925SOL    HW2 6120   1.188   3.979   3.256
 1926SOL     OW 6121   0.008   5.050   2.062
 1926SOL    HW1 6122  -0.085   5.071   2.031
 1926SOL    HW2 6123   0.018   4.951   2.075
 1927SOL     OW 6124   0.088   5.525   2.789
 1927SOL    HW1 6125   0.046   5.439   2.762
 1927SOL    HW2 6126   0.182   5.528   2.755
 1928SOL     OW 6127   0.504   5.292   2.772
 1928SOL    HW1 6128   0.570   5.366   2.781
 1928SOL    HW2 6129   0.548   5.213   2.730
 1929SOL     OW 6130   1.002   4.520   3.100
 1929SOL    HW1 6131   1.043   4.488   3.186
 1929SOL    HW2 6132   0.906   4.493   3.097
 1930SOL     OW 6133   0.040   4.268   2.976
 1930SOL    HW1 6134   0.125   4.235   2.935
 1930SOL    HW2 6135   0.053   4.283   3.074
 1931SOL     OW 6136   0.189   4.244   3.584
 1931SOL    HW1 6137   0.248   4.204   3.514
 1931SOL    HW2 6138   0.131   4.315   3.543
 1932SOL     OW 6139   1.369   4.674   3.522
 1932SOL    HW1 6140   1.408   4.763   3.542
 1932SOL    HW2 6141   1.379   4.654   3.425
 1933SOL     OW 6142   0.815   4.296   2.187
 1933SOL    HW1 6143   0.822   4.207   2.141
 1933SOL    HW2 6144   0.721   4.330   2.179
 1934SOL     OW 6145   1.657   4.328   3.068
 1934SOL    HW1 6146   1.619   4.259   3.130
 1934SOL    HW2 6147   1.739   4.292   3.024
 1935SOL     OW 6148   0.252   5.288   3.606
 1935SOL    HW1 6149   0.222   5.345   3.682
 1935SOL    HW2 6150   0.245   5.191   3.632
 1936SOL     OW 6151   0.671   4.188   3.131
 1936SOL    HW1 6152   0.637   4.099   3.101
 1936SOL    HW2 6153   0.697   4.242   3.051
 1937SOL     OW 6154   0.930   5.402   3.327
 1937SOL    HW1 6155   0.906   5.384   3.232
 1937SOL    HW2 6156   0.960   5.496   3.337
 1938SOL     OW 6157   0.473   4.224   2.053
 1938SOL    HW1 6158   0.534   4.304   2.057
 1938SOL    HW2 6159   0.378   4.255   2.060
 1939SOL     OW 6160   0.159   4.861   3.328
 1939SOL    HW1 6161   0.181   4.800   3.404
 1939SOL    HW2 6162   0.169   4.812   3.242
 1940SOL     OW 6163   1.347   4.783   3.096
 1940SOL    HW1 6164   1.371   4.720   3.022
 1940SOL    HW2 6165   1.257   4.823   3.078
 1941SOL     OW 6166   1.302   4.579   2.171
 1941SOL    HW1 6167   1.216   4.548   2.213
 1941SOL    HW2 6168   1.298   4.565   2.072
 1942SOL     OW 6169   1.759   5.471   3.016
 1942SOL    HW1 6170   1.820   5.501   2.943
 1942SOL    HW2 6171   1.721   5.382   2.994
 1943SOL     OW 6172   1.252   5.455   2.990
 1943SOL    HW1 6173   1.336   5.460   2.936
 1943SOL    HW2 6174   1.229   5.359   3.008
 1944SOL     OW 6175   0.083   4.982   2.884
 1944SOL    HW1 6176   0.078   4.981   2.984
 1944SOL    HW2 6177   0.000   4.941   2.846
 1945SOL     OW 6178   0.688   5.386   3.578
 1945SOL    HW1 6179   0.632   5.467   3.587
 1945SOL    HW2 6180   0.740   5.390   3.492
 1946SOL     OW 6181   1.726   3.859   2.385
 1946SOL    HW1 6182   1.799   3.842   2.318
 1946SOL    HW2 6183   1.695   3.772   2.423
 1947SOL     OW 6184   1.388   5.297   2.339
 1947SOL    HW1 6185   1.455   5.309   2.265
 1947SOL    HW2 6186   1.348   5.386   2.362
 1948SOL     OW 6187   0.130   5.518   3.713
 1948SOL    HW1 6188   0.089   5.444   3.766
 1948SOL    HW2 6189   0.194   5.569   3.771
 1949SOL     OW 6190   1.280   4.651   2.534
 1949SOL    HW1 6191   1.340   4.570   2.536
 1949SOL    HW2 6192   1.320   4.720   2.474
 1950SOL     OW 6193   0.830   4.997   3.284
 1950SOL    HW1 6194   0.825   5.030   3.379
 1950SOL    HW2 6195   0.744   5.016   3.238
 1951SOL     OW 6196   0.672   5.340   2.016
 1951SOL    HW1 6197   0.681   5.350   1.917
 1951SOL    HW2 6198   0.632   5.251   2.037
 1952SOL     OW 6199   1.650   5.444   3.256
 1952SOL    HW1 6200   1.703   5.454   3.172
 1952SOL    HW2 6201   1.623   5.534   3.290
 1953SOL     OW 6202   1.841   3.899   2.825
 1953SOL    HW1 6203   1.880   3.814   2.789
 1953SOL    HW2 6204   1.743   3.901   2.806
 1954SOL     OW 6205   0.263   4.050   2.582
 1954SOL    HW1 6206   0.184   4.101   2.548
 1954SOL    HW2 6207   0.254   4.035   2.680
 1955SOL     OW 6208   1.194   5.336   1.893
 1955SOL    HW1 6209   1.200   5.243   1.930
 1955SOL    HW2 6210   1.135   5.336   1.813
 1956SOL     OW 6211   0.822   4.726   3.234
 1956SOL    HW1 6212   0.862   4.725   3.142
 1956SOL    HW2 6213   0.832   4.818   3.274
 1957SOL     OW 6214   0.916   4.634   2.153
 1957SOL    HW1 6215   0.979   4.672   2.085
 1957SOL    HW2 6216   0.956   4.551   2.192
 1958SOL     OW 6217   1.504   5.331   1.906
 1958SOL    HW1 6218   1.412   5.368   1.913
 1958SOL    HW2 6219   1.542   5.351   1.816
 1959SOL     OW 6220   0.372   5.012   3.352
 1959SOL    HW1 6221   0.359   5.105   3.318
 1959SOL    HW2 6222   0.288   4.960   3.339
 1960SOL     OW 6223   1.614   5.016   3.151
 1960SOL    HW1 6224   1.674   5.019   3.231
 1960SOL    HW2 6225   1.539   5.080   3.164
 1961SOL     OW 6226   1.039   4.822   2.558
 1961SOL    HW1 6227   0.969   4.775   2.612
 1961SOL    HW2 6228   1.098   4.754   2.515
 1962SOL     OW 6229   1.014   3.960   2.833
 1962SOL    HW1 6230   1.006   3.924   2.740
 1962SOL    HW2 6231   1.012   3.884   2.898
 1963SOL     OW 6232   0.590   5.211   2.353
 1963SOL    HW1 6233   0.632   5.153   2.283
 1963SOL    HW2 6234   0.546   5.290   2.309
 1964SOL     OW 6235   1.709   4.109   3.243
 1964SOL    HW1 6236   1.782   4.178   3.247
 1964SOL    HW2 6237   1.737   4.034   3.184
 1965SOL     OW 6238   0.255   5.072   2.152
 1965SOL    HW1 6239   0.159   5.073   2.125
 1965SOL    HW2 6240   0.267   5.125   2.236
 1966SOL     OW 6241   0.105   4.737   3.588
 1966SOL    HW1 6242   0.028   4.704   3.642
 1966SOL    HW2 6243   0.190   4.707   3.630
 1967SOL     OW 6244   0.672   3.927   3.351
 1967SOL    HW1 6245   0.762   3.911   3.311
 1967SOL    HW2 6246   0.680   3.932   3.450
 1968SOL     OW 6247   0.075   4.069   1.895
 1968SOL    HW1 6248  -0.017   4.041   1.866
 1968SOL    HW2 6249   0.106   4.146   1.839
 1969SOL     OW 6250   1.440   4.580   3.260
 1969SOL    HW1 6251   1.383   4.632   3.197
 1969SOL    HW2 6252   1.536   4.592   3.236
 1970SOL     OW 6253   0.072   3.890   2.180
 1970SOL    HW1 6254   0.055   3.973   2.126
 1970SOL    HW2 6255   0.162   3.853   2.158
 1971SOL     OW 6256   1.183   5.059   1.981
 1971SOL    HW1 6257   1.084   5.048   1.983
 1971SOL    HW2 6258   1.217   5.074   2.074
 1972SOL     OW 6259   0.613   4.566   3.293
 1972SOL    HW1 6260   0.669   4.647   3.276
 1972SOL    HW2 6261   0.672   4.486   3.296
 1973SOL     OW 6262   1.493   5.491   2.821
 1973SOL    HW1 6263   1.526   5.555   2.752
 1973SOL    HW2 6264   1.559   5.485   2.896
 1974SOL     OW 6265   0.716   4.289   3.570
 1974SOL    HW1 6266   0.735   4.354   3.644
 1974SOL    HW2 6267   0.776   4.209   3.579
 1975SOL     OW 6268   1.450   4.944   3.495
 1975SOL    HW1 6269   1.441   4.934   3.594
 1975SOL    HW2 6270   1.546   4.937   3.469
 1976SOL     OW 6271   0.390   5.465   3.422
 1976SOL    HW1 6272   0.299   5.506   3.420
 1976SOL    HW2 6273   0.383   5.371   3.454
 1977SOL     OW 6274   1.674   4.607   3.116
 1977SOL    HW1 6275   1.647   4.518   3.079
 1977SOL    HW2 6276   1.675   4.675   3.043
 1978SOL     OW 6277   1.225   4.049   2.311
 1978SOL    HW1 6278   1.290   3.975   2.300
 1978SOL    HW2 6279   1.245   4.099   2.395
 1979SOL     OW 6280   0.594   4.469   2.514
 1979SOL    HW1 6281   0.644   4.554   2.495
 1979SOL    HW2 6282   0.506   4.471   2.466
 1980SOL     OW 6283   1.777   4.066   3.504
 1980SOL    HW1 6284   1.760   4.097   3.410
 1980SOL    HW2 6285   1.693   4.029   3.542
 1981SOL     OW 6286   1.730   4.658   3.379
 1981SOL    HW1 6287   1.768   4.749   3.394
 1981SOL    HW2 6288   1.722   4.641   3.280
 1982SOL     OW 6289   0.859   5.098   1.878
 1982SOL    HW1 6290   0.813   5.113   1.966
 1982SOL    HW2 6291   0.903   5.183   1.848
 1983SOL     OW 6292   0.661   5.514   2.815
 1983SOL    HW1 6293   0.615   5.602   2.802
 1983SOL    HW2 6294   0.760   5.526   2.808
 1984SOL     OW 6295   0.859   4.680   2.723
 1984SOL    HW1 6296   0.913   4.611   2.771
 1984SOL    HW2 6297   0.827   4.749   2.789
 1985SOL     OW 6298   1.083   4.708   1.949
 1985SOL    HW1 6299   1.060   4.761   1.867
 1985SOL    HW2 6300   1.164   4.652   1.930
 1986SOL     OW 6301   1.861   5.293   2.713
 1986SOL    HW1 6302   1.790   5.281   2.643
 1986SOL    HW2 6303   1.862   5.214   2.773
 1987SOL     OW 6304   0.221   5.038   3.706
 1987SOL    HW1 6305   0.156   4.965   3.685
 1987SOL    HW2 6306   0.225   5.052   3.804
 1988SOL     OW 6307   0.079   4.964   2.515
 1988SOL    HW1 6308   0.078   4.917   2.603
 1988SOL    HW2 6309   0.161   4.936   2.464
 1989SOL     OW 6310   0.672   5.115   3.486
 1989SOL    HW1 6311   0.594   5.065   3.524
 1989SOL    HW2 6312   0.669   5.210   3.517
 1990SOL     OW 6313   1.824   3.916   3.089
 1990SOL    HW1 6314   1.820   3.826   3.133
 1990SOL    HW2 6315   1.827   3.905   2.990
 1991SOL     OW 6316   0.428   4.148   2.382
 1991SOL    HW1 6317   0.458   4.076   2.320
 1991SOL    HW2 6318   0.389   4.108   2.465
 1992SOL     OW 6319   1.705   5.211   2.966
 1992SOL    HW1 6320   1.612   5.186   2.939
 1992SOL    HW2 6321   1.731   5.161   3.048
 1993SOL     OW 6322   0.317   4.271   3.142
 1993SOL    HW1 6323   0.355   4.212   3.214
 1993SOL    HW2 6324   0.357   4.245   3.054
 1994SOL     OW 6325   0.812   5.310   2.549
 1994SOL    HW1 6326   0.844   5.320   2.455
 1994SOL    HW2 6327   0.733   5.248   2.551
 1995SOL     OW 6328   1.424   3.938   2.974
 1995SOL    HW1 6329   1.476   3.873   3.029
 1995SOL    HW2 6330   1.375   4.001   3.035
 1996SOL     OW 6331   1.001   3.758   3.016
 1996SOL    HW1 6332   0.938   3.686   2.985
 1996SOL    HW2 6333   1.094   3.722   3.016
 1997SOL     OW 6334   0.770   5.054   2.163
 1997SOL    HW1 6335   0.724   4.967   2.180
 1997SOL    HW2 6336   0.861   5.051   2.204
 1998SOL     OW 6337   0.618   5.291   3.146
 1998SOL    HW1 6338   0.613   5.373   3.203
 1998SOL    HW2 6339   0.707   5.288   3.101
 1999SOL     OW 6340   1.352   3.776   2.030
 1999SOL    HW1 6341   1.387   3.735   1.946
 1999SOL    HW2 6342   1.262   3.738   2.050
 2000SOL     OW 6343   1.300   4.177   2.553
 2000SOL    HW1 6344   1.241   4.257   2.557
 2000SOL    HW2 6345   1.315   4.142   2.646
 2001SOL     OW 6346   1.593   3.945   2.744
 2001SOL    HW1 6347   1.509   3.944   2.798
 2001SOL    HW2 6348   1.595   4.028   2.688
 2002SOL     OW 6349   0.039   4.801   2.162
 2002SOL    HW1 6350   0.138   4.790   2.153
 2002SOL    HW2 6351  -0.001   4.715   2.194
 2003SOL     OW 6352   0.875   5.370   2.199
 2003SOL    HW1 6353   0.798   5.335   2.145
 2003SOL    HW2 6354   0.843   5.441   2.261
 2004SOL     OW 6355   0.230   4.352   3.837
 2004SOL    HW1 6356   0.137   4.350   3.874
 2004SOL    HW2 6357   0.231   4.313   3.745
 2005SOL     OW 6358   0.225   3.999   4.720
 2005SOL    HW1 6359   0.260   3.982   4.812
 2005SOL    HW2 6360   0.137   3.954   4.708
 2006SOL     OW 6361   0.019   4.092   4.371
 2006SOL    HW1 6362  -0.063   4.135   4.410
 2006SOL    HW2 6363  -0.009   4.019   4.308
 2007SOL     OW 6364   0.569   4.999   4.889
 2007SOL    HW1 6365   0.476   4.992   4.852
 2007SOL    HW2 6366   0.580   5.088   4.933
 2008SOL     OW 6367   1.555   5.235   4.427
 2008SOL    HW1 6368   1.498   5.219   4.508
 2008SOL    HW2 6369   1.496   5.245   4.347
 2009SOL     OW 6370   1.135   4.427   4.441
 2009SOL    HW1 6371   1.192   4.505   4.416
 2009SOL    HW2 6372   1.075   4.453   4.517
 2010SOL     OW 6373   1.755   4.331   3.955
 2010SOL    HW1 6374   1.743   4.318   3.856
 2010SOL    HW2 6375   1.725   4.250   4.004
 2011SOL     OW 6376   0.768   4.868   4.747
 2011SOL    HW1 6377   0.690   4.885   4.807
 2011SOL    HW2 6378   0.802   4.955   4.711
 2012SOL     OW 6379   0.850   4.522   5.547
 2012SOL    HW1 6380   0.846   4.598   5.612
 2012SOL    HW2 6381   0.872   4.558   5.456
 2013SOL     OW 6382   0.685   4.736   4.389
 2013SOL    HW1 6383   0.754   4.720   4.459
 2013SOL    HW2 6384   0.612   4.793   4.427
 2014SOL     OW 6385   0.686   4.885   5.527
 2014SOL    HW1 6386   0.746   4.964   5.541
 2014SOL    HW2 6387   0.600   4.916   5.486
 2015SOL     OW 6388   0.335   5.159   4.785
 2015SOL    HW1 6389   0.257   5.128   4.732
 2015SOL    HW2 6390   0.393   5.217   4.728
 2016SOL     OW 6391   1.460   5.229   5.063
 2016SOL    HW1 6392   1.484   5.323   5.089
 2016SOL    HW2 6393   1.444   5.175   5.145
 2017SOL     OW 6394   0.438   4.116   5.223
 2017SOL    HW1 6395   0.520   4.060   5.232
 2017SOL    HW2 6396   0.357   4.058   5.227
 2018SOL     OW 6397   1.603   4.171   4.461
 2018SOL    HW1 6398   1.529   4.217   4.411
 2018SOL    HW2 6399   1.654   4.239   4.514
 2019SOL     OW 6400   0.231   5.437   4.207
 2019SOL    HW1 6401   0.265   5.514   4.261
 2019SOL    HW2 6402   0.275   5.437   4.117
 2020SOL     OW 6403   1.127   5.065   5.414
 2020SOL    HW1 6404   1.174   5.065   5.502
 2020SOL    HW2 6405   1.079   4.978   5.403
 2021SOL     OW 6406   0.230   5.158   4.262
 2021SOL    HW1 6407   0.204   5.254   4.262
 2021SOL    HW2 6408   0.159   5.104   4.307
 2022SOL     OW 6409   0.240   4.815   4.610
 2022SOL    HW1 6410   0.254   4.731   4.662
 2022SOL    HW2 6411   0.185   4.879   4.665
 2023SOL     OW 6412   0.620   5.510   5.163
 2023SOL    HW1 6413   0.528   5.493   5.198
 2023SOL    HW2 6414   0.648   5.602   5.189
 2024SOL     OW 6415   0.606   4.688   3.847
 2024SOL    HW1 6416   0.613   4.772   3.793
 2024SOL    HW2 6417   0.652   4.701   3.935
 2025SOL     OW 6418   1.594   3.838   5.204
 2025SOL    HW1 6419   1.576   3.905   5.132
 2025SOL    HW2 6420   1.591   3.884   5.293
 2026SOL     OW 6421   0.122   4.367   4.287
 2026SOL    HW1 6422   0.077   4.279   4.304
 2026SOL    HW2 6423   0.121   4.421   4.371
 2027SOL     OW 6424   1.842   5.491   4.083
 2027SOL    HW1 6425   1.896   5.462   4.163
 2027SOL    HW2 6426   1.872   5.581   4.054
 2028SOL     OW 6427   0.027   5.320   3.841
 2028SOL    HW1 6428   0.008   5.224   3.862
 2028SOL    HW2 6429  -0.006   5.378   3.916
 2029SOL     OW 6430   1.689   4.646   4.336
 2029SOL    HW1 6431   1.784   4.617   4.344
 2029SOL    HW2 6432   1.681   4.711   4.261
 2030SOL     OW 6433   1.641   4.832   4.156
 2030SOL    HW1 6434   1.727   4.834   4.104
 2030SOL    HW2 6435   1.655   4.879   4.244
 2031SOL     OW 6436   0.113   4.461   5.321
 2031SOL    HW1 6437   0.201   4.448   5.366
 2031SOL    HW2 6438   0.100   4.558   5.299
 2032SOL     OW 6439   0.613   5.089   4.450
 2032SOL    HW1 6440   0.564   5.002   4.459
 2032SOL    HW2 6441   0.590   5.132   4.363
 2033SOL     OW 6442   1.293   4.952   5.147
 2033SOL    HW1 6443   1.330   4.879   5.089
 2033SOL    HW2 6444   1.345   4.957   5.232
 2034SOL     OW 6445   0.809   3.728   4.226
 2034SOL    HW1 6446   0.849   3.819   4.217
 2034SOL    HW2 6447   0.709   3.736   4.232
 2035SOL     OW 6448   0.197   4.700   4.988
 2035SOL    HW1 6449   0.286   4.655   4.974
 2035SOL    HW2 6450   0.124   4.635   4.969
 2036SOL     OW 6451   1.525   4.723   3.914
 2036SOL    HW1 6452   1.462   4.647   3.927
 2036SOL    HW2 6453   1.573   4.741   4.000
 2037SOL     OW 6454   1.187   5.516   5.340
 2037SOL    HW1 6455   1.211   5.576   5.264
 2037SOL    HW2 6456   1.194   5.421   5.310
 2038SOL     OW 6457   0.317   3.975   5.525
 2038SOL    HW1 6458   0.388   4.046   5.531
 2038SOL    HW2 6459   0.229   4.014   5.553
 2039SOL     OW 6460   1.466   5.141   4.677
 2039SOL    HW1 6461   1.407   5.147   4.757
 2039SOL    HW2 6462   1.451   5.053   4.631
 2040SOL     OW 6463   1.667   5.438   4.296
 2040SOL    HW1 6464   1.626   5.415   4.208
 2040SOL    HW2 6465   1.649   5.364   4.361
 2041SOL     OW 6466   0.598   4.453   3.994
 2041SOL    HW1 6467   0.622   4.522   3.926
 2041SOL    HW2 6468   0.520   4.486   4.048
 2042SOL     OW 6469   1.281   4.069   4.668
 2042SOL    HW1 6470   1.195   4.019   4.655
 2042SOL    HW2 6471   1.343   4.015   4.724
 2043SOL     OW 6472   1.576   5.386   4.031
 2043SOL    HW1 6473   1.665   5.432   4.034
 2043SOL    HW2 6474   1.555   5.362   3.936
 2044SOL     OW 6475   0.807   4.329   5.189
 2044SOL    HW1 6476   0.760   4.326   5.278
 2044SOL    HW2 6477   0.756   4.274   5.123
 2045SOL     OW 6478   1.394   4.193   5.398
 2045SOL    HW1 6479   1.374   4.236   5.486
 2045SOL    HW2 6480   1.472   4.131   5.407
 2046SOL     OW 6481   0.973   4.614   5.296
 2046SOL    HW1 6482   1.019   4.530   5.267
 2046SOL    HW2 6483   0.917   4.648   5.221
 2047SOL     OW 6484   0.991   4.134   4.966
 2047SOL    HW1 6485   0.914   4.168   5.020
 2047SOL    HW2 6486   0.957   4.083   4.887
 2048SOL     OW 6487   1.041   4.425   4.153
 2048SOL    HW1 6488   1.067   4.421   4.249
 2048SOL    HW2 6489   0.956   4.374   4.139
 2049SOL     OW 6490   0.076   4.535   4.513
 2049SOL    HW1 6491   0.175   4.523   4.522
 2049SOL    HW2 6492   0.052   4.630   4.534
 2050SOL     OW 6493   0.130   5.545   5.295
 2050SOL    HW1 6494   0.120   5.530   5.394
 2050SOL    HW2 6495   0.044   5.581   5.259
 2051SOL     OW 6496   0.865   4.072   3.919
 2051SOL    HW1 6497   0.924   4.135   3.870
 2051SOL    HW2 6498   0.884   3.978   3.890
 2052SOL     OW 6499   1.719   4.309   5.555
 2052SOL    HW1 6500   1.693   4.398   5.519
 2052SOL    HW2 6501   1.717   4.241   5.482
 2053SOL     OW 6502   1.362   4.868   4.269
 2053SOL    HW1 6503   1.445   4.839   4.221
 2053SOL    HW2 6504   1.313   4.935   4.213
 2054SOL     OW 6505   0.550   3.920   4.609
 2054SOL    HW1 6506   0.545   3.915   4.709
 2054SOL    HW2 6507   0.552   4.016   4.580
 2055SOL     OW 6508   1.008   5.180   4.201
 2055SOL    HW1 6509   0.962   5.252   4.149
 2055SOL    HW2 6510   1.004   5.200   4.299
 2056SOL     OW 6511   0.351   5.525   4.577
 2056SOL    HW1 6512   0.401   5.439   4.583
 2056SOL    HW2 6513   0.416   5.602   4.574
 2057SOL     OW 6514   1.795   4.790   4.597
 2057SOL    HW1 6515   1.733   4.775   4.521
 2057SOL    HW2 6516   1.743   4.801   4.682
 2058SOL     OW 6517   1.227   5.274   5.230
 2058SOL    HW1 6518   1.233   5.197   5.294
 2058SOL    HW2 6519   1.175   5.248   5.150
 2059SOL     OW 6520   0.321   4.667   3.966
 2059SOL    HW1 6521   0.403   4.706   3.924
 2059SOL    HW2 6522   0.294   4.585   3.917
 2060SOL     OW 6523   1.458   4.459   4.452
 2060SOL    HW1 6524   1.453   4.394   4.527
 2060SOL    HW2 6525   1.538   4.518   4.465
 2061SOL     OW 6526   0.461   4.990   5.451
 2061SOL    HW1 6527   0.411   4.991   5.365
 2061SOL    HW2 6528   0.398   4.972   5.527
 2062SOL     OW 6529   1.111   5.500   3.961
 2062SOL    HW1 6530   1.051   5.438   4.011
 2062SOL    HW2 6531   1.142   5.456   3.876
 2063SOL     OW 6532   0.202   4.009   5.222
 2063SOL    HW1 6533   0.122   4.069   5.209
 2063SOL    HW2 6534   0.192   3.960   5.308
 2064SOL     OW 6535   1.632   5.101   3.805
 2064SOL    HW1 6536   1.600   5.195   3.795
 2064SOL    HW2 6537   1.556   5.038   3.793
 2065SOL     OW 6538   0.464   5.467   4.047
 2065SOL    HW1 6539   0.497   5.506   4.133
 2065SOL    HW2 6540   0.540   5.460   3.982
 2066SOL     OW 6541   1.400   3.831   4.150
 2066SOL    HW1 6542   1.376   3.794   4.060
 2066SOL    HW2 6543   1.499   3.847   4.154
 2067SOL     OW 6544   0.249   5.509   4.965
 2067SOL    HW1 6545   0.306   5.444   5.015
 2067SOL    HW2 6546   0.233   5.476   4.872
 2068SOL     OW 6547   0.940   5.422   4.628
 2068SOL    HW1 6548   1.020   5.365   4.649
 2068SOL    HW2 6549   0.891   5.382   4.551
 2069SOL     OW 6550   0.382   4.424   4.204
 2069SOL    HW1 6551   0.427   4.334   4.201
 2069SOL    HW2 6552   0.288   4.413   4.237
 2070SOL     OW 6553   1.547   3.946   5.453
 2070SOL    HW1 6554   1.542   3.983   5.545
 2070SOL    HW2 6555   1.475   3.877   5.441
 2071SOL     OW 6556   0.614   3.846   3.841
 2071SOL    HW1 6557   0.712   3.824   3.848
 2071SOL    HW2 6558   0.583   3.829   3.748
 2072SOL     OW 6559   0.781   3.988   5.473
 2072SOL    HW1 6560   0.848   3.927   5.516
 2072SOL    HW2 6561   0.708   4.007   5.538
 2073SOL     OW 6562   0.888   5.238   4.919
 2073SOL    HW1 6563   0.865   5.213   4.825
 2073SOL    HW2 6564   0.949   5.169   4.958
 2074SOL     OW 6565   1.351   4.314   5.157
 2074SOL    HW1 6566   1.379   4.271   5.242
 2074SOL    HW2 6567   1.376   4.410   5.158
 2075SOL     OW 6568   0.803   5.126   4.648
 2075SOL    HW1 6569   0.893   5.140   4.606
 2075SOL    HW2 6570   0.732   5.128   4.577
 2076SOL     OW 6571   0.922   4.227   4.623
 2076SOL    HW1 6572   0.897   4.218   4.527
 2076SOL    HW2 6573   0.970   4.145   4.654
 2077SOL     OW 6574   0.539   3.788   4.236
 2077SOL    HW1 6575   0.458   3.789   4.294
 2077SOL    HW2 6576   0.542   3.871   4.181
 2078SOL     OW 6577   1.434   4.912   3.765
 2078SOL    HW1 6578   1.466   4.836   3.822
 2078SOL    HW2 6579   1.342   4.939   3.795
 2079SOL     OW 6580   0.297   3.759   3.895
 2079SOL    HW1 6581   0.346   3.843   3.874
 2079SOL    HW2 6582   0.359   3.694   3.940
 2080SOL     OW 6583   0.935   3.960   4.204
 2080SOL    HW1 6584   0.887   4.001   4.126
 2080SOL    HW2 6585   1.034   3.958   4.185
 2081SOL     OW 6586   1.076   4.407   5.188
 2081SOL    HW1 6587   0.996   4.346   5.191
 2081SOL    HW2 6588   1.157   4.354   5.164
 2082SOL     OW 6589   1.227   5.294   4.517
 2082SOL    HW1 6590   1.248   5.368   4.452
 2082SOL    HW2 6591   1.295   5.294   4.590
 2083SOL     OW 6592   0.459   4.876   4.465
 2083SOL    HW1 6593   0.388   4.849   4.530
 2083SOL    HW2 6594   0.433   4.848   4.372
 2084SOL     OW 6595   1.271   5.521   4.315
 2084SOL    HW1 6596   1.315   5.585   4.251
 2084SOL    HW2 6597   1.221   5.573   4.385
 2085SOL     OW 6598   1.032   4.273   3.740
 2085SOL    HW1 6599   0.991   4.355   3.701
 2085SOL    HW2 6600   1.096   4.299   3.813
 2086SOL     OW 6601   0.078   4.280   5.110
 2086SOL    HW1 6602   0.170   4.279   5.069
 2086SOL    HW2 6603   0.072   4.354   5.177
 2087SOL     OW 6604   0.561   3.946   4.871
 2087SOL    HW1 6605   0.599   3.862   4.908
 2087SOL    HW2 6606   0.473   3.965   4.915
 2088SOL     OW 6607   0.866   4.178   4.366
 2088SOL    HW1 6608   0.834   4.250   4.304
 2088SOL    HW2 6609   0.890   4.097   4.313
 2089SOL     OW 6610   1.017   3.763   4.477
 2089SOL    HW1 6611   0.945   3.768   4.408
 2089SOL    HW2 6612   0.993   3.694   4.546
 2090SOL     OW 6613   1.429   4.897   4.591
 2090SOL    HW1 6614   1.374   4.813   4.584
 2090SOL    HW2 6615   1.455   4.926   4.499
 2091SOL     OW 6616   1.466   4.314   4.716
 2091SOL    HW1 6617   1.436   4.219   4.723
 2091SOL    HW2 6618   1.539   4.330   4.782
 2092SOL     OW 6619   1.857   4.557   4.101
 2092SOL    HW1 6620   1.899   4.493   4.165
 2092SOL    HW2 6621   1.819   4.506   4.023
 2093SOL     OW 6622   0.488   5.109   3.898
 2093SOL    HW1 6623   0.401   5.094   3.945
 2093SOL    HW2 6624   0.471   5.135   3.803
 2094SOL     OW 6625   1.664   5.004   4.381
 2094SOL    HW1 6626   1.763   5.012   4.395
 2094SOL    HW2 6627   1.619   5.088   4.412
 2095SOL     OW 6628   1.390   4.299   3.802
 2095SOL    HW1 6629   1.336   4.278   3.883
 2095SOL    HW2 6630   1.481   4.258   3.811
 2096SOL     OW 6631   0.527   3.980   4.052
 2096SOL    HW1 6632   0.554   3.921   3.977
 2096SOL    HW2 6633   0.527   4.075   4.021
 2097SOL     OW 6634   1.754   4.947   5.312
 2097SOL    HW1 6635   1.845   4.908   5.299
 2097SOL    HW2 6636   1.762   5.043   5.336
 2098SOL     OW 6637   1.064   5.071   5.064
 2098SOL    HW1 6638   0.984   5.048   5.119
 2098SOL    HW2 6639   1.147   5.045   5.113
 2099SOL     OW 6640   1.592   5.353   5.349
 2099SOL    HW1 6641   1.619   5.387   5.259
 2099SOL    HW2 6642   1.671   5.315   5.395
 2100SOL     OW 6643   1.111   4.919   4.824
 2100SOL    HW1 6644   1.071   4.963   4.905
 2100SOL    HW2 6645   1.070   4.956   4.741
 2101SOL     OW 6646   1.638   4.823   4.803
 2101SOL    HW1 6647   1.643   4.904   4.862
 2101SOL    HW2 6648   1.552   4.825   4.752
 2102SOL     OW 6649   0.915   3.813   5.126
 2102SOL    HW1 6650   0.940   3.793   5.031
 2102SOL    HW2 6651   0.987   3.869   5.168
 2103SOL     OW 6652   0.980   4.840   5.443
 2103SOL    HW1 6653   0.881   4.846   5.453
 2103SOL    HW2 6654   1.003   4.760   5.387
 2104SOL     OW 6655   0.705   4.774   4.092
 2104SOL    HW1 6656   0.691   4.781   4.191
 2104SOL    HW2 6657   0.789   4.723   4.074
 2105SOL     OW 6658   0.410   4.537   4.975
 2105SOL    HW1 6659   0.496   4.549   5.025
 2105SOL    HW2 6660   0.368   4.450   5.002
 2106SOL     OW 6661   1.274   4.110   4.986
 2106SOL    HW1 6662   1.295   4.184   5.050
 2106SOL    HW2 6663   1.185   4.127   4.943
 2107SOL     OW 6664   0.064   5.288   5.055
 2107SOL    HW1 6665   0.018   5.370   5.021
 2107SOL    HW2 6666   0.162   5.307   5.064
 2108SOL     OW 6667   0.367   4.824   4.225
 2108SOL    HW1 6668   0.360   4.907   4.169
 2108SOL    HW2 6669   0.371   4.744   4.165
 2109SOL     OW 6670   0.566   4.261   4.589
 2109SOL    HW1 6671   0.578   4.327   4.515
 2109SOL    HW2 6672   0.612   4.295   4.672
 2110SOL     OW 6673   1.252   5.072   4.112
 2110SOL    HW1 6674   1.302   5.149   4.152
 2110SOL    HW2 6675   1.157   5.074   4.144
 2111SOL     OW 6676   1.272   5.169   4.866
 2111SOL    HW1 6677   1.319   5.182   4.953
 2111SOL    HW2 6678   1.206   5.095   4.875
 2112SOL     OW 6679   1.582   4.363   4.196
 2112SOL    HW1 6680   1.551   4.424   4.269
 2112SOL    HW2 6681   1.632   4.415   4.127
 2113SOL     OW 6682   0.354   5.234   5.053
 2113SOL    HW1 6683   0.333   5.190   4.966
 2113SOL    HW2 6684   0.451   5.260   5.056
 2114SOL     OW 6685   0.402   4.475   5.322
 2114SOL    HW1 6686   0.470   4.530   5.275
 2114SOL    HW2 6687   0.442   4.387   5.349
 2115SOL     OW 6688   1.587   4.503   5.394
 2115SOL    HW1 6689   1.495   4.541   5.389
 2115SOL    HW2 6690   1.647   4.550   5.329
 2116SOL     OW 6691   1.013   3.829   5.494
 2116SOL    HW1 6692   1.019   3.914   5.442
 2116SOL    HW2 6693   1.045   3.753   5.437
 2117SOL     OW 6694   0.504   3.774   5.464
 2117SOL    HW1 6695   0.462   3.717   5.394
 2117SOL    HW2 6696   0.438   3.843   5.496
 2118SOL     OW 6697   0.573   4.594   4.753
 2118SOL    HW1 6698   0.617   4.683   4.744
 2118SOL    HW2 6699   0.510   4.594   4.830
 2119SOL     OW 6700   1.360   4.586   4.769
 2119SOL    HW1 6701   1.285   4.586   4.703
 2119SOL    HW2 6702   1.397   4.494   4.778
 2120SOL     OW 6703   1.209   4.249   3.999
 2120SOL    HW1 6704   1.222   4.165   4.053
 2120SOL    HW2 6705   1.180   4.323   4.059
 2121SOL     OW 6706   0.307   3.937   4.955
 2121SOL    HW1 6707   0.284   3.974   5.045
 2121SOL    HW2 6708   0.277   3.842   4.949
 2122SOL     OW 6709   0.037   5.034   5.006
 2122SOL    HW1 6710   0.090   4.985   5.074
 2122SOL    HW2 6711   0.059   5.132   5.011
 2123SOL     OW 6712   0.732   4.358   4.788
 2123SOL    HW1 6713   0.791   4.332   4.712
 2123SOL    HW2 6714   0.704   4.454   4.777
 2124SOL     OW 6715   1.728   4.659   5.578
 2124SOL    HW1 6716   1.682   4.652   5.489
 2124SOL    HW2 6717   1.666   4.703   5.644
 2125SOL     OW 6718   0.307   3.787   4.342
 2125SOL    HW1 6719   0.296   3.881   4.375
 2125SOL    HW2 6720   0.302   3.724   4.419
 2126SOL     OW 6721   1.622   4.091   4.098
 2126SOL    HW1 6722   1.624   4.015   4.162
 2126SOL    HW2 6723   1.574   4.168   4.138
 2127SOL     OW 6724   1.023   4.490   4.690
 2127SOL    HW1 6725   1.038   4.511   4.786
 2127SOL    HW2 6726   0.993   4.395   4.681
 2128SOL     OW 6727   0.980   5.297   5.424
 2128SOL    HW1 6728   0.960   5.341   5.336
 2128SOL    HW2 6729   1.019   5.206   5.408
 2129SOL     OW 6730   1.859   5.242   5.329
 2129SOL    HW1 6731   1.873   5.269   5.234
 2129SOL    HW2 6732   1.942   5.264   5.382
 2130SOL     OW 6733   0.350   4.622   5.528
 2130SOL    HW1 6734   0.426   4.666   5.576
 2130SOL    HW2 6735   0.385   4.575   5.446
 2131SOL     OW 6736   1.540   3.998   3.849
 2131SOL    HW1 6737   1.479   3.923   3.872
 2131SOL    HW2 6738   1.562   4.050   3.932
 2132SOL     OW 6739   1.303   4.562   3.766
 2132SOL    HW1 6740   1.337   4.469   3.781
 2132SOL    HW2 6741   1.321   4.589   3.671
 2133SOL     OW 6742   1.068   5.057   4.573
 2133SOL    HW1 6743   1.075   4.973   4.518
 2133SOL    HW2 6744   1.130   5.126   4.537
 2134SOL     OW 6745   0.319   4.534   4.673
 2134SOL    HW1 6746   0.412   4.570   4.678
 2134SOL    HW2 6747   0.313   4.449   4.725
 2135SOL     OW 6748   0.339   4.233   4.730
 2135SOL    HW1 6749   0.287   4.150   4.713
 2135SOL    HW2 6750   0.416   4.238   4.666
 2136SOL     OW 6751   1.138   4.104   5.402
 2136SOL    HW1 6752   1.093   4.167   5.466
 2136SOL    HW2 6753   1.231   4.135   5.385
 2137SOL     OW 6754   1.160   3.931   5.201
 2137SOL    HW1 6755   1.160   3.995   5.278
 2137SOL    HW2 6756   1.188   3.979   5.118
 2138SOL     OW 6757   0.008   5.050   3.924
 2138SOL    HW1 6758  -0.085   5.071   3.893
 2138SOL    HW2 6759   0.018   4.951   3.937
 2139SOL     OW 6760   0.088   5.525   4.651
 2139SOL    HW1 6761   0.046   5.439   4.624
 2139SOL    HW2 6762   0.182   5.528   4.617
 2140SOL     OW 6763   0.504   5.292   4.634
 2140SOL    HW1 6764   0.570   5.366   4.643
 2140SOL    HW2 6765   0.548   5.213   4.592
 2141SOL     OW 6766   1.002   4.520   4.962
 2141SOL    HW1 6767   1.043   4.488   5.048
 2141SOL    HW2 6768   0.906   4.493   4.959
 2142SOL     OW 6769   0.040   4.268   4.838
 2142SOL    HW1 6770   0.125   4.235   4.797
 2142SOL    HW2 6771   0.053   4.283   4.936
 2143SOL     OW 6772   0.189   4.244   5.446
 2143SOL    HW1 6773   0.248   4.204   5.376
 2143SOL    HW2 6774   0.131   4.315   5.405
 2144SOL     OW 6775   1.369   4.674   5.384
 2144SOL    HW1 6776   1.408   4.763   5.404
 2144SOL    HW2 6777   1.379   4.654   5.287
 2145SOL     OW 6778   0.815   4.296   4.049
 2145SOL    HW1 6779   0.822   4.207   4.003
 2145SOL    HW2 6780   0.721   4.330   4.041
 2146SOL     OW 6781   1.657   4.328   4.930
 2146SOL    HW1 6782   1.619   4.259   4.992
 2146SOL    HW2 6783   1.739   4.292   4.886
 2147SOL     OW 6784   0.252   5.288   5.468
 2147SOL    HW1 6785   0.222   5.345   5.544
 2147SOL    HW2 6786   0.245   5.191   5.494
 2148SOL     OW 6787   0.671   4.188   4.993
 2148SOL    HW1 6788   0.637   4.099   4.963
 2148SOL    HW2 6789   0.697   4.242   4.913
 2149SOL     OW 6790   0.930   5.402   5.189
 2149SOL    HW1 6791   0.906   5.384   5.094
 2149SOL    HW2 6792   0.960   5.496   5.199
 2150SOL     OW 6793   0.473   4.224   3.915
 2150SOL    HW1 6794   0.534   4.304   3.919
 2150SOL    HW2 6795   0.378   4.255   3.922
 2151SOL     OW 6796   0.159   4.861   5.190
 2151SOL    HW1 6797   0.181   4.800   5.266
 2151SOL    HW2 6798   0.169   4.812   5.104
 2152SOL     OW 6799   1.347   4.783   4.958
 2152SOL    HW1 6800   1.371   4.720   4.884
 2152SOL    HW2 6801   1.257   4.823   4.940
 2153SOL     OW 6802   1.302   4.579   4.033
 2153SOL    HW1 6803   1.216   4.548   4.075
 2153SOL    HW2 6804   1.298   4.565   3.934
 2154SOL     OW 6805   1.759   5.471   4.878
 2154SOL    HW1 6806   1.820   5.501   4.805
 2154SOL    HW2 6807   1.721   5.382   4.856
 2155SOL     OW 6808   1.252   5.455   4.852
 2155SOL    HW1 6809   1.336   5.460   4.798
 2155SOL    HW2 6810   1.229   5.359   4.870
 2156SOL     OW 6811   0.083   4.982   4.746
 2156SOL    HW1 6812   0.078   4.981   4.846
 2156SOL    HW2 6813   0.000   4.941   4.708
 2157SOL     OW 6814   0.688   5.386   5.440
 2157SOL    HW1 6815   0.632   5.467   5.449
 2157SOL    HW2 6816   0.740   5.390   5.354
 2158SOL     OW 6817   1.726   3.859   4.247
 2158SOL    HW1 6818   1.799   3.842   4.180
 2158SOL    HW2 6819   1.695   3.772   4.285
 2159SOL     OW 6820   1.388   5.297   4.201
 2159SOL    HW1 6821   1.455   5.309   4.127
 2159SOL    HW2 6822   1.348   5.386   4.224
 2160SOL     OW 6823   0.130   5.518   5.575
 2160SOL    HW1 6824   0.089   5.444   5.628
 2160SOL    HW2 6825   0.194   5.569   5.633
 2161SOL     OW 6826   1.280   4.651   4.396
 2161SOL    HW1 6827   1.340   4.570   4.398
 2161SOL    HW2 6828   1.320   4.720   4.336
 2162SOL     OW 6829   0.830   4.997   5.146
 2162SOL    HW1 6830   0.825   5.030   5.241
 2162SOL    HW2 6831   0.744   5.016   5.100
 2163SOL     OW 6832   0.672   5.340   3.878
 2163SOL    HW1 6833   0.681   5.350   3.779
 2163SOL    HW2 6834   0.632   5.251   3.899
 2164SOL     OW 6835   1.650   5.444   5.118
 2164SOL    HW1 6836   1.703   5.454   5.034
 2164SOL    HW2 6837   1.623   5.534   5.152
 2165SOL     OW 6838   1.841   3.899   4.687
 2165SOL    HW1 6839   1.880   3.814   4.651
 2165SOL    HW2 6840   1.743   3.901   4.668
 2166SOL     OW 6841   0.263   4.050   4.444
 2166SOL    HW1 6842   0.184   4.101   4.410
 2166SOL    HW2 6843   0.254   4.035   4.542
 2167SOL     OW 6844   1.194   5.336   3.755
 2167SOL    HW1 6845   1.200   5.243   3.792
 2167SOL    HW2 6846   1.135   5.336   3.675
 2168SOL     OW 6847   0.822   4.726   5.096
 2168SOL    HW1 6848   0.862   4.725   5.004
 2168SOL    HW2 6849   0.832   4.818   5.136
 2169SOL     OW 6850   0.916   4.634   4.015
 2169SOL    HW1 6851   0.979   4.672   3.947
 2169SOL    HW2 6852   0.956   4.551   4.054
 2170SOL     OW 6853   1.504   5.331   3.768
 2170SOL    HW1 6854   1.412   5.368   3.775
 2170SOL    HW2 6855   1.542   5.351   3.678
 2171SOL     OW 6856   0.372   5.012   5.214
 2171SOL    HW1 6857   0.359   5.105   5.180
 2171SOL    HW2 6858   0.288   4.960   5.201
 2172SOL     OW 6859   1.614   5.016   5.013
 2172SOL    HW1 6860   1.674   5.019   5.093
 2172SOL    HW2 6861   1.539   5.080   5.026
 2173SOL     OW 6862   1.039   4.822   4.420
 2173SOL    HW1 6863   0.969   4.775   4.474
 2173SOL    HW2 6864   1.098   4.754   4.377
 2174SOL     OW 6865   1.014   3.960   4.695
 2174SOL    HW1 6866   1.006   3.924   4.602
 2174SOL    HW2 6867   1.012   3.884   4.760
 2175SOL     OW 6868   0.590   5.211   4.215
 2175SOL    HW1 6869   0.632   5.153   4.145
 2175SOL    HW2 6870   0.546   5.290   4.171
 2176SOL     OW 6871   1.709   4.109   5.105
 2176SOL    HW1 6872   1.782   4.178   5.109
 2176SOL    HW2 6873   1.737   4.034   5.046
 2177SOL     OW 6874   0.255   5.072   4.014
 2177SOL    HW1 6875   0.159   5.073   3.987
 2177SOL    HW2 6876   0.267   5.125   4.098
 2178SOL     OW 6877   0.105   4.737   5.450
 2178SOL    HW1 6878   0.028   4.704   5.504
 2178SOL    HW2 6879   0.190   4.707   5.492
 2179SOL     OW 6880   0.672   3.927   5.213
 2179SOL    HW1 6881   0.762   3.911   5.173
 2179SOL    HW2 6882   0.680   3.932   5.312
 2180SOL     OW 6883   0.075   4.069   3.757
 2180SOL    HW1 6884  -0.017   4.041   3.728
 2180SOL    HW2 6885   0.106   4.146   3.701
 2181SOL     OW 6886   1.440   4.580   5.122
 2181SOL    HW1 6887   1.383   4.632   5.059
 2181SOL    HW2 6888   1.536   4.592   5.098
 2182SOL     OW 6889   0.072   3.890   4.042
 2182SOL    HW1 6890   0.055   3.973   3.988
 2182SOL    HW2 6891   0.162   3.853   4.020
 2183SOL     OW 6892   1.183   5.059   3.843
 2183SOL    HW1 6893   1.084   5.048   3.845
 2183SOL    HW2 6894   1.217   5.074   3.936
 2184SOL     OW 6895   0.613   4.566   5.155
 2184SOL    HW1 6896   0.669   4.647   5.138
 2184SOL    HW2 6897   0.672   4.486   5.158
 2185SOL     OW 6898   1.493   5.491   4.683
 2185SOL    HW1 6899   1.526   5.555   4.614
 2185SOL    HW2 6900   1.559   5.485   4.758
 2186SOL     OW 6901   0.716   4.289   5.432
 2186SOL    HW1 6902   0.735   4.354   5.506
 2186SOL    HW2 6903   0.776   4.209   5.441
 2187SOL     OW 6904   1.450   4.944   5.357
 2187SOL    HW1 6905   1.441   4.934   5.456
 2187SOL    HW2 6906   1.546   4.937   5.331
 2188SOL     OW 6907   0.390   5.465   5.284
 2188SOL    HW1 6908   0.299   5.506   5.282
 2188SOL    HW2 6909   0.383   5.371   5.316
 2189SOL     OW 6910   1.674   4.607   4.978
 2189SOL    HW1 6911   1.647   4.518   4.941
 2189SOL    HW2 6912   1.675   4.675   4.905
 2190SOL     OW 6913   1.225   4.049   4.173
 2190SOL    HW1 6914   1.290   3.975   4.162
 2190SOL    HW2 6915   1.245   4.099   4.257
 2191SOL     OW 6916   0.594   4.469   4.376
 2191SOL    HW1 6917   0.644   4.554   4.357
 2191SOL    HW2 6918   0.506   4.471   4.328
 2192SOL     OW 6919   1.777   4.066   5.366
 2192SOL    HW1 6920   1.760   4.097   5.272
 2192SOL    HW2 6921   1.693   4.029   5.404
 2193SOL     OW 6922   1.730   4.658   5.241
 2193SOL    HW1 6923   1.768   4.749   5.256
 2193SOL    HW2 6924   1.722   4.641   5.142
 2194SOL     OW 6925   0.859   5.098   3.740
 2194SOL    HW1 6926   0.813   5.113   3.828
 2194SOL    HW2 6927   0.903   5.183   3.710
 2195SOL     OW 6928   0.661   5.514   4.677
 2195SOL    HW1 6929   0.615   5.602   4.664
 2195SOL    HW2 6930   0.760   5.526   4.670
 2196SOL     OW 6931   0.859   4.680   4.585
 2196SOL    HW1 6932   0.913   4.611   4.633
 2196SOL    HW2 6933   0.827   4.749   4.651
 2197SOL     OW 6934   1.083   4.708   3.811
 2197SOL    HW1 6935   1.060   4.761   3.729
 2197SOL    HW2 6936   1.164   4.652   3.792
 2198SOL     OW 6937   1.861   5.293   4.575
 2198SOL    HW1 6938   1.790   5.281   4.505
 2198SOL    HW2 6939   1.862   5.214   4.635
 2199SOL     OW 6940   0.221   5.038   5.568
 2199SOL    HW1 6941   0.156   4.965   5.547
 2199SOL    HW2 6942   0.225   5.052   5.666
 2200SOL     OW 6943   0.079   4.964   4.377
 2200SOL    HW1 6944   0.078   4.917   4.465
 2200SOL    HW2 6945   0.161   4.936   4.326
 2201SOL     OW 6946   0.672   5.115   5.348
 2201SOL    HW1 6947   0.594   5.065   5.386
 2201SOL    HW2 6948   0.669   5.210   5.379
 2202SOL     OW 6949   1.824   3.916   4.951
 2202SOL    HW1 6950   1.820   3.826   4.995
 2202SOL    HW2 6951   1.827   3.905   4.852
 2203SOL     OW 6952   0.428   4.148   4.244
 2203SOL    HW1 6953   0.458   4.076   4.182
 2203SOL    HW2 6954   0.389   4.108   4.327
 2204SOL     OW 6955   1.705   5.211   4.828
 2204SOL    HW1 6956   1.612   5.186   4.801
 2204SOL    HW2 6957   1.731   5.161   4.910
 2205SOL     OW 6958   0.317   4.271   5.004
 2205SOL    HW1 6959   0.355   4.212   5.076
 2205SOL    HW2 6960   0.357   4.245   4.916
 2206SOL     OW 6961   0.812   5.310   4.411
 2206SOL    HW1 6962   0.844   5.320   4.317
 2206SOL    HW2 6963   0.733   5.248   4.413
 2207SOL     OW 6964   1.424   3.938   4.836
 2207SOL    HW1 6965   1.476   3.873   4.891
 2207SOL    HW2 6966   1.375   4.001   4.897
 2208SOL     OW 6967   1.001   3.758   4.878
 2208SOL    HW1 6968   0.938   3.686   4.847
 2208SOL    HW2 6969   1.094   3.722   4.878
 2209SOL     OW 6970   0.770   5.054   4.025
 2209SOL    HW1 6971   0.724   4.967   4.042
 2209SOL    HW2 6972   0.861   5.051   4.066
 2210SOL     OW 6973   0.618   5.291   5.008
 2210SOL    HW1 6974   0.613   5.373   5.065
 2210SOL    HW2 6975   0.707   5.288   4.963
 2211SOL     OW 6976   1.352   3.776   3.892
 2211SOL    HW1 6977   1.387   3.735   3.808
 2211SOL    HW2 6978   1.262   3.738   3.912
 2212SOL     OW 6979   1.300   4.177   4.415
 2212SOL    HW1 6980   1.241   4.257   4.419
 2212SOL    HW2 6981   1.315   4.142   4.508
 2213SOL     OW 6982   1.593   3.945   4.606
 2213SOL    HW1 6983   1.509   3.944   4.660
 2213SOL    HW2 6984   1.595   4.028   4.550
 2214SOL     OW 6985   0.039   4.801   4.024
 2214SOL    HW1 6986   0.138   4.790   4.015
 2214SOL    HW2 6987  -0.001   4.715   4.056
 2215SOL     OW 6988   0.875   5.370   4.061
 2215SOL    HW1 6989   0.798   5.335   4.007
 2215SOL    HW2 6990   0.843   5.441   4.123
 2216SOL     OW 6991   0.230   4.352   5.699
 2216SOL    HW1 6992   0.137   4.350   5.736
 2216SOL    HW2 6993   0.231   4.313   5.607
 2217SOL     OW 6994   0.225   3.999   6.582
 2217SOL    HW1 6995   0.260   3.982   6.674
 2217SOL    HW2 6996   0.137   3.954   6.570
 2218SOL     OW 6997   0.019   4.092   6.233
 2218SOL    HW1 6998  -0.063   4.135   6.272
 2218SOL    HW2 6999  -0.009   4.019   6.170
 2219SOL     OW 7000   0.569   4.999   6.751
 2219SOL    HW1 7001   0.476   4.992   6.714
 2219SOL    HW2 7002   0.580   5.088   6.795
 2220SOL     OW 7003   1.555   5.235   6.289
 2220SOL    HW1 7004   1.498   5.219   6.370
 2220SOL    HW2 7005   1.496   5.245   6.209
 2221SOL     OW 7006   1.135   4.427   6.303
 2221SOL    HW1 7007   1.192   4.505   6.278
 2221SOL    HW2 7008   1.075   4.453   6.379
 2222SOL     OW 7009   1.755   4.331   5.817
 2222SOL    HW1 7010   1.743   4.318   5.718
 2222SOL    HW2 7011   1.725   4.250   5.866
 2223SOL     OW 7012   0.768   4.868   6.609
 2223SOL    HW1 7013   0.690   4.885   6.669
 2223SOL    HW2 7014   0.802   4.955   6.573
 2224SOL     OW 7015   0.685   4.736   6.251
 2224SOL    HW1 7016   0.754   4.720   6.321
 2224SOL    HW2 7017   0.612   4.793   6.289
 2225SOL     OW 7018   0.335   5.159   6.647
 2225SOL    HW1 7019   0.257   5.128   6.594
 2225SOL    HW2 7020   0.393   5.217   6.590
 2226SOL     OW 7021   1.603   4.171   6.323
 2226SOL    HW1 7022   1.529   4.217   6.273
 2226SOL    HW2 7023   1.654   4.239   6.376
 2227SOL     OW 7024   0.231   5.437   6.069
 2227SOL    HW1 7025   0.265   5.514   6.123
 2227SOL    HW2 7026   0.275   5.437   5.979
 2228SOL     OW 7027   0.230   5.158   6.124
 2228SOL    HW1 7028   0.204   5.254   6.124
 2228SOL    HW2 7029   0.159   5.104   6.169
 2229SOL     OW 7030   0.240   4.815   6.472
 2229SOL    HW1 7031   0.254   4.731   6.524
 2229SOL    HW2 7032   0.185   4.879   6.527
 2230SOL     OW 7033   0.606   4.688   5.709
 2230SOL    HW1 7034   0.613   4.772   5.655
 2230SOL    HW2 7035   0.652   4.701   5.797
 2231SOL     OW 7036   0.122   4.367   6.149
 2231SOL    HW1 7037   0.077   4.279   6.166
 2231SOL    HW2 7038   0.121   4.421   6.233
 2232SOL     OW 7039   1.842   5.491   5.945
 2232SOL    HW1 7040   1.896   5.462   6.025
 2232SOL    HW2 7041   1.872   5.581   5.916
 2233SOL     OW 7042   0.027   5.320   5.703
 2233SOL    HW1 7043   0.008   5.224   5.724
 2233SOL    HW2 7044  -0.006   5.378   5.778
 2234SOL     OW 7045   1.689   4.646   6.198
 2234SOL    HW1 7046   1.784   4.617   6.206
 2234SOL    HW2 7047   1.681   4.711   6.123
 2235SOL     OW 7048   1.641   4.832   6.018
 2235SOL    HW1 7049   1.727   4.834   5.966
 2235SOL    HW2 7050   1.655   4.879   6.106
 2236SOL     OW 7051   0.613   5.089   6.312
 2236SOL    HW1 7052   0.564   5.002   6.321
 2236SOL    HW2 7053   0.590   5.132   6.225
 2237SOL     OW 7054   0.809   3.728   6.088
 2237SOL    HW1 7055   0.849   3.819   6.079
 2237SOL    HW2 7056   0.709   3.736   6.094
 2238SOL     OW 7057   1.525   4.723   5.776
 2238SOL    HW1 7058   1.462   4.647   5.789
 2238SOL    HW2 7059   1.573   4.741   5.862
 2239SOL     OW 7060   1.466   5.141   6.539
 2239SOL    HW1 7061   1.407   5.147   6.619
 2239SOL    HW2 7062   1.451   5.053   6.493
 2240SOL     OW 7063   1.667   5.438   6.158
 2240SOL    HW1 7064   1.626   5.415   6.070
 2240SOL    HW2 7065   1.649   5.364   6.223
 2241SOL     OW 7066   0.598   4.453   5.856
 2241SOL    HW1 7067   0.622   4.522   5.788
 2241SOL    HW2 7068   0.520   4.486   5.910
 2242SOL     OW 7069   1.281   4.069   6.530
 2242SOL    HW1 7070   1.195   4.019   6.517
 2242SOL    HW2 7071   1.343   4.015   6.586
 2243SOL     OW 7072   1.576   5.386   5.893
 2243SOL    HW1 7073   1.665   5.432   5.896
 2243SOL    HW2 7074   1.555   5.362   5.798
 2244SOL     OW 7075   0.991   4.134   6.828
 2244SOL    HW1 7076   0.914   4.168   6.882
 2244SOL    HW2 7077   0.957   4.083   6.749
 2245SOL     OW 7078   1.041   4.425   6.015
 2245SOL    HW1 7079   1.067   4.421   6.111
 2245SOL    HW2 7080   0.956   4.374   6.001
 2246SOL     OW 7081   0.076   4.535   6.375
 2246SOL    HW1 7082   0.175   4.523   6.384
 2246SOL    HW2 7083   0.052   4.630   6.396
 2247SOL     OW 7084   0.865   4.072   5.781
 2247SOL    HW1 7085   0.924   4.135   5.732
 2247SOL    HW2 7086   0.884   3.978   5.752
 2248SOL     OW 7087   1.362   4.868   6.131
 2248SOL    HW1 7088   1.445   4.839   6.083
 2248SOL    HW2 7089   1.313   4.935   6.075
 2249SOL     OW 7090   0.550   3.920   6.471
 2249SOL    HW1 7091   0.545   3.915   6.571
 2249SOL    HW2 7092   0.552   4.016   6.442
 2250SOL     OW 7093   1.008   5.180   6.063
 2250SOL    HW1 7094   0.962   5.252   6.011
 2250SOL    HW2 7095   1.004   5.200   6.161
 2251SOL     OW 7096   0.351   5.525   6.439
 2251SOL    HW1 7097   0.401   5.439   6.445
 2251SOL    HW2 7098   0.416   5.602   6.436
 2252SOL     OW 7099   1.795   4.790   6.459
 2252SOL    HW1 7100   1.733   4.775   6.383
 2252SOL    HW2 7101   1.743   4.801   6.544
 2253SOL     OW 7102   0.321   4.667   5.828
 2253SOL    HW1 7103   0.403   4.706   5.786
 2253SOL    HW2 7104   0.294   4.585   5.779
 2254SOL     OW 7105   1.458   4.459   6.314
 2254SOL    HW1 7106   1.453   4.394   6.389
 2254SOL    HW2 7107   1.538   4.518   6.327
 2255SOL     OW 7108   1.111   5.500   5.823
 2255SOL    HW1 7109   1.051   5.438   5.873
 2255SOL    HW2 7110   1.142   5.456   5.738
 2256SOL     OW 7111   1.632   5.101   5.667
 2256SOL    HW1 7112   1.600   5.195   5.657
 2256SOL    HW2 7113   1.556   5.038   5.655
 2257SOL     OW 7114   0.464   5.467   5.909
 2257SOL    HW1 7115   0.497   5.506   5.995
 2257SOL    HW2 7116   0.540   5.460   5.844
 2258SOL     OW 7117   1.400   3.831   6.012
 2258SOL    HW1 7118   1.376   3.794   5.922
 2258SOL    HW2 7119   1.499   3.847   6.016
 2259SOL     OW 7120   0.249   5.509   6.827
 2259SOL    HW1 7121   0.306   5.444   6.877
 2259SOL    HW2 7122   0.233   5.476   6.734
 2260SOL     OW 7123   0.940   5.422   6.490
 2260SOL    HW1 7124   1.020   5.365   6.511
 2260SOL    HW2 7125   0.891   5.382   6.413
 2261SOL     OW 7126   0.382   4.424   6.066
 2261SOL    HW1 7127   0.427   4.334   6.063
 2261SOL    HW2 7128   0.288   4.413   6.099
 2262SOL     OW 7129   0.614   3.846   5.703
 2262SOL    HW1 7130   0.712   3.824   5.710
 2262SOL    HW2 7131   0.583   3.829   5.610
 2263SOL     OW 7132   0.888   5.238   6.781
 2263SOL    HW1 7133   0.865   5.213   6.687
 2263SOL    HW2 7134   0.949   5.169   6.820
 2264SOL     OW 7135   0.803   5.126   6.510
 2264SOL    HW1 7136   0.893   5.140   6.468
 2264SOL    HW2 7137   0.732   5.128   6.439
 2265SOL     OW 7138   0.922   4.227   6.485
 2265SOL    HW1 7139   0.897   4.218   6.389
 2265SOL    HW2 7140   0.970   4.145   6.516
 2266SOL     OW 7141   0.539   3.788   6.098
 2266SOL    HW1 7142   0.458   3.789   6.156
 2266SOL    HW2 7143   0.542   3.871   6.043
 2267SOL     OW 7144   1.434   4.912   5.627
 2267SOL    HW1 7145   1.466   4.836   5.684
 2267SOL    HW2 7146   1.342   4.939   5.657
 2268SOL     OW 7147   0.297   3.759   5.757
 2268SOL    HW1 7148   0.346   3.843   5.736
 2268SOL    HW2 7149   0.359   3.694   5.802
 2269SOL     OW 7150   0.935   3.960   6.066
 2269SOL    HW1 7151   0.887   4.001   5.988
 2269SOL    HW2 7152   1.034   3.958   6.047
 2270SOL     OW 7153   1.227   5.294   6.379
 2270SOL    HW1 7154   1.248   5.368   6.314
 2270SOL    HW2 7155   1.295   5.294   6.452
 2271SOL     OW 7156   0.459   4.876   6.327
 2271SOL    HW1 7157   0.388   4.849   6.392
 2271SOL    HW2 7158   0.433   4.848   6.234
 2272SOL     OW 7159   1.271   5.521   6.177
 2272SOL    HW1 7160   1.315   5.585   6.113
 2272SOL    HW2 7161   1.221   5.573   6.247
 2273SOL     OW 7162   1.032   4.273   5.602
 2273SOL    HW1 7163   0.991   4.355   5.563
 2273SOL    HW2 7164   1.096   4.299   5.675
 2274SOL     OW 7165   0.561   3.946   6.733
 2274SOL    HW1 7166   0.599   3.862   6.770
 2274SOL    HW2 7167   0.473   3.965   6.777
 2275SOL     OW 7168   0.866   4.178   6.228
 2275SOL    HW1 7169   0.834   4.250   6.166
 2275SOL    HW2 7170   0.890   4.097   6.175
 2276SOL     OW 7171   1.017   3.763   6.339
 2276SOL    HW1 7172   0.945   3.768   6.270
 2276SOL    HW2 7173   0.993   3.694   6.408
 2277SOL     OW 7174   1.429   4.897   6.453
 2277SOL    HW1 7175   1.374   4.813   6.446
 2277SOL    HW2 7176   1.455   4.926   6.361
 2278SOL     OW 7177   1.466   4.314   6.578
 2278SOL    HW1 7178   1.436   4.219   6.585
 2278SOL    HW2 7179   1.539   4.330   6.644
 2279SOL     OW 7180   1.857   4.557   5.963
 2279SOL    HW1 7181   1.899   4.493   6.027
 2279SOL    HW2 7182   1.819   4.506   5.885
 2280SOL     OW 7183   0.488   5.109   5.760
 2280SOL    HW1 7184   0.401   5.094   5.807
 2280SOL    HW2 7185   0.471   5.135   5.665
 2281SOL     OW 7186   1.664   5.004   6.243
 2281SOL    HW1 7187   1.763   5.012   6.257
 2281SOL    HW2 7188   1.619   5.088   6.274
 2282SOL     OW 7189   1.390   4.299   5.664
 2282SOL    HW1 7190   1.336   4.278   5.745
 2282SOL    HW2 7191   1.481   4.258   5.673
 2283SOL     OW 7192   0.527   3.980   5.914
 2283SOL    HW1 7193   0.554   3.921   5.839
 2283SOL    HW2 7194   0.527   4.075   5.883
 2284SOL     OW 7195   1.111   4.919   6.686
 2284SOL    HW1 7196   1.071   4.963   6.767
 2284SOL    HW2 7197   1.070   4.956   6.603
 2285SOL     OW 7198   1.638   4.823   6.665
 2285SOL    HW1 7199   1.643   4.904   6.724
 2285SOL    HW2 7200   1.552   4.825   6.614
 2286SOL     OW 7201   0.705   4.774   5.954
 2286SOL    HW1 7202   0.691   4.781   6.053
 2286SOL    HW2 7203   0.789   4.723   5.936
 2287SOL     OW 7204   0.367   4.824   6.087
 2287SOL    HW1 7205   0.360   4.907   6.031
 2287SOL    HW2 7206   0.371   4.744   6.027
 2288SOL     OW 7207   0.566   4.261   6.451
 2288SOL    HW1 7208   0.578   4.327   6.377
 2288SOL    HW2 7209   0.612   4.295   6.534
 2289SOL     OW 7210   1.252   5.072   5.974
 2289SOL    HW1 7211   1.302   5.149   6.014
 2289SOL    HW2 7212   1.157   5.074   6.006
 2290SOL     OW 7213   1.272   5.169   6.728
 2290SOL    HW1 7214   1.319   5.182   6.815
 2290SOL    HW2 7215   1.206   5.095   6.737
 2291SOL     OW 7216   1.582   4.363   6.058
 2291SOL    HW1 7217   1.551   4.424   6.131
 2291SOL    HW2 7218   1.632   4.415   5.989
 2292SOL     OW 7219   0.573   4.594   6.615
 2292SOL    HW1 7220   0.617   4.683   6.606
 2292SOL    HW2 7221   0.510   4.594   6.692
 2293SOL     OW 7222   1.360   4.586   6.631
 2293SOL    HW1 7223   1.285   4.586   6.565
 2293SOL    HW2 7224   1.397   4.494   6.640
 2294SOL     OW 7225   1.209   4.249   5.861
 2294SOL    HW1 7226   1.222   4.165   5.915
 2294SOL    HW2 7227   1.180   4.323   5.921
 2295SOL     OW 7228   0.732   4.358   6.650
 2295SOL    HW1 7229   0.791   4.332   6.574
 2295SOL    HW2 7230   0.704   4.454   6.639
 2296SOL     OW 7231   0.307   3.787   6.204
 2296SOL    HW1 7232   0.296   3.881   6.237
 2296SOL    HW2 7233   0.302   3.724   6.281
 2297SOL     OW 7234   1.622   4.091   5.960
 2297SOL    HW1 7235   1.624   4.015   6.024
 2297SOL    HW2 7236   1.574   4.168   6.000
 2298SOL     OW 7237   1.023   4.490   6.552
 2298SOL    HW1 7238   1.038   4.511   6.648
 2298SOL    HW2 7239   0.993   4.395   6.543
 2299SOL     OW 7240   1.540   3.998   5.711
 2299SOL    HW1 7241   1.479   3.923   5.734
 2299SOL    HW2 7242   1.562   4.050   5.794
 2300SOL     OW 7243   1.303   4.562   5.628
 2300SOL    HW1 7244   1.337   4.469   5.643
 2300SOL    HW2 7245   1.321   4.589   5.533
 2301SOL     OW 7246   1.068   5.057   6.435
 2301SOL    HW1 7247   1.075   4.973   6.380
 2301SOL    HW2 7248   1.130   5.126   6.399
 2302SOL     OW 7249   0.319   4.534   6.535
 2302SOL    HW1 7250   0.412   4.570   6.540
 2302SOL    HW2 7251   0.313   4.449   6.587
 2303SOL     OW 7252   0.339   4.233   6.592
 2303SOL    HW1 7253   0.287   4.150   6.575
 2303SOL    HW2 7254   0.416   4.238   6.528
 2304SOL     OW 7255   0.008   5.050   5.786
 2304SOL    HW1 7256  -0.085   5.071   5.755
 2304SOL    HW2 7257   0.018   4.951   5.799
 2305SOL     OW 7258   0.088   5.525   6.513
 2305SOL    HW1 7259   0.046   5.439   6.486
 2305SOL    HW2 7260   0.182   5.528   6.479
 2306SOL     OW 7261   0.504   5.292   6.496
 2306SOL    HW1 7262   0.570   5.366   6.505
 2306SOL    HW2 7263   0.548   5.213   6.454
 2307SOL     OW 7264   0.040   4.268   6.700
 2307SOL    HW1 7265   0.125   4.235   6.659
 2307SOL    HW2 7266   0.053   4.283   6.798
 2308SOL     OW 7267   0.815   4.296   5.911
 2308SOL    HW1 7268   0.822   4.207   5.865
 2308SOL    HW2 7269   0.721   4.330   5.903
 2309SOL     OW 7270   1.657   4.328   6.792
 2309SOL    HW1 7271   1.619   4.259   6.854
 2309SOL    HW2 7272   1.739   4.292   6.748
 2310SOL     OW 7273   0.671   4.188   6.855
 2310SOL    HW1 7274   0.637   4.099   6.825
 2310SOL    HW2 7275   0.697   4.242   6.775
 2311SOL     OW 7276   0.473   4.224   5.777
 2311SOL    HW1 7277   0.534   4.304   5.781
 2311SOL    HW2 7278   0.378   4.255   5.784
 2312SOL     OW 7279   1.347   4.783   6.820
 2312SOL    HW1 7280   1.371   4.720   6.746
 2312SOL    HW2 7281   1.257   4.823   6.802
 2313SOL     OW 7282   1.302   4.579   5.895
 2313SOL    HW1 7283   1.216   4.548   5.937
 2313SOL    HW2 7284   1.298   4.565   5.796
 2314SOL     OW 7285   1.759   5.471   6.740
 2314SOL    HW1 7286   1.820   5.501   6.667
 2314SOL    HW2 7287   1.721   5.382   6.718
 2315SOL     OW 7288   1.252   5.455   6.714
 2315SOL    HW1 7289   1.336   5.460   6.660
 2315SOL    HW2 7290   1.229   5.359   6.732
 2316SOL     OW 7291   0.083   4.982   6.608
 2316SOL    HW1 7292   0.078   4.981   6.708
 2316SOL    HW2 7293   0.000   4.941   6.570
 2317SOL     OW 7294   1.726   3.859   6.109
 2317SOL    HW1 7295   1.799   3.842   6.042
 2317SOL    HW2 7296   1.695   3.772   6.147
 2318SOL     OW 7297   1.388   5.297   6.063
 2318SOL    HW1 7298   1.455   5.309   5.989
 2318SOL    HW2 7299   1.348   5.386   6.086
 2319SOL     OW 7300   1.280   4.651   6.258
 2319SOL    HW1 7301   1.340   4.570   6.260
 2319SOL    HW2 7302   1.320   4.720   6.198
 2320SOL     OW 7303   0.672   5.340   5.740
 2320SOL    HW1 7304   0.681   5.350   5.641
 2320SOL    HW2 7305   0.632   5.251   5.761
 2321SOL     OW 7306   1.841   3.899   6.549
 2321SOL    HW1 7307   1.880   3.814   6.513
 2321SOL    HW2 7308   1.743   3.901   6.530
 2322SOL     OW 7309   0.263   4.050   6.306
 2322SOL    HW1 7310   0.184   4.101   6.272
 2322SOL    HW2 7311   0.254   4.035   6.404
 2323SOL     OW 7312   1.194   5.336   5.617
 2323SOL    HW1 7313   1.200   5.243   5.654
 2323SOL    HW2 7314   1.135   5.336   5.537
 2324SOL     OW 7315   0.916   4.634   5.877
 2324SOL    HW1 7316   0.979   4.672   5.809
 2324SOL    HW2 7317   0.956   4.551   5.916
 2325SOL     OW 7318   1.504   5.331   5.630
 2325SOL    HW1 7319   1.412   5.368   5.637
 2325SOL    HW2 7320   1.542   5.351   5.540
 2326SOL     OW 7321   1.039   4.822   6.282
 2326SOL    HW1 7322   0.969   4.775   6.336
 2326SOL    HW2 7323   1.098   4.754   6.239
 2327SOL     OW 7324   1.014   3.960   6.557
 2327SOL    HW1 7325   1.006   3.924   6.464
 2327SOL    HW2 7326   1.012   3.884   6.622
 2328SOL     OW 7327   0.590   5.211   6.077
 2328SOL    HW1 7328   0.632   5.153   6.007
 2328SOL    HW2 7329   0.546   5.290   6.033
 2329SOL     OW 7330   0.255   5.072   5.876
 2329SOL    HW1 7331   0.159   5.073   5.849
 2329SOL    HW2 7332   0.267   5.125   5.960
 2330SOL     OW 7333   0.075   4.069   5.619
 2330SOL    HW1 7334  -0.017   4.041   5.590
 2330SOL    HW2 7335   0.106   4.146   5.563
 2331SOL     OW 7336   0.072   3.890   5.904
 2331SOL    HW1 7337   0.055   3.973   5.850
 2331SOL    HW2 7338   0.162   3.853   5.882
 2332SOL     OW 7339   1.183   5.059   5.705
 2332SOL    HW1 7340   1.084   5.048   5.707
 2332SOL    HW2 7341   1.217   5.074   5.798
 2333SOL     OW 7342   1.493   5.491   6.545
 2333SOL    HW1 7343   1.526   5.555   6.476
 2333SOL    HW2 7344   1.559   5.485   6.620
 2334SOL     OW 7345   1.674   4.607   6.840
 2334SOL    HW1 7346   1.647   4.518   6.803
 2334SOL    HW2 7347   1.675   4.675   6.767
 2335SOL     OW 7348   1.225   4.049   6.035
 2335SOL    HW1 7349   1.290   3.975   6.024
 2335SOL    HW2 7350   1.245   4.099   6.119
 2336SOL     OW 7351   0.594   4.469   6.238
 2336SOL    HW1 7352   0.644   4.554   6.219
 2336SOL    HW2 7353   0.506   4.471   6.190
 2337SOL     OW 7354   0.859   5.098   5.602
 2337SOL    HW1 7355   0.813   5.113   5.690
 2337SOL    HW2 7356   0.903   5.183   5.572
 2338SOL     OW 7357   0.661   5.514   6.539
 2338SOL    HW1 7358   0.615   5.602   6.526
 2338SOL    HW2 7359   0.760   5.526   6.532
 2339SOL     OW 7360   0.859   4.680   6.447
 2339SOL    HW1 7361   0.913   4.611   6.495
 2339SOL    HW2 7362   0.827   4.749   6.513
 2340SOL     OW 7363   1.083   4.708   5.673
 2340SOL    HW1 7364   1.060   4.761   5.591
 2340SOL    HW2 7365   1.164   4.652   5.654
 2341SOL     OW 7366   1.861   5.293   6.437
 2341SOL    HW1 7367   1.790   5.281   6.367
 2341SOL    HW2 7368   1.862   5.214   6.497
 2342SOL     OW 7369   0.079   4.964   6.239
 2342SOL    HW1 7370   0.078   4.917   6.327
 2342SOL    HW2 7371   0.161   4.936   6.188
 2343SOL     OW 7372   1.824   3.916   6.813
 2343SOL    HW1 7373   1.820   3.826   6.857
 2343SOL    HW2 7374   1.827   3.905   6.714
 2344SOL     OW 7375   0.428   4.148   6.106
 2344SOL    HW1 7376   0.458   4.076   6.044
 2344SOL    HW2 7377   0.389   4.108   6.189
 2345SOL     OW 7378   1.705   5.211   6.690
 2345SOL    HW1 7379   1.612   5.186   6.663
 2345SOL    HW2 7380   1.731   5.161   6.772
 2346SOL     OW 7381   0.317   4.271   6.866
 2346SOL    HW1 7382   0.355   4.212   6.938
 2346SOL    HW2 7383   0.357   4.245   6.778
 2347SOL     OW 7384   0.812   5.310   6.273
 2347SOL    HW1 7385   0.844   5.320   6.179
 2347SOL    HW2 7386   0.733   5.248   6.275
 2348SOL     OW 7387   1.424   3.938   6.698
 2348SOL    HW1 7388   1.476   3.873   6.753
 2348SOL    HW2 7389   1.375   4.001   6.759
 2349SOL     OW 7390   1.001   3.758   6.740
 2349SOL    HW1 7391   0.938   3.686   6.709
 2349SOL    HW2 7392   1.094   3.722   6.740
 2350SOL     OW 7393   0.770   5.054   5.887
 2350SOL    HW1 7394   0.724   4.967   5.904
 2350SOL    HW2 7395   0.861   5.051   5.928
 2351SOL     OW 7396   1.352   3.776   5.754
 2351SOL    HW1 7397   1.387   3.735   5.670
 2351SOL    HW2 7398   1.262   3.738   5.774
 2352SOL     OW 7399   1.300   4.177   6.277
 2352SOL    HW1 7400   1.241   4.257   6.281
 2352SOL    HW2 7401   1.315   4.142   6.370
 2353SOL     OW 7402   1.593   3.945   6.468
 2353SOL    HW1 7403   1.509   3.944   6.522
 2353SOL    HW2 7404   1.595   4.028   6.412
 2354SOL     OW 7405   0.039   4.801   5.886
 2354SOL    HW1 7406   0.138   4.790   5.877
 2354SOL    HW2 7407  -0.001   4.715   5.918
 2355SOL     OW 7408   0.875   5.370   5.923
 2355SOL    HW1 7409   0.798   5.335   5.869
 2355SOL    HW2 7410   0.843   5.441   5.985
 2356SOL     OW 7411   0.230   6.214   0.113
 2356SOL    HW1 7412   0.137   6.212   0.150
 2356SOL    HW2 7413   0.231   6.175   0.021
 2357SOL     OW 7414   0.225   5.861   0.996
 2357SOL    HW1 7415   0.260   5.844   1.088
 2357SOL    HW2 7416   0.137   5.816   0.984
 2358SOL     OW 7417   0.019   5.954   0.647
 2358SOL    HW1 7418  -0.063   5.997   0.686
 2358SOL    HW2 7419  -0.009   5.881   0.584
 2359SOL     OW 7420   0.569   6.861   1.165
 2359SOL    HW1 7421   0.476   6.854   1.128
 2359SOL    HW2 7422   0.580   6.950   1.209
 2360SOL     OW 7423   1.555   7.097   0.703
 2360SOL    HW1 7424   1.498   7.081   0.784
 2360SOL    HW2 7425   1.496   7.107   0.623
 2361SOL     OW 7426   1.135   6.289   0.717
 2361SOL    HW1 7427   1.192   6.367   0.692
 2361SOL    HW2 7428   1.075   6.315   0.793
 2362SOL     OW 7429   1.755   6.193   0.231
 2362SOL    HW1 7430   1.743   6.180   0.132
 2362SOL    HW2 7431   1.725   6.112   0.280
 2363SOL     OW 7432   0.768   6.730   1.023
 2363SOL    HW1 7433   0.690   6.747   1.083
 2363SOL    HW2 7434   0.802   6.817   0.987
 2364SOL     OW 7435   0.850   6.384   1.823
 2364SOL    HW1 7436   0.846   6.460   1.888
 2364SOL    HW2 7437   0.872   6.420   1.732
 2365SOL     OW 7438   0.685   6.598   0.665
 2365SOL    HW1 7439   0.754   6.582   0.735
 2365SOL    HW2 7440   0.612   6.655   0.703
 2366SOL     OW 7441   0.686   6.747   1.803
 2366SOL    HW1 7442   0.746   6.826   1.817
 2366SOL    HW2 7443   0.600   6.778   1.762
 2367SOL     OW 7444   0.335   7.021   1.061
 2367SOL    HW1 7445   0.257   6.990   1.008
 2367SOL    HW2 7446   0.393   7.079   1.004
 2368SOL     OW 7447   1.460   7.091   1.339
 2368SOL    HW1 7448   1.484   7.185   1.365
 2368SOL    HW2 7449   1.444   7.037   1.421
 2369SOL     OW 7450   0.438   5.978   1.499
 2369SOL    HW1 7451   0.520   5.922   1.508
 2369SOL    HW2 7452   0.357   5.920   1.503
 2370SOL     OW 7453   1.603   6.033   0.737
 2370SOL    HW1 7454   1.529   6.079   0.687
 2370SOL    HW2 7455   1.654   6.101   0.790
 2371SOL     OW 7456   0.231   7.299   0.483
 2371SOL    HW1 7457   0.265   7.376   0.537
 2371SOL    HW2 7458   0.275   7.299   0.393
 2372SOL     OW 7459   1.127   6.927   1.690
 2372SOL    HW1 7460   1.174   6.927   1.778
 2372SOL    HW2 7461   1.079   6.840   1.679
 2373SOL     OW 7462   0.230   7.020   0.538
 2373SOL    HW1 7463   0.204   7.116   0.538
 2373SOL    HW2 7464   0.159   6.966   0.583
 2374SOL     OW 7465   0.240   6.677   0.886
 2374SOL    HW1 7466   0.254   6.593   0.938
 2374SOL    HW2 7467   0.185   6.741   0.941
 2375SOL     OW 7468   0.620   7.372   1.439
 2375SOL    HW1 7469   0.528   7.355   1.474
 2375SOL    HW2 7470   0.648   7.464   1.465
 2376SOL     OW 7471   0.606   6.550   0.123
 2376SOL    HW1 7472   0.613   6.634   0.069
 2376SOL    HW2 7473   0.652   6.563   0.211
 2377SOL     OW 7474   1.594   5.700   1.480
 2377SOL    HW1 7475   1.576   5.767   1.408
 2377SOL    HW2 7476   1.591   5.746   1.569
 2378SOL     OW 7477   0.122   6.229   0.563
 2378SOL    HW1 7478   0.077   6.141   0.580
 2378SOL    HW2 7479   0.121   6.283   0.647
 2379SOL     OW 7480   1.842   7.353   0.359
 2379SOL    HW1 7481   1.896   7.324   0.439
 2379SOL    HW2 7482   1.872   7.443   0.330
 2380SOL     OW 7483   0.027   7.182   0.117
 2380SOL    HW1 7484   0.008   7.086   0.138
 2380SOL    HW2 7485  -0.006   7.240   0.192
 2381SOL     OW 7486   1.689   6.508   0.612
 2381SOL    HW1 7487   1.784   6.479   0.620
 2381SOL    HW2 7488   1.681   6.573   0.537
 2382SOL     OW 7489   1.641   6.694   0.432
 2382SOL    HW1 7490   1.727   6.696   0.380
 2382SOL    HW2 7491   1.655   6.741   0.520
 2383SOL     OW 7492   0.113   6.323   1.597
 2383SOL    HW1 7493   0.201   6.310   1.642
 2383SOL    HW2 7494   0.100   6.420   1.575
 2384SOL     OW 7495   0.613   6.951   0.726
 2384SOL    HW1 7496   0.564   6.864   0.735
 2384SOL    HW2 7497   0.590   6.994   0.639
 2385SOL     OW 7498   1.293   6.814   1.423
 2385SOL    HW1 7499   1.330   6.741   1.365
 2385SOL    HW2 7500   1.345   6.819   1.508
 2386SOL     OW 7501   0.809   5.590   0.502
 2386SOL    HW1 7502   0.849   5.681   0.493
 2386SOL    HW2 7503   0.709   5.598   0.508
 2387SOL     OW 7504   0.197   6.562   1.264
 2387SOL    HW1 7505   0.286   6.517   1.250
 2387SOL    HW2 7506   0.124   6.497   1.245
 2388SOL     OW 7507   1.525   6.585   0.190
 2388SOL    HW1 7508   1.462   6.509   0.203
 2388SOL    HW2 7509   1.573   6.603   0.276
 2389SOL     OW 7510   1.187   7.378   1.616
 2389SOL    HW1 7511   1.211   7.438   1.540
 2389SOL    HW2 7512   1.194   7.283   1.586
 2390SOL     OW 7513   0.317   5.837   1.801
 2390SOL    HW1 7514   0.388   5.908   1.807
 2390SOL    HW2 7515   0.229   5.876   1.829
 2391SOL     OW 7516   1.466   7.003   0.953
 2391SOL    HW1 7517   1.407   7.009   1.033
 2391SOL    HW2 7518   1.451   6.915   0.907
 2392SOL     OW 7519   1.667   7.300   0.572
 2392SOL    HW1 7520   1.626   7.277   0.484
 2392SOL    HW2 7521   1.649   7.226   0.637
 2393SOL     OW 7522   0.598   6.315   0.270
 2393SOL    HW1 7523   0.622   6.384   0.202
 2393SOL    HW2 7524   0.520   6.348   0.324
 2394SOL     OW 7525   1.281   5.931   0.944
 2394SOL    HW1 7526   1.195   5.881   0.931
 2394SOL    HW2 7527   1.343   5.877   1.000
 2395SOL     OW 7528   1.576   7.248   0.307
 2395SOL    HW1 7529   1.665   7.294   0.310
 2395SOL    HW2 7530   1.555   7.224   0.212
 2396SOL     OW 7531   0.807   6.191   1.465
 2396SOL    HW1 7532   0.760   6.188   1.554
 2396SOL    HW2 7533   0.756   6.136   1.399
 2397SOL     OW 7534   1.394   6.055   1.674
 2397SOL    HW1 7535   1.374   6.098   1.762
 2397SOL    HW2 7536   1.472   5.993   1.683
 2398SOL     OW 7537   0.973   6.476   1.572
 2398SOL    HW1 7538   1.019   6.392   1.543
 2398SOL    HW2 7539   0.917   6.510   1.497
 2399SOL     OW 7540   0.991   5.996   1.242
 2399SOL    HW1 7541   0.914   6.030   1.296
 2399SOL    HW2 7542   0.957   5.945   1.163
 2400SOL     OW 7543   1.041   6.287   0.429
 2400SOL    HW1 7544   1.067   6.283   0.525
 2400SOL    HW2 7545   0.956   6.236   0.415
 2401SOL     OW 7546   0.076   6.397   0.789
 2401SOL    HW1 7547   0.175   6.385   0.798
 2401SOL    HW2 7548   0.052   6.492   0.810
 2402SOL     OW 7549   0.130   7.407   1.571
 2402SOL    HW1 7550   0.120   7.392   1.670
 2402SOL    HW2 7551   0.044   7.443   1.535
 2403SOL     OW 7552   0.865   5.934   0.195
 2403SOL    HW1 7553   0.924   5.997   0.146
 2403SOL    HW2 7554   0.884   5.840   0.166
 2404SOL     OW 7555   1.719   6.171   1.831
 2404SOL    HW1 7556   1.693   6.260   1.795
 2404SOL    HW2 7557   1.717   6.103   1.758
 2405SOL     OW 7558   1.362   6.730   0.545
 2405SOL    HW1 7559   1.445   6.701   0.497
 2405SOL    HW2 7560   1.313   6.797   0.489
 2406SOL     OW 7561   0.550   5.782   0.885
 2406SOL    HW1 7562   0.545   5.777   0.985
 2406SOL    HW2 7563   0.552   5.878   0.856
 2407SOL     OW 7564   1.008   7.042   0.477
 2407SOL    HW1 7565   0.962   7.114   0.425
 2407SOL    HW2 7566   1.004   7.062   0.575
 2408SOL     OW 7567   0.351   7.387   0.853
 2408SOL    HW1 7568   0.401   7.301   0.859
 2408SOL    HW2 7569   0.416   7.464   0.850
 2409SOL     OW 7570   1.795   6.652   0.873
 2409SOL    HW1 7571   1.733   6.637   0.797
 2409SOL    HW2 7572   1.743   6.663   0.958
 2410SOL     OW 7573   1.227   7.136   1.506
 2410SOL    HW1 7574   1.233   7.059   1.570
 2410SOL    HW2 7575   1.175   7.110   1.426
 2411SOL     OW 7576   0.321   6.529   0.242
 2411SOL    HW1 7577   0.403   6.568   0.200
 2411SOL    HW2 7578   0.294   6.447   0.193
 2412SOL     OW 7579   1.458   6.321   0.728
 2412SOL    HW1 7580   1.453   6.256   0.803
 2412SOL    HW2 7581   1.538   6.380   0.741
 2413SOL     OW 7582   0.461   6.852   1.727
 2413SOL    HW1 7583   0.411   6.853   1.641
 2413SOL    HW2 7584   0.398   6.834   1.803
 2414SOL     OW 7585   1.111   7.362   0.237
 2414SOL    HW1 7586   1.051   7.300   0.287
 2414SOL    HW2 7587   1.142   7.318   0.152
 2415SOL     OW 7588   0.202   5.871   1.498
 2415SOL    HW1 7589   0.122   5.931   1.485
 2415SOL    HW2 7590   0.192   5.822   1.584
 2416SOL     OW 7591   1.632   6.963   0.081
 2416SOL    HW1 7592   1.600   7.057   0.071
 2416SOL    HW2 7593   1.556   6.900   0.069
 2417SOL     OW 7594   0.464   7.329   0.323
 2417SOL    HW1 7595   0.497   7.368   0.409
 2417SOL    HW2 7596   0.540   7.322   0.258
 2418SOL     OW 7597   1.400   5.693   0.426
 2418SOL    HW1 7598   1.376   5.656   0.336
 2418SOL    HW2 7599   1.499   5.709   0.430
 2419SOL     OW 7600   0.249   7.371   1.241
 2419SOL    HW1 7601   0.306   7.306   1.291
 2419SOL    HW2 7602   0.233   7.338   1.148
 2420SOL     OW 7603   0.940   7.284   0.904
 2420SOL    HW1 7604   1.020   7.227   0.925
 2420SOL    HW2 7605   0.891   7.244   0.827
 2421SOL     OW 7606   0.382   6.286   0.480
 2421SOL    HW1 7607   0.427   6.196   0.477
 2421SOL    HW2 7608   0.288   6.275   0.513
 2422SOL     OW 7609   1.547   5.808   1.729
 2422SOL    HW1 7610   1.542   5.845   1.821
 2422SOL    HW2 7611   1.475   5.739   1.717
 2423SOL     OW 7612   0.614   5.708   0.117
 2423SOL    HW1 7613   0.712   5.686   0.124
 2423SOL    HW2 7614   0.583   5.691   0.024
 2424SOL     OW 7615   0.781   5.850   1.749
 2424SOL    HW1 7616   0.848   5.789   1.792
 2424SOL    HW2 7617   0.708   5.869   1.814
 2425SOL     OW 7618   0.888   7.100   1.195
 2425SOL    HW1 7619   0.865   7.075   1.101
 2425SOL    HW2 7620   0.949   7.031   1.234
 2426SOL     OW 7621   1.351   6.176   1.433
 2426SOL    HW1 7622   1.379   6.133   1.518
 2426SOL    HW2 7623   1.376   6.272   1.434
 2427SOL     OW 7624   0.803   6.988   0.924
 2427SOL    HW1 7625   0.893   7.002   0.882
 2427SOL    HW2 7626   0.732   6.990   0.853
 2428SOL     OW 7627   0.922   6.089   0.899
 2428SOL    HW1 7628   0.897   6.080   0.803
 2428SOL    HW2 7629   0.970   6.007   0.930
 2429SOL     OW 7630   0.539   5.650   0.512
 2429SOL    HW1 7631   0.458   5.651   0.570
 2429SOL    HW2 7632   0.542   5.733   0.457
 2430SOL     OW 7633   1.434   6.774   0.041
 2430SOL    HW1 7634   1.466   6.698   0.098
 2430SOL    HW2 7635   1.342   6.801   0.071
 2431SOL     OW 7636   0.297   5.621   0.171
 2431SOL    HW1 7637   0.346   5.705   0.150
 2431SOL    HW2 7638   0.359   5.556   0.216
 2432SOL     OW 7639   0.935   5.822   0.480
 2432SOL    HW1 7640   0.887   5.863   0.402
 2432SOL    HW2 7641   1.034   5.820   0.461
 2433SOL     OW 7642   1.076   6.269   1.464
 2433SOL    HW1 7643   0.996   6.208   1.467
 2433SOL    HW2 7644   1.157   6.216   1.440
 2434SOL     OW 7645   1.227   7.156   0.793
 2434SOL    HW1 7646   1.248   7.230   0.728
 2434SOL    HW2 7647   1.295   7.156   0.866
 2435SOL     OW 7648   0.459   6.738   0.741
 2435SOL    HW1 7649   0.388   6.711   0.806
 2435SOL    HW2 7650   0.433   6.710   0.648
 2436SOL     OW 7651   1.271   7.383   0.591
 2436SOL    HW1 7652   1.315   7.447   0.527
 2436SOL    HW2 7653   1.221   7.435   0.661
 2437SOL     OW 7654   1.032   6.135   0.016
 2437SOL    HW1 7655   0.991   6.217  -0.023
 2437SOL    HW2 7656   1.096   6.161   0.089
 2438SOL     OW 7657   0.078   6.142   1.386
 2438SOL    HW1 7658   0.170   6.141   1.345
 2438SOL    HW2 7659   0.072   6.216   1.453
 2439SOL     OW 7660   0.561   5.808   1.147
 2439SOL    HW1 7661   0.599   5.724   1.184
 2439SOL    HW2 7662   0.473   5.827   1.191
 2440SOL     OW 7663   0.866   6.040   0.642
 2440SOL    HW1 7664   0.834   6.112   0.580
 2440SOL    HW2 7665   0.890   5.959   0.589
 2441SOL     OW 7666   1.017   5.625   0.753
 2441SOL    HW1 7667   0.945   5.630   0.684
 2441SOL    HW2 7668   0.993   5.556   0.822
 2442SOL     OW 7669   1.429   6.759   0.867
 2442SOL    HW1 7670   1.374   6.675   0.860
 2442SOL    HW2 7671   1.455   6.788   0.775
 2443SOL     OW 7672   1.466   6.176   0.992
 2443SOL    HW1 7673   1.436   6.081   0.999
 2443SOL    HW2 7674   1.539   6.192   1.058
 2444SOL     OW 7675   1.857   6.419   0.377
 2444SOL    HW1 7676   1.899   6.355   0.441
 2444SOL    HW2 7677   1.819   6.368   0.299
 2445SOL     OW 7678   0.488   6.971   0.174
 2445SOL    HW1 7679   0.401   6.956   0.221
 2445SOL    HW2 7680   0.471   6.997   0.079
 2446SOL     OW 7681   1.664   6.866   0.657
 2446SOL    HW1 7682   1.763   6.874   0.671
 2446SOL    HW2 7683   1.619   6.950   0.688
 2447SOL     OW 7684   1.390   6.161   0.078
 2447SOL    HW1 7685   1.336   6.140   0.159
 2447SOL    HW2 7686   1.481   6.120   0.087
 2448SOL     OW 7687   0.527   5.842   0.328
 2448SOL    HW1 7688   0.554   5.783   0.253
 2448SOL    HW2 7689   0.527   5.937   0.297
 2449SOL     OW 7690   1.754   6.809   1.588
 2449SOL    HW1 7691   1.845   6.770   1.575
 2449SOL    HW2 7692   1.762   6.905   1.612
 2450SOL     OW 7693   1.064   6.933   1.340
 2450SOL    HW1 7694   0.984   6.910   1.395
 2450SOL    HW2 7695   1.147   6.907   1.389
 2451SOL     OW 7696   1.592   7.215   1.625
 2451SOL    HW1 7697   1.619   7.249   1.535
 2451SOL    HW2 7698   1.671   7.177   1.671
 2452SOL     OW 7699   1.111   6.781   1.100
 2452SOL    HW1 7700   1.071   6.825   1.181
 2452SOL    HW2 7701   1.070   6.818   1.017
 2453SOL     OW 7702   1.638   6.685   1.079
 2453SOL    HW1 7703   1.643   6.766   1.138
 2453SOL    HW2 7704   1.552   6.687   1.028
 2454SOL     OW 7705   0.915   5.675   1.402
 2454SOL    HW1 7706   0.940   5.655   1.307
 2454SOL    HW2 7707   0.987   5.731   1.444
 2455SOL     OW 7708   0.980   6.702   1.719
 2455SOL    HW1 7709   0.881   6.708   1.729
 2455SOL    HW2 7710   1.003   6.622   1.663
 2456SOL     OW 7711   0.705   6.636   0.368
 2456SOL    HW1 7712   0.691   6.643   0.467
 2456SOL    HW2 7713   0.789   6.585   0.350
 2457SOL     OW 7714   0.410   6.399   1.251
 2457SOL    HW1 7715   0.496   6.411   1.301
 2457SOL    HW2 7716   0.368   6.312   1.278
 2458SOL     OW 7717   1.274   5.972   1.262
 2458SOL    HW1 7718   1.295   6.046   1.326
 2458SOL    HW2 7719   1.185   5.989   1.219
 2459SOL     OW 7720   0.064   7.150   1.331
 2459SOL    HW1 7721   0.018   7.232   1.297
 2459SOL    HW2 7722   0.162   7.169   1.340
 2460SOL     OW 7723   0.367   6.686   0.501
 2460SOL    HW1 7724   0.360   6.769   0.445
 2460SOL    HW2 7725   0.371   6.606   0.441
 2461SOL     OW 7726   0.566   6.123   0.865
 2461SOL    HW1 7727   0.578   6.189   0.791
 2461SOL    HW2 7728   0.612   6.157   0.948
 2462SOL     OW 7729   1.252   6.934   0.388
 2462SOL    HW1 7730   1.302   7.011   0.428
 2462SOL    HW2 7731   1.157   6.936   0.420
 2463SOL     OW 7732   1.272   7.031   1.142
 2463SOL    HW1 7733   1.319   7.044   1.229
 2463SOL    HW2 7734   1.206   6.957   1.151
 2464SOL     OW 7735   1.582   6.225   0.472
 2464SOL    HW1 7736   1.551   6.286   0.545
 2464SOL    HW2 7737   1.632   6.277   0.403
 2465SOL     OW 7738   0.354   7.096   1.329
 2465SOL    HW1 7739   0.333   7.052   1.242
 2465SOL    HW2 7740   0.451   7.122   1.332
 2466SOL     OW 7741   0.402   6.337   1.598
 2466SOL    HW1 7742   0.470   6.392   1.551
 2466SOL    HW2 7743   0.442   6.249   1.625
 2467SOL     OW 7744   1.587   6.365   1.670
 2467SOL    HW1 7745   1.495   6.403   1.665
 2467SOL    HW2 7746   1.647   6.412   1.605
 2468SOL     OW 7747   1.013   5.691   1.770
 2468SOL    HW1 7748   1.019   5.776   1.718
 2468SOL    HW2 7749   1.045   5.615   1.713
 2469SOL     OW 7750   0.504   5.636   1.740
 2469SOL    HW1 7751   0.462   5.579   1.670
 2469SOL    HW2 7752   0.438   5.705   1.772
 2470SOL     OW 7753   0.573   6.456   1.029
 2470SOL    HW1 7754   0.617   6.545   1.020
 2470SOL    HW2 7755   0.510   6.456   1.106
 2471SOL     OW 7756   1.360   6.448   1.045
 2471SOL    HW1 7757   1.285   6.448   0.979
 2471SOL    HW2 7758   1.397   6.356   1.054
 2472SOL     OW 7759   1.209   6.111   0.275
 2472SOL    HW1 7760   1.222   6.027   0.329
 2472SOL    HW2 7761   1.180   6.185   0.335
 2473SOL     OW 7762   0.307   5.799   1.231
 2473SOL    HW1 7763   0.284   5.836   1.321
 2473SOL    HW2 7764   0.277   5.704   1.225
 2474SOL     OW 7765   0.037   6.896   1.282
 2474SOL    HW1 7766   0.090   6.847   1.350
 2474SOL    HW2 7767   0.059   6.994   1.287
 2475SOL     OW 7768   0.732   6.220   1.064
 2475SOL    HW1 7769   0.791   6.194   0.988
 2475SOL    HW2 7770   0.704   6.316   1.053
 2476SOL     OW 7771   1.728   6.521   1.854
 2476SOL    HW1 7772   1.682   6.514   1.765
 2476SOL    HW2 7773   1.666   6.565   1.920
 2477SOL     OW 7774   0.307   5.649   0.618
 2477SOL    HW1 7775   0.296   5.743   0.651
 2477SOL    HW2 7776   0.302   5.586   0.695
 2478SOL     OW 7777   1.622   5.953   0.374
 2478SOL    HW1 7778   1.624   5.877   0.438
 2478SOL    HW2 7779   1.574   6.030   0.414
 2479SOL     OW 7780   1.023   6.352   0.966
 2479SOL    HW1 7781   1.038   6.373   1.062
 2479SOL    HW2 7782   0.993   6.257   0.957
 2480SOL     OW 7783   0.980   7.159   1.700
 2480SOL    HW1 7784   0.960   7.203   1.612
 2480SOL    HW2 7785   1.019   7.068   1.684
 2481SOL     OW 7786   1.859   7.104   1.605
 2481SOL    HW1 7787   1.873   7.131   1.510
 2481SOL    HW2 7788   1.942   7.126   1.658
 2482SOL     OW 7789   0.350   6.484   1.804
 2482SOL    HW1 7790   0.426   6.528   1.852
 2482SOL    HW2 7791   0.385   6.437   1.722
 2483SOL     OW 7792   1.540   5.860   0.125
 2483SOL    HW1 7793   1.479   5.785   0.148
 2483SOL    HW2 7794   1.562   5.912   0.208
 2484SOL     OW 7795   1.303   6.424   0.042
 2484SOL    HW1 7796   1.337   6.331   0.057
 2484SOL    HW2 7797   1.321   6.451  -0.053
 2485SOL     OW 7798   1.068   6.919   0.849
 2485SOL    HW1 7799   1.075   6.835   0.794
 2485SOL    HW2 7800   1.130   6.988   0.813
 2486SOL     OW 7801   0.319   6.396   0.949
 2486SOL    HW1 7802   0.412   6.432   0.954
 2486SOL    HW2 7803   0.313   6.311   1.001
 2487SOL     OW 7804   0.339   6.095   1.006
 2487SOL    HW1 7805   0.287   6.012   0.989
 2487SOL    HW2 7806   0.416   6.100   0.942
 2488SOL     OW 7807   1.138   5.966   1.678
 2488SOL    HW1 7808   1.093   6.029   1.742
 2488SOL    HW2 7809   1.231   5.997   1.661
 2489SOL     OW 7810   1.160   5.793   1.477
 2489SOL    HW1 7811   1.160   5.857   1.554
 2489SOL    HW2 7812   1.188   5.841   1.394
 2490SOL     OW 7813   0.008   6.912   0.200
 2490SOL    HW1 7814  -0.085   6.933   0.169
 2490SOL    HW2 7815   0.018   6.813   0.213
 2491SOL     OW 7816   0.088   7.387   0.927
 2491SOL    HW1 7817   0.046   7.301   0.900
 2491SOL    HW2 7818   0.182   7.390   0.893
 2492SOL     OW 7819   0.504   7.154   0.910
 2492SOL    HW1 7820   0.570   7.228   0.919
 2492SOL    HW2 7821   0.548   7.075   0.868
 2493SOL     OW 7822   1.002   6.382   1.238
 2493SOL    HW1 7823   1.043   6.350   1.324
 2493SOL    HW2 7824   0.906   6.355   1.235
 2494SOL     OW 7825   0.040   6.130   1.114
 2494SOL    HW1 7826   0.125   6.097   1.073
 2494SOL    HW2 7827   0.053   6.145   1.212
 2495SOL     OW 7828   0.189   6.106   1.722
 2495SOL    HW1 7829   0.248   6.066   1.652
 2495SOL    HW2 7830   0.131   6.177   1.681
 2496SOL     OW 7831   1.369   6.536   1.660
 2496SOL    HW1 7832   1.408   6.625   1.680
 2496SOL    HW2 7833   1.379   6.516   1.563
 2497SOL     OW 7834   0.815   6.158   0.325
 2497SOL    HW1 7835   0.822   6.069   0.279
 2497SOL    HW2 7836   0.721   6.192   0.317
 2498SOL     OW 7837   1.657   6.190   1.206
 2498SOL    HW1 7838   1.619   6.121   1.268
 2498SOL    HW2 7839   1.739   6.154   1.162
 2499SOL     OW 7840   0.252   7.150   1.744
 2499SOL    HW1 7841   0.222   7.207   1.820
 2499SOL    HW2 7842   0.245   7.053   1.770
 2500SOL     OW 7843   0.671   6.050   1.269
 2500SOL    HW1 7844   0.637   5.961   1.239
 2500SOL    HW2 7845   0.697   6.104   1.189
 2501SOL     OW 7846   0.930   7.264   1.465
 2501SOL    HW1 7847   0.906   7.246   1.370
 2501SOL    HW2 7848   0.960   7.358   1.475
 2502SOL     OW 7849   0.473   6.086   0.191
 2502SOL    HW1 7850   0.534   6.166   0.195
 2502SOL    HW2 7851   0.378   6.117   0.198
 2503SOL     OW 7852   0.159   6.723   1.466
 2503SOL    HW1 7853   0.181   6.662   1.542
 2503SOL    HW2 7854   0.169   6.674   1.380
 2504SOL     OW 7855   1.347   6.645   1.234
 2504SOL    HW1 7856   1.371   6.582   1.160
 2504SOL    HW2 7857   1.257   6.685   1.216
 2505SOL     OW 7858   1.302   6.441   0.309
 2505SOL    HW1 7859   1.216   6.410   0.351
 2505SOL    HW2 7860   1.298   6.427   0.210
 2506SOL     OW 7861   1.759   7.333   1.154
 2506SOL    HW1 7862   1.820   7.363   1.081
 2506SOL    HW2 7863   1.721   7.244   1.132
 2507SOL     OW 7864   1.252   7.317   1.128
 2507SOL    HW1 7865   1.336   7.322   1.074
 2507SOL    HW2 7866   1.229   7.221   1.146
 2508SOL     OW 7867   0.083   6.844   1.022
 2508SOL    HW1 7868   0.078   6.843   1.122
 2508SOL    HW2 7869   0.000   6.803   0.984
 2509SOL     OW 7870   0.688   7.248   1.716
 2509SOL    HW1 7871   0.632   7.329   1.725
 2509SOL    HW2 7872   0.740   7.252   1.630
 2510SOL     OW 7873   0.903   5.672   0.133
 2510SOL    HW1 7874   0.954   5.673   0.047
 2510SOL    HW2 7875   0.959   5.630   0.204
 2511SOL     OW 7876   1.726   5.721   0.523
 2511SOL    HW1 7877   1.799   5.704   0.456
 2511SOL    HW2 7878   1.695   5.634   0.561
 2512SOL     OW 7879   1.388   7.159   0.477
 2512SOL    HW1 7880   1.455   7.171   0.403
 2512SOL    HW2 7881   1.348   7.248   0.500
 2513SOL     OW 7882   0.130   7.380   1.851
 2513SOL    HW1 7883   0.089   7.306   1.904
 2513SOL    HW2 7884   0.194   7.431   1.909
 2514SOL     OW 7885   1.280   6.513   0.672
 2514SOL    HW1 7886   1.340   6.432   0.674
 2514SOL    HW2 7887   1.320   6.582   0.612
 2515SOL     OW 7888   0.830   6.859   1.422
 2515SOL    HW1 7889   0.825   6.892   1.517
 2515SOL    HW2 7890   0.744   6.878   1.376
 2516SOL     OW 7891   0.672   7.202   0.154
 2516SOL    HW1 7892   0.681   7.212   0.055
 2516SOL    HW2 7893   0.632   7.113   0.175
 2517SOL     OW 7894   1.650   7.306   1.394
 2517SOL    HW1 7895   1.703   7.316   1.310
 2517SOL    HW2 7896   1.623   7.396   1.428
 2518SOL     OW 7897   1.841   5.761   0.963
 2518SOL    HW1 7898   1.880   5.676   0.927
 2518SOL    HW2 7899   1.743   5.763   0.944
 2519SOL     OW 7900   0.263   5.912   0.720
 2519SOL    HW1 7901   0.184   5.963   0.686
 2519SOL    HW2 7902   0.254   5.897   0.818
 2520SOL     OW 7903   1.194   7.198   0.031
 2520SOL    HW1 7904   1.200   7.105   0.068
 2520SOL    HW2 7905   1.135   7.198  -0.049
 2521SOL     OW 7906   0.822   6.588   1.372
 2521SOL    HW1 7907   0.862   6.587   1.280
 2521SOL    HW2 7908   0.832   6.680   1.412
 2522SOL     OW 7909   0.916   6.496   0.291
 2522SOL    HW1 7910   0.979   6.534   0.223
 2522SOL    HW2 7911   0.956   6.413   0.330
 2523SOL     OW 7912   1.504   7.193   0.044
 2523SOL    HW1 7913   1.412   7.230   0.051
 2523SOL    HW2 7914   1.542   7.213  -0.046
 2524SOL     OW 7915   0.372   6.874   1.490
 2524SOL    HW1 7916   0.359   6.967   1.456
 2524SOL    HW2 7917   0.288   6.822   1.477
 2525SOL     OW 7918   1.614   6.878   1.289
 2525SOL    HW1 7919   1.674   6.881   1.369
 2525SOL    HW2 7920   1.539   6.942   1.302
 2526SOL     OW 7921   1.039   6.684   0.696
 2526SOL    HW1 7922   0.969   6.637   0.750
 2526SOL    HW2 7923   1.098   6.616   0.653
 2527SOL     OW 7924   1.014   5.822   0.971
 2527SOL    HW1 7925   1.006   5.786   0.878
 2527SOL    HW2 7926   1.012   5.746   1.036
 2528SOL     OW 7927   0.590   7.073   0.491
 2528SOL    HW1 7928   0.632   7.015   0.421
 2528SOL    HW2 7929   0.546   7.152   0.447
 2529SOL     OW 7930   1.709   5.971   1.381
 2529SOL    HW1 7931   1.782   6.040   1.385
 2529SOL    HW2 7932   1.737   5.896   1.322
 2530SOL     OW 7933   0.255   6.934   0.290
 2530SOL    HW1 7934   0.159   6.935   0.263
 2530SOL    HW2 7935   0.267   6.987   0.374
 2531SOL     OW 7936   0.105   6.599   1.726
 2531SOL    HW1 7937   0.028   6.566   1.780
 2531SOL    HW2 7938   0.190   6.569   1.768
 2532SOL     OW 7939   0.672   5.789   1.489
 2532SOL    HW1 7940   0.762   5.773   1.449
 2532SOL    HW2 7941   0.680   5.794   1.588
 2533SOL     OW 7942   0.075   5.931   0.033
 2533SOL    HW1 7943  -0.017   5.903   0.004
 2533SOL    HW2 7944   0.106   6.008  -0.023
 2534SOL     OW 7945   1.440   6.442   1.398
 2534SOL    HW1 7946   1.383   6.494   1.335
 2534SOL    HW2 7947   1.536   6.454   1.374
 2535SOL     OW 7948   0.072   5.752   0.318
 2535SOL    HW1 7949   0.055   5.835   0.264
 2535SOL    HW2 7950   0.162   5.715   0.296
 2536SOL     OW 7951   1.183   6.921   0.119
 2536SOL    HW1 7952   1.084   6.910   0.121
 2536SOL    HW2 7953   1.217   6.936   0.212
 2537SOL     OW 7954   0.613   6.428   1.431
 2537SOL    HW1 7955   0.669   6.509   1.414
 2537SOL    HW2 7956   0.672   6.348   1.434
 2538SOL     OW 7957   1.493   7.353   0.959
 2538SOL    HW1 7958   1.526   7.417   0.890
 2538SOL    HW2 7959   1.559   7.347   1.034
 2539SOL     OW 7960   0.716   6.151   1.708
 2539SOL    HW1 7961   0.735   6.216   1.782
 2539SOL    HW2 7962   0.776   6.071   1.717
 2540SOL     OW 7963   1.450   6.806   1.633
 2540SOL    HW1 7964   1.441   6.796   1.732
 2540SOL    HW2 7965   1.546   6.799   1.607
 2541SOL     OW 7966   0.390   7.327   1.560
 2541SOL    HW1 7967   0.299   7.368   1.558
 2541SOL    HW2 7968   0.383   7.233   1.592
 2542SOL     OW 7969   1.674   6.469   1.254
 2542SOL    HW1 7970   1.647   6.380   1.217
 2542SOL    HW2 7971   1.675   6.537   1.181
 2543SOL     OW 7972   1.225   5.911   0.449
 2543SOL    HW1 7973   1.290   5.837   0.438
 2543SOL    HW2 7974   1.245   5.961   0.533
 2544SOL     OW 7975   0.594   6.331   0.652
 2544SOL    HW1 7976   0.644   6.416   0.633
 2544SOL    HW2 7977   0.506   6.333   0.604
 2545SOL     OW 7978   1.777   5.928   1.642
 2545SOL    HW1 7979   1.760   5.959   1.548
 2545SOL    HW2 7980   1.693   5.891   1.680
 2546SOL     OW 7981   1.730   6.520   1.517
 2546SOL    HW1 7982   1.768   6.611   1.532
 2546SOL    HW2 7983   1.722   6.503   1.418
 2547SOL     OW 7984   0.859   6.960   0.016
 2547SOL    HW1 7985   0.813   6.975   0.104
 2547SOL    HW2 7986   0.903   7.045  -0.014
 2548SOL     OW 7987   0.661   7.376   0.953
 2548SOL    HW1 7988   0.615   7.464   0.940
 2548SOL    HW2 7989   0.760   7.388   0.946
 2549SOL     OW 7990   0.859   6.542   0.861
 2549SOL    HW1 7991   0.913   6.473   0.909
 2549SOL    HW2 7992   0.827   6.611   0.927
 2550SOL     OW 7993   1.083   6.570   0.087
 2550SOL    HW1 7994   1.060   6.623   0.005
 2550SOL    HW2 7995   1.164   6.514   0.068
 2551SOL     OW 7996   1.861   7.155   0.851
 2551SOL    HW1 7997   1.790   7.143   0.781
 2551SOL    HW2 7998   1.862   7.076   0.911
 2552SOL     OW 7999   0.221   6.900   1.844
 2552SOL    HW1 8000   0.156   6.827   1.823
 2552SOL    HW2 8001   0.225   6.914   1.942
 2553SOL     OW 8002   0.079   6.826   0.653
 2553SOL    HW1 8003   0.078   6.779   0.741
 2553SOL    HW2 8004   0.161   6.798   0.602
 2554SOL     OW 8005   0.672   6.977   1.624
 2554SOL    HW1 8006   0.594   6.927   1.662
 2554SOL    HW2 8007   0.669   7.072   1.655
 2555SOL     OW 8008   1.824   5.778   1.227
 2555SOL    HW1 8009   1.820   5.688   1.271
 2555SOL    HW2 8010   1.827   5.767   1.128
 2556SOL     OW 8011   0.428   6.010   0.520
 2556SOL    HW1 8012   0.458   5.938   0.458
 2556SOL    HW2 8013   0.389   5.970   0.603
 2557SOL     OW 8014   1.705   7.073   1.104
 2557SOL    HW1 8015   1.612   7.048   1.077
 2557SOL    HW2 8016   1.731   7.023   1.186
 2558SOL     OW 8017   0.317   6.133   1.280
 2558SOL    HW1 8018   0.355   6.074   1.352
 2558SOL    HW2 8019   0.357   6.107   1.192
 2559SOL     OW 8020   0.812   7.172   0.687
 2559SOL    HW1 8021   0.844   7.182   0.593
 2559SOL    HW2 8022   0.733   7.110   0.689
 2560SOL     OW 8023   1.424   5.800   1.112
 2560SOL    HW1 8024   1.476   5.735   1.167
 2560SOL    HW2 8025   1.375   5.863   1.173
 2561SOL     OW 8026   1.001   5.620   1.154
 2561SOL    HW1 8027   0.938   5.548   1.123
 2561SOL    HW2 8028   1.094   5.584   1.154
 2562SOL     OW 8029   0.770   6.916   0.301
 2562SOL    HW1 8030   0.724   6.829   0.318
 2562SOL    HW2 8031   0.861   6.913   0.342
 2563SOL     OW 8032   0.618   7.153   1.284
 2563SOL    HW1 8033   0.613   7.235   1.341
 2563SOL    HW2 8034   0.707   7.150   1.239
 2564SOL     OW 8035   1.352   5.638   0.168
 2564SOL    HW1 8036   1.387   5.597   0.084
 2564SOL    HW2 8037   1.262   5.600   0.188
 2565SOL     OW 8038   1.300   6.039   0.691
 2565SOL    HW1 8039   1.241   6.119   0.695
 2565SOL    HW2 8040   1.315   6.004   0.784
 2566SOL     OW 8041   1.593   5.807   0.882
 2566SOL    HW1 8042   1.509   5.806   0.936
 2566SOL    HW2 8043   1.595   5.890   0.826
 2567SOL     OW 8044   0.039   6.663   0.300
 2567SOL    HW1 8045   0.138   6.652   0.291
 2567SOL    HW2 8046  -0.001   6.577   0.332
 2568SOL     OW 8047   0.875   7.232   0.337
 2568SOL    HW1 8048   0.798   7.197   0.283
 2568SOL    HW2 8049   0.843   7.303   0.399
 2569SOL     OW 8050   0.230   6.214   1.975
 2569SOL    HW1 8051   0.137   6.212   2.012
 2569SOL    HW2 8052   0.231   6.175   1.883
 2570SOL     OW 8053   0.225   5.861   2.858
 2570SOL    HW1 8054   0.260   5.844   2.950
 2570SOL    HW2 8055   0.137   5.816   2.846
 2571SOL     OW 8056   0.019   5.954   2.509
 2571SOL    HW1 8057  -0.063   5.997   2.548
 2571SOL    HW2 8058  -0.009   5.881   2.446
 2572SOL     OW 8059   0.569   6.861   3.027
 2572SOL    HW1 8060   0.476   6.854   2.990
 2572SOL    HW2 8061   0.580   6.950   3.071
 2573SOL     OW 8062   1.555   7.097   2.565
 2573SOL    HW1 8063   1.498   7.081   2.646
 2573SOL    HW2 8064   1.496   7.107   2.485
 2574SOL     OW 8065   1.135   6.289   2.579
 2574SOL    HW1 8066   1.192   6.367   2.554
 2574SOL    HW2 8067   1.075   6.315   2.655
 2575SOL     OW 8068   1.755   6.193   2.093
 2575SOL    HW1 8069   1.743   6.180   1.994
 2575SOL    HW2 8070   1.725   6.112   2.142
 2576SOL     OW 8071   0.768   6.730   2.885
 2576SOL    HW1 8072   0.690   6.747   2.945
 2576SOL    HW2 8073   0.802   6.817   2.849
 2577SOL     OW 8074   0.850   6.384   3.685
 2577SOL    HW1 8075   0.846   6.460   3.750
 2577SOL    HW2 8076   0.872   6.420   3.594
 2578SOL     OW 8077   0.685   6.598   2.527
 2578SOL    HW1 8078   0.754   6.582   2.597
 2578SOL    HW2 8079   0.612   6.655   2.565
 2579SOL     OW 8080   0.686   6.747   3.665
 2579SOL    HW1 8081   0.746   6.826   3.679
 2579SOL    HW2 8082   0.600   6.778   3.624
 2580SOL     OW 8083   0.335   7.021   2.923
 2580SOL    HW1 8084   0.257   6.990   2.870
 2580SOL    HW2 8085   0.393   7.079   2.866
 2581SOL     OW 8086   1.460   7.091   3.201
 2581SOL    HW1 8087   1.484   7.185   3.227
 2581SOL    HW2 8088   1.444   7.037   3.283
 2582SOL     OW 8089   0.438   5.978   3.361
 2582SOL    HW1 8090   0.520   5.922   3.370
 2582SOL    HW2 8091   0.357   5.920   3.365
 2583SOL     OW 8092   1.603   6.033   2.599
 2583SOL    HW1 8093   1.529   6.079   2.549
 2583SOL    HW2 8094   1.654   6.101   2.652
 2584SOL     OW 8095   0.231   7.299   2.345
 2584SOL    HW1 8096   0.265   7.376   2.399
 2584SOL    HW2 8097   0.275   7.299   2.255
 2585SOL     OW 8098   1.127   6.927   3.552
 2585SOL    HW1 8099   1.174   6.927   3.640
 2585SOL    HW2 8100   1.079   6.840   3.541
 2586SOL     OW 8101   0.230   7.020   2.400
 2586SOL    HW1 8102   0.204   7.116   2.400
 2586SOL    HW2 8103   0.159   6.966   2.445
 2587SOL     OW 8104   0.240   6.677   2.748
 2587SOL    HW1 8105   0.254   6.593   2.800
 2587SOL    HW2 8106   0.185   6.741   2.803
 2588SOL     OW 8107   0.620   7.372   3.301
 2588SOL    HW1 8108   0.528   7.355   3.336
 2588SOL    HW2 8109   0.648   7.464   3.327
 2589SOL     OW 8110   0.606   6.550   1.985
 2589SOL    HW1 8111   0.613   6.634   1.931
 2589SOL    HW2 8112   0.652   6.563   2.073
 2590SOL     OW 8113   1.594   5.700   3.342
 2590SOL    HW1 8114   1.576   5.767   3.270
 2590SOL    HW2 8115   1.591   5.746   3.431
 2591SOL     OW 8116   0.122   6.229   2.425
 2591SOL    HW1 8117   0.077   6.141   2.442
 2591SOL    HW2 8118   0.121   6.283   2.509
 2592SOL     OW 8119   1.842   7.353   2.221
 2592SOL    HW1 8120   1.896   7.324   2.301
 2592SOL    HW2 8121   1.872   7.443   2.192
 2593SOL     OW 8122   0.027   7.182   1.979
 2593SOL    HW1 8123   0.008   7.086   2.000
 2593SOL    HW2 8124  -0.006   7.240   2.054
 2594SOL     OW 8125   1.689   6.508   2.474
 2594SOL    HW1 8126   1.784   6.479   2.482
 2594SOL    HW2 8127   1.681   6.573   2.399
 2595SOL     OW 8128   1.641   6.694   2.294
 2595SOL    HW1 8129   1.727   6.696   2.242
 2595SOL    HW2 8130   1.655   6.741   2.382
 2596SOL     OW 8131   0.113   6.323   3.459
 2596SOL    HW1 8132   0.201   6.310   3.504
 2596SOL    HW2 8133   0.100   6.420   3.437
 2597SOL     OW 8134   0.613   6.951   2.588
 2597SOL    HW1 8135   0.564   6.864   2.597
 2597SOL    HW2 8136   0.590   6.994   2.501
 2598SOL     OW 8137   1.293   6.814   3.285
 2598SOL    HW1 8138   1.330   6.741   3.227
 2598SOL    HW2 8139   1.345   6.819   3.370
 2599SOL     OW 8140   0.809   5.590   2.364
 2599SOL    HW1 8141   0.849   5.681   2.355
 2599SOL    HW2 8142   0.709   5.598   2.370
 2600SOL     OW 8143   0.197   6.562   3.126
 2600SOL    HW1 8144   0.286   6.517   3.112
 2600SOL    HW2 8145   0.124   6.497   3.107
 2601SOL     OW 8146   1.525   6.585   2.052
 2601SOL    HW1 8147   1.462   6.509   2.065
 2601SOL    HW2 8148   1.573   6.603   2.138
 2602SOL     OW 8149   1.187   7.378   3.478
 2602SOL    HW1 8150   1.211   7.438   3.402
 2602SOL    HW2 8151   1.194   7.283   3.448
 2603SOL     OW 8152   0.317   5.837   3.663
 2603SOL    HW1 8153   0.388   5.908   3.669
 2603SOL    HW2 8154   0.229   5.876   3.691
 2604SOL     OW 8155   1.466   7.003   2.815
 2604SOL    HW1 8156   1.407   7.009   2.895
 2604SOL    HW2 8157   1.451   6.915   2.769
 2605SOL     OW 8158   1.667   7.300   2.434
 2605SOL    HW1 8159   1.626   7.277   2.346
 2605SOL    HW2 8160   1.649   7.226   2.499
 2606SOL     OW 8161   0.598   6.315   2.132
 2606SOL    HW1 8162   0.622   6.384   2.064
 2606SOL    HW2 8163   0.520   6.348   2.186
 2607SOL     OW 8164   1.281   5.931   2.806
 2607SOL    HW1 8165   1.195   5.881   2.793
 2607SOL    HW2 8166   1.343   5.877   2.862
 2608SOL     OW 8167   1.576   7.248   2.169
 2608SOL    HW1 8168   1.665   7.294   2.172
 2608SOL    HW2 8169   1.555   7.224   2.074
 2609SOL     OW 8170   0.807   6.191   3.327
 2609SOL    HW1 8171   0.760   6.188   3.416
 2609SOL    HW2 8172   0.756   6.136   3.261
 2610SOL     OW 8173   1.394   6.055   3.536
 2610SOL    HW1 8174   1.374   6.098   3.624
 2610SOL    HW2 8175   1.472   5.993   3.545
 2611SOL     OW 8176   0.973   6.476   3.434
 2611SOL    HW1 8177   1.019   6.392   3.405
 2611SOL    HW2 8178   0.917   6.510   3.359
 2612SOL     OW 8179   0.991   5.996   3.104
 2612SOL    HW1 8180   0.914   6.030   3.158
 2612SOL    HW2 8181   0.957   5.945   3.025
 2613SOL     OW 8182   1.041   6.287   2.291
 2613SOL    HW1 8183   1.067   6.283   2.387
 2613SOL    HW2 8184   0.956   6.236   2.277
 2614SOL     OW 8185   0.076   6.397   2.651
 2614SOL    HW1 8186   0.175   6.385   2.660
 2614SOL    HW2 8187   0.052   6.492   2.672
 2615SOL     OW 8188   0.130   7.407   3.433
 2615SOL    HW1 8189   0.120   7.392   3.532
 2615SOL    HW2 8190   0.044   7.443   3.397
 2616SOL     OW 8191   0.865   5.934   2.057
 2616SOL    HW1 8192   0.924   5.997   2.008
 2616SOL    HW2 8193   0.884   5.840   2.028
 2617SOL     OW 8194   1.719   6.171   3.693
 2617SOL    HW1 8195   1.693   6.260   3.657
 2617SOL    HW2 8196   1.717   6.103   3.620
 2618SOL     OW 8197   1.362   6.730   2.407
 2618SOL    HW1 8198   1.445   6.701   2.359
 2618SOL    HW2 8199   1.313   6.797   2.351
 2619SOL     OW 8200   0.550   5.782   2.747
 2619SOL    HW1 8201   0.545   5.777   2.847
 2619SOL    HW2 8202   0.552   5.878   2.718
 2620SOL     OW 8203   1.008   7.042   2.339
 2620SOL    HW1 8204   0.962   7.114   2.287
 2620SOL    HW2 8205   1.004   7.062   2.437
 2621SOL     OW 8206   0.351   7.387   2.715
 2621SOL    HW1 8207   0.401   7.301   2.721
 2621SOL    HW2 8208   0.416   7.464   2.712
 2622SOL     OW 8209   1.795   6.652   2.735
 2622SOL    HW1 8210   1.733   6.637   2.659
 2622SOL    HW2 8211   1.743   6.663   2.820
 2623SOL     OW 8212   1.227   7.136   3.368
 2623SOL    HW1 8213   1.233   7.059   3.432
 2623SOL    HW2 8214   1.175   7.110   3.288
 2624SOL     OW 8215   0.321   6.529   2.104
 2624SOL    HW1 8216   0.403   6.568   2.062
 2624SOL    HW2 8217   0.294   6.447   2.055
 2625SOL     OW 8218   1.458   6.321   2.590
 2625SOL    HW1 8219   1.453   6.256   2.665
 2625SOL    HW2 8220   1.538   6.380   2.603
 2626SOL     OW 8221   0.461   6.852   3.589
 2626SOL    HW1 8222   0.411   6.853   3.503
 2626SOL    HW2 8223   0.398   6.834   3.665
 2627SOL     OW 8224   1.111   7.362   2.099
 2627SOL    HW1 8225   1.051   7.300   2.149
 2627SOL    HW2 8226   1.142   7.318   2.014
 2628SOL     OW 8227   0.202   5.871   3.360
 2628SOL    HW1 8228   0.122   5.931   3.347
 2628SOL    HW2 8229   0.192   5.822   3.446
 2629SOL     OW 8230   1.632   6.963   1.943
 2629SOL    HW1 8231   1.600   7.057   1.933
 2629SOL    HW2 8232   1.556   6.900   1.931
 2630SOL     OW 8233   0.464   7.329   2.185
 2630SOL    HW1 8234   0.497   7.368   2.271
 2630SOL    HW2 8235   0.540   7.322   2.120
 2631SOL     OW 8236   1.400   5.693   2.288
 2631SOL    HW1 8237   1.376   5.656   2.198
 2631SOL    HW2 8238   1.499   5.709   2.292
 2632SOL     OW 8239   0.249   7.371   3.103
 2632SOL    HW1 8240   0.306   7.306   3.153
 2632SOL    HW2 8241   0.233   7.338   3.010
 2633SOL     OW 8242   0.940   7.284   2.766
 2633SOL    HW1 8243   1.020   7.227   2.787
 2633SOL    HW2 8244   0.891   7.244   2.689
 2634SOL     OW 8245   0.382   6.286   2.342
 2634SOL    HW1 8246   0.427   6.196   2.339
 2634SOL    HW2 8247   0.288   6.275   2.375
 2635SOL     OW 8248   1.547   5.808   3.591
 2635SOL    HW1 8249   1.542   5.845   3.683
 2635SOL    HW2 8250   1.475   5.739   3.579
 2636SOL     OW 8251   0.614   5.708   1.979
 2636SOL    HW1 8252   0.712   5.686   1.986
 2636SOL    HW2 8253   0.583   5.691   1.886
 2637SOL     OW 8254   0.781   5.850   3.611
 2637SOL    HW1 8255   0.848   5.789   3.654
 2637SOL    HW2 8256   0.708   5.869   3.676
 2638SOL     OW 8257   0.888   7.100   3.057
 2638SOL    HW1 8258   0.865   7.075   2.963
 2638SOL    HW2 8259   0.949   7.031   3.096
 2639SOL     OW 8260   1.351   6.176   3.295
 2639SOL    HW1 8261   1.379   6.133   3.380
 2639SOL    HW2 8262   1.376   6.272   3.296
 2640SOL     OW 8263   0.803   6.988   2.786
 2640SOL    HW1 8264   0.893   7.002   2.744
 2640SOL    HW2 8265   0.732   6.990   2.715
 2641SOL     OW 8266   0.922   6.089   2.761
 2641SOL    HW1 8267   0.897   6.080   2.665
 2641SOL    HW2 8268   0.970   6.007   2.792
 2642SOL     OW 8269   0.539   5.650   2.374
 2642SOL    HW1 8270   0.458   5.651   2.432
 2642SOL    HW2 8271   0.542   5.733   2.319
 2643SOL     OW 8272   1.434   6.774   1.903
 2643SOL    HW1 8273   1.466   6.698   1.960
 2643SOL    HW2 8274   1.342   6.801   1.933
 2644SOL     OW 8275   0.297   5.621   2.033
 2644SOL    HW1 8276   0.346   5.705   2.012
 2644SOL    HW2 8277   0.359   5.556   2.078
 2645SOL     OW 8278   0.935   5.822   2.342
 2645SOL    HW1 8279   0.887   5.863   2.264
 2645SOL    HW2 8280   1.034   5.820   2.323
 2646SOL     OW 8281   1.076   6.269   3.326
 2646SOL    HW1 8282   0.996   6.208   3.329
 2646SOL    HW2 8283   1.157   6.216   3.302
 2647SOL     OW 8284   1.227   7.156   2.655
 2647SOL    HW1 8285   1.248   7.230   2.590
 2647SOL    HW2 8286   1.295   7.156   2.728
 2648SOL     OW 8287   0.459   6.738   2.603
 2648SOL    HW1 8288   0.388   6.711   2.668
 2648SOL    HW2 8289   0.433   6.710   2.510
 2649SOL     OW 8290   1.271   7.383   2.453
 2649SOL    HW1 8291   1.315   7.447   2.389
 2649SOL    HW2 8292   1.221   7.435   2.523
 2650SOL     OW 8293   1.032   6.135   1.878
 2650SOL    HW1 8294   0.991   6.217   1.839
 2650SOL    HW2 8295   1.096   6.161   1.951
 2651SOL     OW 8296   0.078   6.142   3.248
 2651SOL    HW1 8297   0.170   6.141   3.207
 2651SOL    HW2 8298   0.072   6.216   3.315
 2652SOL     OW 8299   0.561   5.808   3.009
 2652SOL    HW1 8300   0.599   5.724   3.046
 2652SOL    HW2 8301   0.473   5.827   3.053
 2653SOL     OW 8302   0.866   6.040   2.504
 2653SOL    HW1 8303   0.834   6.112   2.442
 2653SOL    HW2 8304   0.890   5.959   2.451
 2654SOL     OW 8305   1.017   5.625   2.615
 2654SOL    HW1 8306   0.945   5.630   2.546
 2654SOL    HW2 8307   0.993   5.556   2.684
 2655SOL     OW 8308   1.429   6.759   2.729
 2655SOL    HW1 8309   1.374   6.675   2.722
 2655SOL    HW2 8310   1.455   6.788   2.637
 2656SOL     OW 8311   1.466   6.176   2.854
 2656SOL    HW1 8312   1.436   6.081   2.861
 2656SOL    HW2 8313   1.539   6.192   2.920
 2657SOL     OW 8314   1.857   6.419   2.239
 2657SOL    HW1 8315   1.899   6.355   2.303
 2657SOL    HW2 8316   1.819   6.368   2.161
 2658SOL     OW 8317   0.488   6.971   2.036
 2658SOL    HW1 8318   0.401   6.956   2.083
 2658SOL    HW2 8319   0.471   6.997   1.941
 2659SOL     OW 8320   1.664   6.866   2.519
 2659SOL    HW1 8321   1.763   6.874   2.533
 2659SOL    HW2 8322   1.619   6.950   2.550
 2660SOL     OW 8323   1.390   6.161   1.940
 2660SOL    HW1 8324   1.336   6.140   2.021
 2660SOL    HW2 8325   1.481   6.120   1.949
 2661SOL     OW 8326   0.527   5.842   2.190
 2661SOL    HW1 8327   0.554   5.783   2.115
 2661SOL    HW2 8328   0.527   5.937   2.159
 2662SOL     OW 8329   1.754   6.809   3.450
 2662SOL    HW1 8330   1.845   6.770   3.437
 2662SOL    HW2 8331   1.762   6.905   3.474
 2663SOL     OW 8332   1.064   6.933   3.202
 2663SOL    HW1 8333   0.984   6.910   3.257
 2663SOL    HW2 8334   1.147   6.907   3.251
 2664SOL     OW 8335   1.592   7.215   3.487
 2664SOL    HW1 8336   1.619   7.249   3.397
 2664SOL    HW2 8337   1.671   7.177   3.533
 2665SOL     OW 8338   1.111   6.781   2.962
 2665SOL    HW1 8339   1.071   6.825   3.043
 2665SOL    HW2 8340   1.070   6.818   2.879
 2666SOL     OW 8341   1.638   6.685   2.941
 2666SOL    HW1 8342   1.643   6.766   3.000
 2666SOL    HW2 8343   1.552   6.687   2.890
 2667SOL     OW 8344   0.915   5.675   3.264
 2667SOL    HW1 8345   0.940   5.655   3.169
 2667SOL    HW2 8346   0.987   5.731   3.306
 2668SOL     OW 8347   0.980   6.702   3.581
 2668SOL    HW1 8348   0.881   6.708   3.591
 2668SOL    HW2 8349   1.003   6.622   3.525
 2669SOL     OW 8350   0.705   6.636   2.230
 2669SOL    HW1 8351   0.691   6.643   2.329
 2669SOL    HW2 8352   0.789   6.585   2.212
 2670SOL     OW 8353   0.410   6.399   3.113
 2670SOL    HW1 8354   0.496   6.411   3.163
 2670SOL    HW2 8355   0.368   6.312   3.140
 2671SOL     OW 8356   1.274   5.972   3.124
 2671SOL    HW1 8357   1.295   6.046   3.188
 2671SOL    HW2 8358   1.185   5.989   3.081
 2672SOL     OW 8359   0.064   7.150   3.193
 2672SOL    HW1 8360   0.018   7.232   3.159
 2672SOL    HW2 8361   0.162   7.169   3.202
 2673SOL     OW 8362   0.367   6.686   2.363
 2673SOL    HW1 8363   0.360   6.769   2.307
 2673SOL    HW2 8364   0.371   6.606   2.303
 2674SOL     OW 8365   0.566   6.123   2.727
 2674SOL    HW1 8366   0.578   6.189   2.653
 2674SOL    HW2 8367   0.612   6.157   2.810
 2675SOL     OW 8368   1.252   6.934   2.250
 2675SOL    HW1 8369   1.302   7.011   2.290
 2675SOL    HW2 8370   1.157   6.936   2.282
 2676SOL     OW 8371   1.272   7.031   3.004
 2676SOL    HW1 8372   1.319   7.044   3.091
 2676SOL    HW2 8373   1.206   6.957   3.013
 2677SOL     OW 8374   1.582   6.225   2.334
 2677SOL    HW1 8375   1.551   6.286   2.407
 2677SOL    HW2 8376   1.632   6.277   2.265
 2678SOL     OW 8377   0.354   7.096   3.191
 2678SOL    HW1 8378   0.333   7.052   3.104
 2678SOL    HW2 8379   0.451   7.122   3.194
 2679SOL     OW 8380   0.402   6.337   3.460
 2679SOL    HW1 8381   0.470   6.392   3.413
 2679SOL    HW2 8382   0.442   6.249   3.487
 2680SOL     OW 8383   1.587   6.365   3.532
 2680SOL    HW1 8384   1.495   6.403   3.527
 2680SOL    HW2 8385   1.647   6.412   3.467
 2681SOL     OW 8386   1.013   5.691   3.632
 2681SOL    HW1 8387   1.019   5.776   3.580
 2681SOL    HW2 8388   1.045   5.615   3.575
 2682SOL     OW 8389   0.504   5.636   3.602
 2682SOL    HW1 8390   0.462   5.579   3.532
 2682SOL    HW2 8391   0.438   5.705   3.634
 2683SOL     OW 8392   0.573   6.456   2.891
 2683SOL    HW1 8393   0.617   6.545   2.882
 2683SOL    HW2 8394   0.510   6.456   2.968
 2684SOL     OW 8395   1.360   6.448   2.907
 2684SOL    HW1 8396   1.285   6.448   2.841
 2684SOL    HW2 8397   1.397   6.356   2.916
 2685SOL     OW 8398   1.209   6.111   2.137
 2685SOL    HW1 8399   1.222   6.027   2.191
 2685SOL    HW2 8400   1.180   6.185   2.197
 2686SOL     OW 8401   0.307   5.799   3.093
 2686SOL    HW1 8402   0.284   5.836   3.183
 2686SOL    HW2 8403   0.277   5.704   3.087
 2687SOL     OW 8404   0.037   6.896   3.144
 2687SOL    HW1 8405   0.090   6.847   3.212
 2687SOL    HW2 8406   0.059   6.994   3.149
 2688SOL     OW 8407   0.732   6.220   2.926
 2688SOL    HW1 8408   0.791   6.194   2.850
 2688SOL    HW2 8409   0.704   6.316   2.915
 2689SOL     OW 8410   1.728   6.521   3.716
 2689SOL    HW1 8411   1.682   6.514   3.627
 2689SOL    HW2 8412   1.666   6.565   3.782
 2690SOL     OW 8413   0.307   5.649   2.480
 2690SOL    HW1 8414   0.296   5.743   2.513
 2690SOL    HW2 8415   0.302   5.586   2.557
 2691SOL     OW 8416   1.622   5.953   2.236
 2691SOL    HW1 8417   1.624   5.877   2.300
 2691SOL    HW2 8418   1.574   6.030   2.276
 2692SOL     OW 8419   1.023   6.352   2.828
 2692SOL    HW1 8420   1.038   6.373   2.924
 2692SOL    HW2 8421   0.993   6.257   2.819
 2693SOL     OW 8422   0.980   7.159   3.562
 2693SOL    HW1 8423   0.960   7.203   3.474
 2693SOL    HW2 8424   1.019   7.068   3.546
 2694SOL     OW 8425   1.859   7.104   3.467
 2694SOL    HW1 8426   1.873   7.131   3.372
 2694SOL    HW2 8427   1.942   7.126   3.520
 2695SOL     OW 8428   0.350   6.484   3.666
 2695SOL    HW1 8429   0.426   6.528   3.714
 2695SOL    HW2 8430   0.385   6.437   3.584
 2696SOL     OW 8431   1.540   5.860   1.987
 2696SOL    HW1 8432   1.479   5.785   2.010
 2696SOL    HW2 8433   1.562   5.912   2.070
 2697SOL     OW 8434   1.303   6.424   1.904
 2697SOL    HW1 8435   1.337   6.331   1.919
 2697SOL    HW2 8436   1.321   6.451   1.809
 2698SOL     OW 8437   1.068   6.919   2.711
 2698SOL    HW1 8438   1.075   6.835   2.656
 2698SOL    HW2 8439   1.130   6.988   2.675
 2699SOL     OW 8440   0.319   6.396   2.811
 2699SOL    HW1 8441   0.412   6.432   2.816
 2699SOL    HW2 8442   0.313   6.311   2.863
 2700SOL     OW 8443   0.339   6.095   2.868
 2700SOL    HW1 8444   0.287   6.012   2.851
 2700SOL    HW2 8445   0.416   6.100   2.804
 2701SOL     OW 8446   1.138   5.966   3.540
 2701SOL    HW1 8447   1.093   6.029   3.604
 2701SOL    HW2 8448   1.231   5.997   3.523
 2702SOL     OW 8449   1.160   5.793   3.339
 2702SOL    HW1 8450   1.160   5.857   3.416
 2702SOL    HW2 8451   1.188   5.841   3.256
 2703SOL     OW 8452   0.008   6.912   2.062
 2703SOL    HW1 8453  -0.085   6.933   2.031
 2703SOL    HW2 8454   0.018   6.813   2.075
 2704SOL     OW 8455   0.088   7.387   2.789
 2704SOL    HW1 8456   0.046   7.301   2.762
 2704SOL    HW2 8457   0.182   7.390   2.755
 2705SOL     OW 8458   0.504   7.154   2.772
 2705SOL    HW1 8459   0.570   7.228   2.781
 2705SOL    HW2 8460   0.548   7.075   2.730
 2706SOL     OW 8461   1.002   6.382   3.100
 2706SOL    HW1 8462   1.043   6.350   3.186
 2706SOL    HW2 8463   0.906   6.355   3.097
 2707SOL     OW 8464   0.040   6.130   2.976
 2707SOL    HW1 8465   0.125   6.097   2.935
 2707SOL    HW2 8466   0.053   6.145   3.074
 2708SOL     OW 8467   0.189   6.106   3.584
 2708SOL    HW1 8468   0.248   6.066   3.514
 2708SOL    HW2 8469   0.131   6.177   3.543
 2709SOL     OW 8470   1.369   6.536   3.522
 2709SOL    HW1 8471   1.408   6.625   3.542
 2709SOL    HW2 8472   1.379   6.516   3.425
 2710SOL     OW 8473   0.815   6.158   2.187
 2710SOL    HW1 8474   0.822   6.069   2.141
 2710SOL    HW2 8475   0.721   6.192   2.179
 2711SOL     OW 8476   1.657   6.190   3.068
 2711SOL    HW1 8477   1.619   6.121   3.130
 2711SOL    HW2 8478   1.739   6.154   3.024
 2712SOL     OW 8479   0.252   7.150   3.606
 2712SOL    HW1 8480   0.222   7.207   3.682
 2712SOL    HW2 8481   0.245   7.053   3.632
 2713SOL     OW 8482   0.671   6.050   3.131
 2713SOL    HW1 8483   0.637   5.961   3.101
 2713SOL    HW2 8484   0.697   6.104   3.051
 2714SOL     OW 8485   0.930   7.264   3.327
 2714SOL    HW1 8486   0.906   7.246   3.232
 2714SOL    HW2 8487   0.960   7.358   3.337
 2715SOL     OW 8488   0.473   6.086   2.053
 2715SOL    HW1 8489   0.534   6.166   2.057
 2715SOL    HW2 8490   0.378   6.117   2.060
 2716SOL     OW 8491   0.159   6.723   3.328
 2716SOL    HW1 8492   0.181   6.662   3.404
 2716SOL    HW2 8493   0.169   6.674   3.242
 2717SOL     OW 8494   1.347   6.645   3.096
 2717SOL    HW1 8495   1.371   6.582   3.022
 2717SOL    HW2 8496   1.257   6.685   3.078
 2718SOL     OW 8497   1.302   6.441   2.171
 2718SOL    HW1 8498   1.216   6.410   2.213
 2718SOL    HW2 8499   1.298   6.427   2.072
 2719SOL     OW 8500   1.759   7.333   3.016
 2719SOL    HW1 8501   1.820   7.363   2.943
 2719SOL    HW2 8502   1.721   7.244   2.994
 2720SOL     OW 8503   1.252   7.317   2.990
 2720SOL    HW1 8504   1.336   7.322   2.936
 2720SOL    HW2 8505   1.229   7.221   3.008
 2721SOL     OW 8506   0.083   6.844   2.884
 2721SOL    HW1 8507   0.078   6.843   2.984
 2721SOL    HW2 8508   0.000   6.803   2.846
 2722SOL     OW 8509   0.688   7.248   3.578
 2722SOL    HW1 8510   0.632   7.329   3.587
 2722SOL    HW2 8511   0.740   7.252   3.492
 2723SOL     OW 8512   1.726   5.721   2.385
 2723SOL    HW1 8513   1.799   5.704   2.318
 2723SOL    HW2 8514   1.695   5.634   2.423
 2724SOL     OW 8515   1.388   7.159   2.339
 2724SOL    HW1 8516   1.455   7.171   2.265
 2724SOL    HW2 8517   1.348   7.248   2.362
 2725SOL     OW 8518   0.130   7.380   3.713
 2725SOL    HW1 8519   0.089   7.306   3.766
 2725SOL    HW2 8520   0.194   7.431   3.771
 2726SOL     OW 8521   1.280   6.513   2.534
 2726SOL    HW1 8522   1.340   6.432   2.536
 2726SOL    HW2 8523   1.320   6.582   2.474
 2727SOL     OW 8524   0.830   6.859   3.284
 2727SOL    HW1 8525   0.825   6.892   3.379
 2727SOL    HW2 8526   0.744   6.878   3.238
 2728SOL     OW 8527   0.672   7.202   2.016
 2728SOL    HW1 8528   0.681   7.212   1.917
 2728SOL    HW2 8529   0.632   7.113   2.037
 2729SOL     OW 8530   1.650   7.306   3.256
 2729SOL    HW1 8531   1.703   7.316   3.172
 2729SOL    HW2 8532   1.623   7.396   3.290
 2730SOL     OW 8533   1.841   5.761   2.825
 2730SOL    HW1 8534   1.880   5.676   2.789
 2730SOL    HW2 8535   1.743   5.763   2.806
 2731SOL     OW 8536   0.263   5.912   2.582
 2731SOL    HW1 8537   0.184   5.963   2.548
 2731SOL    HW2 8538   0.254   5.897   2.680
 2732SOL     OW 8539   1.194   7.198   1.893
 2732SOL    HW1 8540   1.200   7.105   1.930
 2732SOL    HW2 8541   1.135   7.198   1.813
 2733SOL     OW 8542   0.822   6.588   3.234
 2733SOL    HW1 8543   0.862   6.587   3.142
 2733SOL    HW2 8544   0.832   6.680   3.274
 2734SOL     OW 8545   0.916   6.496   2.153
 2734SOL    HW1 8546   0.979   6.534   2.085
 2734SOL    HW2 8547   0.956   6.413   2.192
 2735SOL     OW 8548   1.504   7.193   1.906
 2735SOL    HW1 8549   1.412   7.230   1.913
 2735SOL    HW2 8550   1.542   7.213   1.816
 2736SOL     OW 8551   0.372   6.874   3.352
 2736SOL    HW1 8552   0.359   6.967   3.318
 2736SOL    HW2 8553   0.288   6.822   3.339
 2737SOL     OW 8554   1.614   6.878   3.151
 2737SOL    HW1 8555   1.674   6.881   3.231
 2737SOL    HW2 8556   1.539   6.942   3.164
 2738SOL     OW 8557   1.039   6.684   2.558
 2738SOL    HW1 8558   0.969   6.637   2.612
 2738SOL    HW2 8559   1.098   6.616   2.515
 2739SOL     OW 8560   1.014   5.822   2.833
 2739SOL    HW1 8561   1.006   5.786   2.740
 2739SOL    HW2 8562   1.012   5.746   2.898
 2740SOL     OW 8563   0.590   7.073   2.353
 2740SOL    HW1 8564   0.632   7.015   2.283
 2740SOL    HW2 8565   0.546   7.152   2.309
 2741SOL     OW 8566   1.709   5.971   3.243
 2741SOL    HW1 8567   1.782   6.040   3.247
 2741SOL    HW2 8568   1.737   5.896   3.184
 2742SOL     OW 8569   0.255   6.934   2.152
 2742SOL    HW1 8570   0.159   6.935   2.125
 2742SOL    HW2 8571   0.267   6.987   2.236
 2743SOL     OW 8572   0.105   6.599   3.588
 2743SOL    HW1 8573   0.028   6.566   3.642
 2743SOL    HW2 8574   0.190   6.569   3.630
 2744SOL     OW 8575   0.672   5.789   3.351
 2744SOL    HW1 8576   0.762   5.773   3.311
 2744SOL    HW2 8577   0.680   5.794   3.450
 2745SOL     OW 8578   0.075   5.931   1.895
 2745SOL    HW1 8579  -0.017   5.903   1.866
 2745SOL    HW2 8580   0.106   6.008   1.839
 2746SOL     OW 8581   1.440   6.442   3.260
 2746SOL    HW1 8582   1.383   6.494   3.197
 2746SOL    HW2 8583   1.536   6.454   3.236
 2747SOL     OW 8584   0.072   5.752   2.180
 2747SOL    HW1 8585   0.055   5.835   2.126
 2747SOL    HW2 8586   0.162   5.715   2.158
 2748SOL     OW 8587   1.183   6.921   1.981
 2748SOL    HW1 8588   1.084   6.910   1.983
 2748SOL    HW2 8589   1.217   6.936   2.074
 2749SOL     OW 8590   0.613   6.428   3.293
 2749SOL    HW1 8591   0.669   6.509   3.276
 2749SOL    HW2 8592   0.672   6.348   3.296
 2750SOL     OW 8593   1.493   7.353   2.821
 2750SOL    HW1 8594   1.526   7.417   2.752
 2750SOL    HW2 8595   1.559   7.347   2.896
 2751SOL     OW 8596   0.716   6.151   3.570
 2751SOL    HW1 8597   0.735   6.216   3.644
 2751SOL    HW2 8598   0.776   6.071   3.579
 2752SOL     OW 8599   1.450   6.806   3.495
 2752SOL    HW1 8600   1.441   6.796   3.594
 2752SOL    HW2 8601   1.546   6.799   3.469
 2753SOL     OW 8602   0.390   7.327   3.422
 2753SOL    HW1 8603   0.299   7.368   3.420
 2753SOL    HW2 8604   0.383   7.233   3.454
 2754SOL     OW 8605   1.674   6.469   3.116
 2754SOL    HW1 8606   1.647   6.380   3.079
 2754SOL    HW2 8607   1.675   6.537   3.043
 2755SOL     OW 8608   1.225   5.911   2.311
 2755SOL    HW1 8609   1.290   5.837   2.300
 2755SOL    HW2 8610   1.245   5.961   2.395
 2756SOL     OW 8611   0.594   6.331   2.514
 2756SOL    HW1 8612   0.644   6.416   2.495
 2756SOL    HW2 8613   0.506   6.333   2.466
 2757SOL     OW 8614   1.777   5.928   3.504
 2757SOL    HW1 8615   1.760   5.959   3.410
 2757SOL    HW2 8616   1.693   5.891   3.542
 2758SOL     OW 8617   1.730   6.520   3.379
 2758SOL    HW1 8618   1.768   6.611   3.394
 2758SOL    HW2 8619   1.722   6.503   3.280
 2759SOL     OW 8620   0.859   6.960   1.878
 2759SOL    HW1 8621   0.813   6.975   1.966
 2759SOL    HW2 8622   0.903   7.045   1.848
 2760SOL     OW 8623   0.661   7.376   2.815
 2760SOL    HW1 8624   0.615   7.464   2.802
 2760SOL    HW2 8625   0.760   7.388   2.808
 2761SOL     OW 8626   0.859   6.542   2.723
 2761SOL    HW1 8627   0.913   6.473   2.771
 2761SOL    HW2 8628   0.827   6.611   2.789
 2762SOL     OW 8629   1.083   6.570   1.949
 2762SOL    HW1 8630   1.060   6.623   1.867
 2762SOL    HW2 8631   1.164   6.514   1.930
 2763SOL     OW 8632   1.861   7.155   2.713
 2763SOL    HW1 8633   1.790   7.143   2.643
 2763SOL    HW2 8634   1.862   7.076   2.773
 2764SOL     OW 8635   0.221   6.900   3.706
 2764SOL    HW1 8636   0.156   6.827   3.685
 2764SOL    HW2 8637   0.225   6.914   3.804
 2765SOL     OW 8638   0.079   6.826   2.515
 2765SOL    HW1 8639   0.078   6.779   2.603
 2765SOL    HW2 8640   0.161   6.798   2.464
 2766SOL     OW 8641   0.672   6.977   3.486
 2766SOL    HW1 8642   0.594   6.927   3.524
 2766SOL    HW2 8643   0.669   7.072   3.517
 2767SOL     OW 8644   1.824   5.778   3.089
 2767SOL    HW1 8645   1.820   5.688   3.133
 2767SOL    HW2 8646   1.827   5.767   2.990
 2768SOL     OW 8647   0.428   6.010   2.382
 2768SOL    HW1 8648   0.458   5.938   2.320
 2768SOL    HW2 8649   0.389   5.970   2.465
 2769SOL     OW 8650   1.705   7.073   2.966
 2769SOL    HW1 8651   1.612   7.048   2.939
 2769SOL    HW2 8652   1.731   7.023   3.048
 2770SOL     OW 8653   0.317   6.133   3.142
 2770SOL    HW1 8654   0.355   6.074   3.214
 2770SOL    HW2 8655   0.357   6.107   3.054
 2771SOL     OW 8656   0.812   7.172   2.549
 2771SOL    HW1 8657   0.844   7.182   2.455
 2771SOL    HW2 8658   0.733   7.110   2.551
 2772SOL     OW 8659   1.424   5.800   2.974
 2772SOL    HW1 8660   1.476   5.735   3.029
 2772SOL    HW2 8661   1.375   5.863   3.035
 2773SOL     OW 8662   1.001   5.620   3.016
 2773SOL    HW1 8663   0.938   5.548   2.985
 2773SOL    HW2 8664   1.094   5.584   3.016
 2774SOL     OW 8665   0.770   6.916   2.163
 2774SOL    HW1 8666   0.724   6.829   2.180
 2774SOL    HW2 8667   0.861   6.913   2.204
 2775SOL     OW 8668   0.618   7.153   3.146
 2775SOL    HW1 8669   0.613   7.235   3.203
 2775SOL    HW2 8670   0.707   7.150   3.101
 2776SOL     OW 8671   1.352   5.638   2.030
 2776SOL    HW1 8672   1.387   5.597   1.946
 2776SOL    HW2 8673   1.262   5.600   2.050
 2777SOL     OW 8674   1.300   6.039   2.553
 2777SOL    HW1 8675   1.241   6.119   2.557
 2777SOL    HW2 8676   1.315   6.004   2.646
 2778SOL     OW 8677   1.593   5.807   2.744
 2778SOL    HW1 8678   1.509   5.806   2.798
 2778SOL    HW2 8679   1.595   5.890   2.688
 2779SOL     OW 8680   0.039   6.663   2.162
 2779SOL    HW1 8681   0.138   6.652   2.153
 2779SOL    HW2 8682  -0.001   6.577   2.194
 2780SOL     OW 8683   0.875   7.232   2.199
 2780SOL    HW1 8684   0.798   7.197   2.145
 2780SOL    HW2 8685   0.843   7.303   2.261
 2781SOL     OW 8686   0.230   6.214   3.837
 2781SOL    HW1 8687   0.137   6.212   3.874
 2781SOL    HW2 8688   0.231   6.175   3.745
 2782SOL     OW 8689   0.225   5.861   4.720
 2782SOL    HW1 8690   0.260   5.844   4.812
 2782SOL    HW2 8691   0.137   5.816   4.708
 2783SOL     OW 8692   0.019   5.954   4.371
 2783SOL    HW1 8693  -0.063   5.997   4.410
 2783SOL    HW2 8694  -0.009   5.881   4.308
 2784SOL     OW 8695   0.569   6.861   4.889
 2784SOL    HW1 8696   0.476   6.854   4.852
 2784SOL    HW2 8697   0.580   6.950   4.933
 2785SOL     OW 8698   1.555   7.097   4.427
 2785SOL    HW1 8699   1.498   7.081   4.508
 2785SOL    HW2 8700   1.496   7.107   4.347
 2786SOL     OW 8701   1.135   6.289   4.441
 2786SOL    HW1 8702   1.192   6.367   4.416
 2786SOL    HW2 8703   1.075   6.315   4.517
 2787SOL     OW 8704   1.755   6.193   3.955
 2787SOL    HW1 8705   1.743   6.180   3.856
 2787SOL    HW2 8706   1.725   6.112   4.004
 2788SOL     OW 8707   0.768   6.730   4.747
 2788SOL    HW1 8708   0.690   6.747   4.807
 2788SOL    HW2 8709   0.802   6.817   4.711
 2789SOL     OW 8710   0.850   6.384   5.547
 2789SOL    HW1 8711   0.846   6.460   5.612
 2789SOL    HW2 8712   0.872   6.420   5.456
 2790SOL     OW 8713   0.685   6.598   4.389
 2790SOL    HW1 8714   0.754   6.582   4.459
 2790SOL    HW2 8715   0.612   6.655   4.427
 2791SOL     OW 8716   0.686   6.747   5.527
 2791SOL    HW1 8717   0.746   6.826   5.541
 2791SOL    HW2 8718   0.600   6.778   5.486
 2792SOL     OW 8719   0.335   7.021   4.785
 2792SOL    HW1 8720   0.257   6.990   4.732
 2792SOL    HW2 8721   0.393   7.079   4.728
 2793SOL     OW 8722   1.460   7.091   5.063
 2793SOL    HW1 8723   1.484   7.185   5.089
 2793SOL    HW2 8724   1.444   7.037   5.145
 2794SOL     OW 8725   0.438   5.978   5.223
 2794SOL    HW1 8726   0.520   5.922   5.232
 2794SOL    HW2 8727   0.357   5.920   5.227
 2795SOL     OW 8728   1.603   6.033   4.461
 2795SOL    HW1 8729   1.529   6.079   4.411
 2795SOL    HW2 8730   1.654   6.101   4.514
 2796SOL     OW 8731   0.231   7.299   4.207
 2796SOL    HW1 8732   0.265   7.376   4.261
 2796SOL    HW2 8733   0.275   7.299   4.117
 2797SOL     OW 8734   1.127   6.927   5.414
 2797SOL    HW1 8735   1.174   6.927   5.502
 2797SOL    HW2 8736   1.079   6.840   5.403
 2798SOL     OW 8737   0.230   7.020   4.262
 2798SOL    HW1 8738   0.204   7.116   4.262
 2798SOL    HW2 8739   0.159   6.966   4.307
 2799SOL     OW 8740   0.240   6.677   4.610
 2799SOL    HW1 8741   0.254   6.593   4.662
 2799SOL    HW2 8742   0.185   6.741   4.665
 2800SOL     OW 8743   0.620   7.372   5.163
 2800SOL    HW1 8744   0.528   7.355   5.198
 2800SOL    HW2 8745   0.648   7.464   5.189
 2801SOL     OW 8746   0.606   6.550   3.847
 2801SOL    HW1 8747   0.613   6.634   3.793
 2801SOL    HW2 8748   0.652   6.563   3.935
 2802SOL     OW 8749   1.594   5.700   5.204
 2802SOL    HW1 8750   1.576   5.767   5.132
 2802SOL    HW2 8751   1.591   5.746   5.293
 2803SOL     OW 8752   0.122   6.229   4.287
 2803SOL    HW1 8753   0.077   6.141   4.304
 2803SOL    HW2 8754   0.121   6.283   4.371
 2804SOL     OW 8755   1.842   7.353   4.083
 2804SOL    HW1 8756   1.896   7.324   4.163
 2804SOL    HW2 8757   1.872   7.443   4.054
 2805SOL     OW 8758   0.027   7.182   3.841
 2805SOL    HW1 8759   0.008   7.086   3.862
 2805SOL    HW2 8760  -0.006   7.240   3.916
 2806SOL     OW 8761   1.689   6.508   4.336
 2806SOL    HW1 8762   1.784   6.479   4.344
 2806SOL    HW2 8763   1.681   6.573   4.261
 2807SOL     OW 8764   1.641   6.694   4.156
 2807SOL    HW1 8765   1.727   6.696   4.104
 2807SOL    HW2 8766   1.655   6.741   4.244
 2808SOL     OW 8767   0.113   6.323   5.321
 2808SOL    HW1 8768   0.201   6.310   5.366
 2808SOL    HW2 8769   0.100   6.420   5.299
 2809SOL     OW 8770   0.613   6.951   4.450
 2809SOL    HW1 8771   0.564   6.864   4.459
 2809SOL    HW2 8772   0.590   6.994   4.363
 2810SOL     OW 8773   1.293   6.814   5.147
 2810SOL    HW1 8774   1.330   6.741   5.089
 2810SOL    HW2 8775   1.345   6.819   5.232
 2811SOL     OW 8776   0.809   5.590   4.226
 2811SOL    HW1 8777   0.849   5.681   4.217
 2811SOL    HW2 8778   0.709   5.598   4.232
 2812SOL     OW 8779   0.197   6.562   4.988
 2812SOL    HW1 8780   0.286   6.517   4.974
 2812SOL    HW2 8781   0.124   6.497   4.969
 2813SOL     OW 8782   1.525   6.585   3.914
 2813SOL    HW1 8783   1.462   6.509   3.927
 2813SOL    HW2 8784   1.573   6.603   4.000
 2814SOL     OW 8785   1.187   7.378   5.340
 2814SOL    HW1 8786   1.211   7.438   5.264
 2814SOL    HW2 8787   1.194   7.283   5.310
 2815SOL     OW 8788   0.317   5.837   5.525
 2815SOL    HW1 8789   0.388   5.908   5.531
 2815SOL    HW2 8790   0.229   5.876   5.553
 2816SOL     OW 8791   1.466   7.003   4.677
 2816SOL    HW1 8792   1.407   7.009   4.757
 2816SOL    HW2 8793   1.451   6.915   4.631
 2817SOL     OW 8794   1.667   7.300   4.296
 2817SOL    HW1 8795   1.626   7.277   4.208
 2817SOL    HW2 8796   1.649   7.226   4.361
 2818SOL     OW 8797   0.598   6.315   3.994
 2818SOL    HW1 8798   0.622   6.384   3.926
 2818SOL    HW2 8799   0.520   6.348   4.048
 2819SOL     OW 8800   1.281   5.931   4.668
 2819SOL    HW1 8801   1.195   5.881   4.655
 2819SOL    HW2 8802   1.343   5.877   4.724
 2820SOL     OW 8803   1.576   7.248   4.031
 2820SOL    HW1 8804   1.665   7.294   4.034
 2820SOL    HW2 8805   1.555   7.224   3.936
 2821SOL     OW 8806   0.807   6.191   5.189
 2821SOL    HW1 8807   0.760   6.188   5.278
 2821SOL    HW2 8808   0.756   6.136   5.123
 2822SOL     OW 8809   1.394   6.055   5.398
 2822SOL    HW1 8810   1.374   6.098   5.486
 2822SOL    HW2 8811   1.472   5.993   5.407
 2823SOL     OW 8812   0.973   6.476   5.296
 2823SOL    HW1 8813   1.019   6.392   5.267
 2823SOL    HW2 8814   0.917   6.510   5.221
 2824SOL     OW 8815   0.991   5.996   4.966
 2824SOL    HW1 8816   0.914   6.030   5.020
 2824SOL    HW2 8817   0.957   5.945   4.887
 2825SOL     OW 8818   1.041   6.287   4.153
 2825SOL    HW1 8819   1.067   6.283   4.249
 2825SOL    HW2 8820   0.956   6.236   4.139
 2826SOL     OW 8821   0.076   6.397   4.513
 2826SOL    HW1 8822   0.175   6.385   4.522
 2826SOL    HW2 8823   0.052   6.492   4.534
 2827SOL     OW 8824   0.130   7.407   5.295
 2827SOL    HW1 8825   0.120   7.392   5.394
 2827SOL    HW2 8826   0.044   7.443   5.259
 2828SOL     OW 8827   0.865   5.934   3.919
 2828SOL    HW1 8828   0.924   5.997   3.870
 2828SOL    HW2 8829   0.884   5.840   3.890
 2829SOL     OW 8830   1.719   6.171   5.555
 2829SOL    HW1 8831   1.693   6.260   5.519
 2829SOL    HW2 8832   1.717   6.103   5.482
 2830SOL     OW 8833   1.362   6.730   4.269
 2830SOL    HW1 8834   1.445   6.701   4.221
 2830SOL    HW2 8835   1.313   6.797   4.213
 2831SOL     OW 8836   0.550   5.782   4.609
 2831SOL    HW1 8837   0.545   5.777   4.709
 2831SOL    HW2 8838   0.552   5.878   4.580
 2832SOL     OW 8839   1.008   7.042   4.201
 2832SOL    HW1 8840   0.962   7.114   4.149
 2832SOL    HW2 8841   1.004   7.062   4.299
 2833SOL     OW 8842   0.351   7.387   4.577
 2833SOL    HW1 8843   0.401   7.301   4.583
 2833SOL    HW2 8844   0.416   7.464   4.574
 2834SOL     OW 8845   1.795   6.652   4.597
 2834SOL    HW1 8846   1.733   6.637   4.521
 2834SOL    HW2 8847   1.743   6.663   4.682
 2835SOL     OW 8848   1.227   7.136   5.230
 2835SOL    HW1 8849   1.233   7.059   5.294
 2835SOL    HW2 8850   1.175   7.110   5.150
 2836SOL     OW 8851   0.321   6.529   3.966
 2836SOL    HW1 8852   0.403   6.568   3.924
 2836SOL    HW2 8853   0.294   6.447   3.917
 2837SOL     OW 8854   1.458   6.321   4.452
 2837SOL    HW1 8855   1.453   6.256   4.527
 2837SOL    HW2 8856   1.538   6.380   4.465
 2838SOL     OW 8857   0.461   6.852   5.451
 2838SOL    HW1 8858   0.411   6.853   5.365
 2838SOL    HW2 8859   0.398   6.834   5.527
 2839SOL     OW 8860   1.111   7.362   3.961
 2839SOL    HW1 8861   1.051   7.300   4.011
 2839SOL    HW2 8862   1.142   7.318   3.876
 2840SOL     OW 8863   0.202   5.871   5.222
 2840SOL    HW1 8864   0.122   5.931   5.209
 2840SOL    HW2 8865   0.192   5.822   5.308
 2841SOL     OW 8866   1.632   6.963   3.805
 2841SOL    HW1 8867   1.600   7.057   3.795
 2841SOL    HW2 8868   1.556   6.900   3.793
 2842SOL     OW 8869   0.464   7.329   4.047
 2842SOL    HW1 8870   0.497   7.368   4.133
 2842SOL    HW2 8871   0.540   7.322   3.982
 2843SOL     OW 8872   1.400   5.693   4.150
 2843SOL    HW1 8873   1.376   5.656   4.060
 2843SOL    HW2 8874   1.499   5.709   4.154
 2844SOL     OW 8875   0.249   7.371   4.965
 2844SOL    HW1 8876   0.306   7.306   5.015
 2844SOL    HW2 8877   0.233   7.338   4.872
 2845SOL     OW 8878   0.940   7.284   4.628
 2845SOL    HW1 8879   1.020   7.227   4.649
 2845SOL    HW2 8880   0.891   7.244   4.551
 2846SOL     OW 8881   0.382   6.286   4.204
 2846SOL    HW1 8882   0.427   6.196   4.201
 2846SOL    HW2 8883   0.288   6.275   4.237
 2847SOL     OW 8884   1.547   5.808   5.453
 2847SOL    HW1 8885   1.542   5.845   5.545
 2847SOL    HW2 8886   1.475   5.739   5.441
 2848SOL     OW 8887   0.614   5.708   3.841
 2848SOL    HW1 8888   0.712   5.686   3.848
 2848SOL    HW2 8889   0.583   5.691   3.748
 2849SOL     OW 8890   0.781   5.850   5.473
 2849SOL    HW1 8891   0.848   5.789   5.516
 2849SOL    HW2 8892   0.708   5.869   5.538
 2850SOL     OW 8893   0.888   7.100   4.919
 2850SOL    HW1 8894   0.865   7.075   4.825
 2850SOL    HW2 8895   0.949   7.031   4.958
 2851SOL     OW 8896   1.351   6.176   5.157
 2851SOL    HW1 8897   1.379   6.133   5.242
 2851SOL    HW2 8898   1.376   6.272   5.158
 2852SOL     OW 8899   0.803   6.988   4.648
 2852SOL    HW1 8900   0.893   7.002   4.606
 2852SOL    HW2 8901   0.732   6.990   4.577
 2853SOL     OW 8902   0.922   6.089   4.623
 2853SOL    HW1 8903   0.897   6.080   4.527
 2853SOL    HW2 8904   0.970   6.007   4.654
 2854SOL     OW 8905   0.539   5.650   4.236
 2854SOL    HW1 8906   0.458   5.651   4.294
 2854SOL    HW2 8907   0.542   5.733   4.181
 2855SOL     OW 8908   1.434   6.774   3.765
 2855SOL    HW1 8909   1.466   6.698   3.822
 2855SOL    HW2 8910   1.342   6.801   3.795
 2856SOL     OW 8911   0.297   5.621   3.895
 2856SOL    HW1 8912   0.346   5.705   3.874
 2856SOL    HW2 8913   0.359   5.556   3.940
 2857SOL     OW 8914   0.935   5.822   4.204
 2857SOL    HW1 8915   0.887   5.863   4.126
 2857SOL    HW2 8916   1.034   5.820   4.185
 2858SOL     OW 8917   1.076   6.269   5.188
 2858SOL    HW1 8918   0.996   6.208   5.191
 2858SOL    HW2 8919   1.157   6.216   5.164
 2859SOL     OW 8920   1.227   7.156   4.517
 2859SOL    HW1 8921   1.248   7.230   4.452
 2859SOL    HW2 8922   1.295   7.156   4.590
 2860SOL     OW 8923   0.459   6.738   4.465
 2860SOL    HW1 8924   0.388   6.711   4.530
 2860SOL    HW2 8925   0.433   6.710   4.372
 2861SOL     OW 8926   1.271   7.383   4.315
 2861SOL    HW1 8927   1.315   7.447   4.251
 2861SOL    HW2 8928   1.221   7.435   4.385
 2862SOL     OW 8929   1.032   6.135   3.740
 2862SOL    HW1 8930   0.991   6.217   3.701
 2862SOL    HW2 8931   1.096   6.161   3.813
 2863SOL     OW 8932   0.078   6.142   5.110
 2863SOL    HW1 8933   0.170   6.141   5.069
 2863SOL    HW2 8934   0.072   6.216   5.177
 2864SOL     OW 8935   0.561   5.808   4.871
 2864SOL    HW1 8936   0.599   5.724   4.908
 2864SOL    HW2 8937   0.473   5.827   4.915
 2865SOL     OW 8938   0.866   6.040   4.366
 2865SOL    HW1 8939   0.834   6.112   4.304
 2865SOL    HW2 8940   0.890   5.959   4.313
 2866SOL     OW 8941   1.017   5.625   4.477
 2866SOL    HW1 8942   0.945   5.630   4.408
 2866SOL    HW2 8943   0.993   5.556   4.546
 2867SOL     OW 8944   1.429   6.759   4.591
 2867SOL    HW1 8945   1.374   6.675   4.584
 2867SOL    HW2 8946   1.455   6.788   4.499
 2868SOL     OW 8947   1.466   6.176   4.716
 2868SOL    HW1 8948   1.436   6.081   4.723
 2868SOL    HW2 8949   1.539   6.192   4.782
 2869SOL     OW 8950   1.857   6.419   4.101
 2869SOL    HW1 8951   1.899   6.355   4.165
 2869SOL    HW2 8952   1.819   6.368   4.023
 2870SOL     OW 8953   0.488   6.971   3.898
 2870SOL    HW1 8954   0.401   6.956   3.945
 2870SOL    HW2 8955   0.471   6.997   3.803
 2871SOL     OW 8956   1.664   6.866   4.381
 2871SOL    HW1 8957   1.763   6.874   4.395
 2871SOL    HW2 8958   1.619   6.950   4.412
 2872SOL     OW 8959   1.390   6.161   3.802
 2872SOL    HW1 8960   1.336   6.140   3.883
 2872SOL    HW2 8961   1.481   6.120   3.811
 2873SOL     OW 8962   0.527   5.842   4.052
 2873SOL    HW1 8963   0.554   5.783   3.977
 2873SOL    HW2 8964   0.527   5.937   4.021
 2874SOL     OW 8965   1.754   6.809   5.312
 2874SOL    HW1 8966   1.845   6.770   5.299
 2874SOL    HW2 8967   1.762   6.905   5.336
 2875SOL     OW 8968   1.064   6.933   5.064
 2875SOL    HW1 8969   0.984   6.910   5.119
 2875SOL    HW2 8970   1.147   6.907   5.113
 2876SOL     OW 8971   1.592   7.215   5.349
 2876SOL    HW1 8972   1.619   7.249   5.259
 2876SOL    HW2 8973   1.671   7.177   5.395
 2877SOL     OW 8974   1.111   6.781   4.824
 2877SOL    HW1 8975   1.071   6.825   4.905
 2877SOL    HW2 8976   1.070   6.818   4.741
 2878SOL     OW 8977   1.638   6.685   4.803
 2878SOL    HW1 8978   1.643   6.766   4.862
 2878SOL    HW2 8979   1.552   6.687   4.752
 2879SOL     OW 8980   0.915   5.675   5.126
 2879SOL    HW1 8981   0.940   5.655   5.031
 2879SOL    HW2 8982   0.987   5.731   5.168
 2880SOL     OW 8983   0.980   6.702   5.443
 2880SOL    HW1 8984   0.881   6.708   5.453
 2880SOL    HW2 8985   1.003   6.622   5.387
 2881SOL     OW 8986   0.705   6.636   4.092
 2881SOL    HW1 8987   0.691   6.643   4.191
 2881SOL    HW2 8988   0.789   6.585   4.074
 2882SOL     OW 8989   0.410   6.399   4.975
 2882SOL    HW1 8990   0.496   6.411   5.025
 2882SOL    HW2 8991   0.368   6.312   5.002
 2883SOL     OW 8992   1.274   5.972   4.986
 2883SOL    HW1 8993   1.295   6.046   5.050
 2883SOL    HW2 8994   1.185   5.989   4.943
 2884SOL     OW 8995   0.064   7.150   5.055
 2884SOL    HW1 8996   0.018   7.232   5.021
 2884SOL    HW2 8997   0.162   7.169   5.064
 2885SOL     OW 8998   0.367   6.686   4.225
 2885SOL    HW1 8999   0.360   6.769   4.169
 2885SOL    HW2 9000   0.371   6.606   4.165
 2886SOL     OW 9001   0.566   6.123   4.589
 2886SOL    HW1 9002   0.578   6.189   4.515
 2886SOL    HW2 9003   0.612   6.157   4.672
 2887SOL     OW 9004   1.252   6.934   4.112
 2887SOL    HW1 9005   1.302   7.011   4.152
 2887SOL    HW2 9006   1.157   6.936   4.144
 2888SOL     OW 9007   1.272   7.031   4.866
 2888SOL    HW1 9008   1.319   7.044   4.953
 2888SOL    HW2 9009   1.206   6.957   4.875
 2889SOL     OW 9010   1.582   6.225   4.196
 2889SOL    HW1 9011   1.551   6.286   4.269
 2889SOL    HW2 9012   1.632   6.277   4.127
 2890SOL     OW 9013   0.354   7.096   5.053
 2890SOL    HW1 9014   0.333   7.052   4.966
 2890SOL    HW2 9015   0.451   7.122   5.056
 2891SOL     OW 9016   0.402   6.337   5.322
 2891SOL    HW1 9017   0.470   6.392   5.275
 2891SOL    HW2 9018   0.442   6.249   5.349
 2892SOL     OW 9019   1.587   6.365   5.394
 2892SOL    HW1 9020   1.495   6.403   5.389
 2892SOL    HW2 9021   1.647   6.412   5.329
 2893SOL     OW 9022   1.013   5.691   5.494
 2893SOL    HW1 9023   1.019   5.776   5.442
 2893SOL    HW2 9024   1.045   5.615   5.437
 2894SOL     OW 9025   0.504   5.636   5.464
 2894SOL    HW1 9026   0.462   5.579   5.394
 2894SOL    HW2 9027   0.438   5.705   5.496
 2895SOL     OW 9028   0.573   6.456   4.753
 2895SOL    HW1 9029   0.617   6.545   4.744
 2895SOL    HW2 9030   0.510   6.456   4.830
 2896SOL     OW 9031   1.360   6.448   4.769
 2896SOL    HW1 9032   1.285   6.448   4.703
 2896SOL    HW2 9033   1.397   6.356   4.778
 2897SOL     OW 9034   1.209   6.111   3.999
 2897SOL    HW1 9035   1.222   6.027   4.053
 2897SOL    HW2 9036   1.180   6.185   4.059
 2898SOL     OW 9037   0.307   5.799   4.955
 2898SOL    HW1 9038   0.284   5.836   5.045
 2898SOL    HW2 9039   0.277   5.704   4.949
 2899SOL     OW 9040   0.037   6.896   5.006
 2899SOL    HW1 9041   0.090   6.847   5.074
 2899SOL    HW2 9042   0.059   6.994   5.011
 2900SOL     OW 9043   0.732   6.220   4.788
 2900SOL    HW1 9044   0.791   6.194   4.712
 2900SOL    HW2 9045   0.704   6.316   4.777
 2901SOL     OW 9046   1.728   6.521   5.578
 2901SOL    HW1 9047   1.682   6.514   5.489
 2901SOL    HW2 9048   1.666   6.565   5.644
 2902SOL     OW 9049   0.307   5.649   4.342
 2902SOL    HW1 9050   0.296   5.743   4.375
 2902SOL    HW2 9051   0.302   5.586   4.419
 2903SOL     OW 9052   1.622   5.953   4.098
 2903SOL    HW1 9053   1.624   5.877   4.162
 2903SOL    HW2 9054   1.574   6.030   4.138
 2904SOL     OW 9055   1.023   6.352   4.690
 2904SOL    HW1 9056   1.038   6.373   4.786
 2904SOL    HW2 9057   0.993   6.257   4.681
 2905SOL     OW 9058   0.980   7.159   5.424
 2905SOL    HW1 9059   0.960   7.203   5.336
 2905SOL    HW2 9060   1.019   7.068   5.408
 2906SOL     OW 9061   1.859   7.104   5.329
 2906SOL    HW1 9062   1.873   7.131   5.234
 2906SOL    HW2 9063   1.942   7.126   5.382
 2907SOL     OW 9064   0.350   6.484   5.528
 2907SOL    HW1 9065   0.426   6.528   5.576
 2907SOL    HW2 9066   0.385   6.437   5.446
 2908SOL     OW 9067   1.540   5.860   3.849
 2908SOL    HW1 9068   1.479   5.785   3.872
 2908SOL    HW2 9069   1.562   5.912   3.932
 2909SOL     OW 9070   1.303   6.424   3.766
 2909SOL    HW1 9071   1.337   6.331   3.781
 2909SOL    HW2 9072   1.321   6.451   3.671
 2910SOL     OW 9073   1.068   6.919   4.573
 2910SOL    HW1 9074   1.075   6.835   4.518
 2910SOL    HW2 9075   1.130   6.988   4.537
 2911SOL     OW 9076   0.319   6.396   4.673
 2911SOL    HW1 9077   0.412   6.432   4.678
 2911SOL    HW2 9078   0.313   6.311   4.725
 2912SOL     OW 9079   0.339   6.095   4.730
 2912SOL    HW1 9080   0.287   6.012   4.713
 2912SOL    HW2 9081   0.416   6.100   4.666
 2913SOL     OW 9082   1.138   5.966   5.402
 2913SOL    HW1 9083   1.093   6.029   5.466
 2913SOL    HW2 9084   1.231   5.997   5.385
 2914SOL     OW 9085   1.160   5.793   5.201
 2914SOL    HW1 9086   1.160   5.857   5.278
 2914SOL    HW2 9087   1.188   5.841   5.118
 2915SOL     OW 9088   0.008   6.912   3.924
 2915SOL    HW1 9089  -0.085   6.933   3.893
 2915SOL    HW2 9090   0.018   6.813   3.937
 2916SOL     OW 9091   0.088   7.387   4.651
 2916SOL    HW1 9092   0.046   7.301   4.624
 2916SOL    HW2 9093   0.182   7.390   4.617
 2917SOL     OW 9094   0.504   7.154   4.634
 2917SOL    HW1 9095   0.570   7.228   4.643
 2917SOL    HW2 9096   0.548   7.075   4.592
 2918SOL     OW 9097   1.002   6.382   4.962
 2918SOL    HW1 9098   1.043   6.350   5.048
 2918SOL    HW2 9099   0.906   6.355   4.959
 2919SOL     OW 9100   0.040   6.130   4.838
 2919SOL    HW1 9101   0.125   6.097   4.797
 2919SOL    HW2 9102   0.053   6.145   4.936
 2920SOL     OW 9103   0.189   6.106   5.446
 2920SOL    HW1 9104   0.248   6.066   5.376
 2920SOL    HW2 9105   0.131   6.177   5.405
 2921SOL     OW 9106   1.369   6.536   5.384
 2921SOL    HW1 9107   1.408   6.625   5.404
 2921SOL    HW2 9108   1.379   6.516   5.287
 2922SOL     OW 9109   0.815   6.158   4.049
 2922SOL    HW1 9110   0.822   6.069   4.003
 2922SOL    HW2 9111   0.721   6.192   4.041
 2923SOL     OW 9112   1.657   6.190   4.930
 2923SOL    HW1 9113   1.619   6.121   4.992
 2923SOL    HW2 9114   1.739   6.154   4.886
 2924SOL     OW 9115   0.252   7.150   5.468
 2924SOL    HW1 9116   0.222   7.207   5.544
 2924SOL    HW2 9117   0.245   7.053   5.494
 2925SOL     OW 9118   0.671   6.050   4.993
 2925SOL    HW1 9119   0.637   5.961   4.963
 2925SOL    HW2 9120   0.697   6.104   4.913
 2926SOL     OW 9121   0.930   7.264   5.189
 2926SOL    HW1 9122   0.906   7.246   5.094
 2926SOL    HW2 9123   0.960   7.358   5.199
 2927SOL     OW 9124   0.473   6.086   3.915
 2927SOL    HW1 9125   0.534   6.166   3.919
 2927SOL    HW2 9126   0.378   6.117   3.922
 2928SOL     OW 9127   0.159   6.723   5.190
 2928SOL    HW1 9128   0.181   6.662   5.266
 2928SOL    HW2 9129   0.169   6.674   5.104
 2929SOL     OW 9130   1.347   6.645   4.958
 2929SOL    HW1 9131   1.371   6.582   4.884
 2929SOL    HW2 9132   1.257   6.685   4.940
 2930SOL     OW 9133   1.302   6.441   4.033
 2930SOL    HW1 9134   1.216   6.410   4.075
 2930SOL    HW2 9135   1.298   6.427   3.934
 2931SOL     OW 9136   1.759   7.333   4.878
 2931SOL    HW1 9137   1.820   7.363   4.805
 2931SOL    HW2 9138   1.721   7.244   4.856
 2932SOL     OW 9139   1.252   7.317   4.852
 2932SOL    HW1 9140   1.336   7.322   4.798
 2932SOL    HW2 9141   1.229   7.221   4.870
 2933SOL     OW 9142   0.083   6.844   4.746
 2933SOL    HW1 9143   0.078   6.843   4.846
 2933SOL    HW2 9144   0.000   6.803   4.708
 2934SOL     OW 9145   0.688   7.248   5.440
 2934SOL    HW1 9146   0.632   7.329   5.449
 2934SOL    HW2 9147   0.740   7.252   5.354
 2935SOL     OW 9148   1.726   5.721   4.247
 2935SOL    HW1 9149   1.799   5.704   4.180
 2935SOL    HW2 9150   1.695   5.634   4.285
 2936SOL     OW 9151   1.388   7.159   4.201
 2936SOL    HW1 9152   1.455   7.171   4.127
 2936SOL    HW2 9153   1.348   7.248   4.224
 2937SOL     OW 9154   0.130   7.380   5.575
 2937SOL    HW1 9155   0.089   7.306   5.628
 2937SOL    HW2 9156   0.194   7.431   5.633
 2938SOL     OW 9157   1.280   6.513   4.396
 2938SOL    HW1 9158   1.340   6.432   4.398
 2938SOL    HW2 9159   1.320   6.582   4.336
 2939SOL     OW 9160   0.830   6.859   5.146
 2939SOL    HW1 9161   0.825   6.892   5.241
 2939SOL    HW2 9162   0.744   6.878   5.100
 2940SOL     OW 9163   0.672   7.202   3.878
 2940SOL    HW1 9164   0.681   7.212   3.779
 2940SOL    HW2 9165   0.632   7.113   3.899
 2941SOL     OW 9166   1.650   7.306   5.118
 2941SOL    HW1 9167   1.703   7.316   5.034
 2941SOL    HW2 9168   1.623   7.396   5.152
 2942SOL     OW 9169   1.841   5.761   4.687
 2942SOL    HW1 9170   1.880   5.676   4.651
 2942SOL    HW2 9171   1.743   5.763   4.668
 2943SOL     OW 9172   0.263   5.912   4.444
 2943SOL    HW1 9173   0.184   5.963   4.410
 2943SOL    HW2 9174   0.254   5.897   4.542
 2944SOL     OW 9175   1.194   7.198   3.755
 2944SOL    HW1 9176   1.200   7.105   3.792
 2944SOL    HW2 9177   1.135   7.198   3.675
 2945SOL     OW 9178   0.822   6.588   5.096
 2945SOL    HW1 9179   0.862   6.587   5.004
 2945SOL    HW2 9180   0.832   6.680   5.136
 2946SOL     OW 9181   0.916   6.496   4.015
 2946SOL    HW1 9182   0.979   6.534   3.947
 2946SOL    HW2 9183   0.956   6.413   4.054
 2947SOL     OW 9184   1.504   7.193   3.768
 2947SOL    HW1 9185   1.412   7.230   3.775
 2947SOL    HW2 9186   1.542   7.213   3.678
 2948SOL     OW 9187   0.372   6.874   5.214
 2948SOL    HW1 9188   0.359   6.967   5.180
 2948SOL    HW2 9189   0.288   6.822   5.201
 2949SOL     OW 9190   1.614   6.878   5.013
 2949SOL    HW1 9191   1.674   6.881   5.093
 2949SOL    HW2 9192   1.539   6.942   5.026
 2950SOL     OW 9193   1.039   6.684   4.420
 2950SOL    HW1 9194   0.969   6.637   4.474
 2950SOL    HW2 9195   1.098   6.616   4.377
 2951SOL     OW 9196   1.014   5.822   4.695
 2951SOL    HW1 9197   1.006   5.786   4.602
 2951SOL    HW2 9198   1.012   5.746   4.760
 2952SOL     OW 9199   0.590   7.073   4.215
 2952SOL    HW1 9200   0.632   7.015   4.145
 2952SOL    HW2 9201   0.546   7.152   4.171
 2953SOL     OW 9202   1.709   5.971   5.105
 2953SOL    HW1 9203   1.782   6.040   5.109
 2953SOL    HW2 9204   1.737   5.896   5.046
 2954SOL     OW 9205   0.255   6.934   4.014
 2954SOL    HW1 9206   0.159   6.935   3.987
 2954SOL    HW2 9207   0.267   6.987   4.098
 2955SOL     OW 9208   0.105   6.599   5.450
 2955SOL    HW1 9209   0.028   6.566   5.504
 2955SOL    HW2 9210   0.190   6.569   5.492
 2956SOL     OW 9211   0.672   5.789   5.213
 2956SOL    HW1 9212   0.762   5.773   5.173
 2956SOL    HW2 9213   0.680   5.794   5.312
 2957SOL     OW 9214   0.075   5.931   3.757
 2957SOL    HW1 9215  -0.017   5.903   3.728
 2957SOL    HW2 9216   0.106   6.008   3.701
 2958SOL     OW 9217   1.440   6.442   5.122
 2958SOL    HW1 9218   1.383   6.494   5.059
 2958SOL    HW2 9219   1.536   6.454   5.098
 2959SOL     OW 9220   0.072   5.752   4.042
 2959SOL    HW1 9221   0.055   5.835   3.988
 2959SOL    HW2 9222   0.162   5.715   4.020
 2960SOL     OW 9223   1.183   6.921   3.843
 2960SOL    HW1 9224   1.084   6.910   3.845
 2960SOL    HW2 9225   1.217   6.936   3.936
 2961SOL     OW 9226   0.613   6.428   5.155
 2961SOL    HW1 9227   0.669   6.509   5.138
 2961SOL    HW2 9228   0.672   6.348   5.158
 2962SOL     OW 9229   1.493   7.353   4.683
 2962SOL    HW1 9230   1.526   7.417   4.614
 2962SOL    HW2 9231   1.559   7.347   4.758
 2963SOL     OW 9232   0.716   6.151   5.432
 2963SOL    HW1 9233   0.735   6.216   5.506
 2963SOL    HW2 9234   0.776   6.071   5.441
 2964SOL     OW 9235   1.450   6.806   5.357
 2964SOL    HW1 9236   1.441   6.796   5.456
 2964SOL    HW2 9237   1.546   6.799   5.331
 2965SOL     OW 9238   0.390   7.327   5.284
 2965SOL    HW1 9239   0.299   7.368   5.282
 2965SOL    HW2 9240   0.383   7.233   5.316
 2966SOL     OW 9241   1.674   6.469   4.978
 2966SOL    HW1 9242   1.647   6.380   4.941
 2966SOL    HW2 9243   1.675   6.537   4.905
 2967SOL     OW 9244   1.225   5.911   4.173
 2967SOL    HW1 9245   1.290   5.837   4.162
 2967SOL    HW2 9246   1.245   5.961   4.257
 2968SOL     OW 9247   0.594   6.331   4.376
 2968SOL    HW1 9248   0.644   6.416   4.357
 2968SOL    HW2 9249   0.506   6.333   4.328
 2969SOL     OW 9250   1.777   5.928   5.366
 2969SOL    HW1 9251   1.760   5.959   5.272
 2969SOL    HW2 9252   1.693   5.891   5.404
 2970SOL     OW 9253   1.730   6.520   5.241
 2970SOL    HW1 9254   1.768   6.611   5.256
 2970SOL    HW2 9255   1.722   6.503   5.142
 2971SOL     OW 9256   0.859   6.960   3.740
 2971SOL    HW1 9257   0.813   6.975   3.828
 2971SOL    HW2 9258   0.903   7.045   3.710
 2972SOL     OW 9259   0.661   7.376   4.677
 2972SOL    HW1 9260   0.615   7.464   4.664
 2972SOL    HW2 9261   0.760   7.388   4.670
 2973SOL     OW 9262   0.859   6.542   4.585
 2973SOL    HW1 9263   0.913   6.473   4.633
 2973SOL    HW2 9264   0.827   6.611   4.651
 2974SOL     OW 9265   1.083   6.570   3.811
 2974SOL    HW1 9266   1.060   6.623   3.729
 2974SOL    HW2 9267   1.164   6.514   3.792
 2975SOL     OW 9268   1.861   7.155   4.575
 2975SOL    HW1 9269   1.790   7.143   4.505
 2975SOL    HW2 9270   1.862   7.076   4.635
 2976SOL     OW 9271   0.221   6.900   5.568
 2976SOL    HW1 9272   0.156   6.827   5.547
 2976SOL    HW2 9273   0.225   6.914   5.666
 2977SOL     OW 9274   0.079   6.826   4.377
 2977SOL    HW1 9275   0.078   6.779   4.465
 2977SOL    HW2 9276   0.161   6.798   4.326
 2978SOL     OW 9277   0.672   6.977   5.348
 2978SOL    HW1 9278   0.594   6.927   5.386
 2978SOL    HW2 9279   0.669   7.072   5.379
 2979SOL     OW 9280   1.824   5.778   4.951
 2979SOL    HW1 9281   1.820   5.688   4.995
 2979SOL    HW2 9282   1.827   5.767   4.852
 2980SOL     OW 9283   0.428   6.010   4.244
 2980SOL    HW1 9284   0.458   5.938   4.182
 2980SOL    HW2 9285   0.389   5.970   4.327
 2981SOL     OW 9286   1.705   7.073   4.828
 2981SOL    HW1 9287   1.612   7.048   4.801
 2981SOL    HW2 9288   1.731   7.023   4.910
 2982SOL     OW 9289   0.317   6.133   5.004
 2982SOL    HW1 9290   0.355   6.074   5.076
 2982SOL    HW2 9291   0.357   6.107   4.916
 2983SOL     OW 9292   0.812   7.172   4.411
 2983SOL    HW1 9293   0.844   7.182   4.317
 2983SOL    HW2 9294   0.733   7.110   4.413
 2984SOL     OW 9295   1.424   5.800   4.836
 2984SOL    HW1 9296   1.476   5.735   4.891
 2984SOL    HW2 9297   1.375   5.863   4.897
 2985SOL     OW 9298   1.001   5.620   4.878
 2985SOL    HW1 9299   0.938   5.548   4.847
 2985SOL    HW2 9300   1.094   5.584   4.878
 2986SOL     OW 9301   0.770   6.916   4.025
 2986SOL    HW1 9302   0.724   6.829   4.042
 2986SOL    HW2 9303   0.861   6.913   4.066
 2987SOL     OW 9304   0.618   7.153   5.008
 2987SOL    HW1 9305   0.613   7.235   5.065
 2987SOL    HW2 9306   0.707   7.150   4.963
 2988SOL     OW 9307   1.352   5.638   3.892
 2988SOL    HW1 9308   1.387   5.597   3.808
 2988SOL    HW2 9309   1.262   5.600   3.912
 2989SOL     OW 9310   1.300   6.039   4.415
 2989SOL    HW1 9311   1.241   6.119   4.419
 2989SOL    HW2 9312   1.315   6.004   4.508
 2990SOL     OW 9313   1.593   5.807   4.606
 2990SOL    HW1 9314   1.509   5.806   4.660
 2990SOL    HW2 9315   1.595   5.890   4.550
 2991SOL     OW 9316   0.039   6.663   4.024
 2991SOL    HW1 9317   0.138   6.652   4.015
 2991SOL    HW2 9318  -0.001   6.577   4.056
 2992SOL     OW 9319   0.875   7.232   4.061
 2992SOL    HW1 9320   0.798   7.197   4.007
 2992SOL    HW2 9321   0.843   7.303   4.123
 2993SOL     OW 9322   0.230   6.214   5.699
 2993SOL    HW1 9323   0.137   6.212   5.736
 2993SOL    HW2 9324   0.231   6.175   5.607
 2994SOL     OW 9325   0.225   5.861   6.582
 2994SOL    HW1 9326   0.260   5.844   6.674
 2994SOL    HW2 9327   0.137   5.816   6.570
 2995SOL     OW 9328   0.019   5.954   6.233
 2995SOL    HW1 9329  -0.063   5.997   6.272
 2995SOL    HW2 9330  -0.009   5.881   6.170
 2996SOL     OW 9331   0.569   6.861   6.751
 2996SOL    HW1 9332   0.476   6.854   6.714
 2996SOL    HW2 9333   0.580   6.950   6.795
 2997SOL     OW 9334   1.555   7.097   6.289
 2997SOL    HW1 9335   1.498   7.081   6.370
 2997SOL    HW2 9336   1.496   7.107   6.209
 2998SOL     OW 9337   1.135   6.289   6.303
 2998SOL    HW1 9338   1.192   6.367   6.278
 2998SOL    HW2 9339   1.075   6.315   6.379
 2999SOL     OW 9340   1.755   6.193   5.817
 2999SOL    HW1 9341   1.743   6.180   5.718
 2999SOL    HW2 9342   1.725   6.112   5.866
 3000SOL     OW 9343   0.768   6.730   6.609
 3000SOL    HW1 9344   0.690   6.747   6.669
 3000SOL    HW2 9345   0.802   6.817   6.573
 3001SOL     OW 9346   0.685   6.598   6.251
 3001SOL    HW1 9347   0.754   6.582   6.321
 3001SOL    HW2 9348   0.612   6.655   6.289
 3002SOL     OW 9349   0.335   7.021   6.647
 3002SOL    HW1 9350   0.257   6.990   6.594
 3002SOL    HW2 9351   0.393   7.079   6.590
 3003SOL     OW 9352   1.603   6.033   6.323
 3003SOL    HW1 9353   1.529   6.079   6.273
 3003SOL    HW2 9354   1.654   6.101   6.376
 3004SOL     OW 9355   0.231   7.299   6.069
 3004SOL    HW1 9356   0.265   7.376   6.123
 3004SOL    HW2 9357   0.275   7.299   5.979
 3005SOL     OW 9358   0.230   7.020   6.124
 3005SOL    HW1 9359   0.204   7.116   6.124
 3005SOL    HW2 9360   0.159   6.966   6.169
 3006SOL     OW 9361   0.240   6.677   6.472
 3006SOL    HW1 9362   0.254   6.593   6.524
 3006SOL    HW2 9363   0.185   6.741   6.527
 3007SOL     OW 9364   0.606   6.550   5.709
 3007SOL    HW1 9365   0.613   6.634   5.655
 3007SOL    HW2 9366   0.652   6.563   5.797
 3008SOL     OW 9367   0.122   6.229   6.149
 3008SOL    HW1 9368   0.077   6.141   6.166
 3008SOL    HW2 9369   0.121   6.283   6.233
 3009SOL     OW 9370   1.842   7.353   5.945
 3009SOL    HW1 9371   1.896   7.324   6.025
 3009SOL    HW2 9372   1.872   7.443   5.916
 3010SOL     OW 9373   0.027   7.182   5.703
 3010SOL    HW1 9374   0.008   7.086   5.724
 3010SOL    HW2 9375  -0.006   7.240   5.778
 3011SOL     OW 9376   1.689   6.508   6.198
 3011SOL    HW1 9377   1.784   6.479   6.206
 3011SOL    HW2 9378   1.681   6.573   6.123
 3012SOL     OW 9379   1.641   6.694   6.018
 3012SOL    HW1 9380   1.727   6.696   5.966
 3012SOL    HW2 9381   1.655   6.741   6.106
 3013SOL     OW 9382   0.613   6.951   6.312
 3013SOL    HW1 9383   0.564   6.864   6.321
 3013SOL    HW2 9384   0.590   6.994   6.225
 3014SOL     OW 9385   0.809   5.590   6.088
 3014SOL    HW1 9386   0.849   5.681   6.079
 3014SOL    HW2 9387   0.709   5.598   6.094
 3015SOL     OW 9388   1.525   6.585   5.776
 3015SOL    HW1 9389   1.462   6.509   5.789
 3015SOL    HW2 9390   1.573   6.603   5.862
 3016SOL     OW 9391   1.466   7.003   6.539
 3016SOL    HW1 9392   1.407   7.009   6.619
 3016SOL    HW2 9393   1.451   6.915   6.493
 3017SOL     OW 9394   1.667   7.300   6.158
 3017SOL    HW1 9395   1.626   7.277   6.070
 3017SOL    HW2 9396   1.649   7.226   6.223
 3018SOL     OW 9397   0.598   6.315   5.856
 3018SOL    HW1 9398   0.622   6.384   5.788
 3018SOL    HW2 9399   0.520   6.348   5.910
 3019SOL     OW 9400   1.281   5.931   6.530
 3019SOL    HW1 9401   1.195   5.881   6.517
 3019SOL    HW2 9402   1.343   5.877   6.586
 3020SOL     OW 9403   1.576   7.248   5.893
 3020SOL    HW1 9404   1.665   7.294   5.896
 3020SOL    HW2 9405   1.555   7.224   5.798
 3021SOL     OW 9406   0.991   5.996   6.828
 3021SOL    HW1 9407   0.914   6.030   6.882
 3021SOL    HW2 9408   0.957   5.945   6.749
 3022SOL     OW 9409   1.041   6.287   6.015
 3022SOL    HW1 9410   1.067   6.283   6.111
 3022SOL    HW2 9411   0.956   6.236   6.001
 3023SOL     OW 9412   0.076   6.397   6.375
 3023SOL    HW1 9413   0.175   6.385   6.384
 3023SOL    HW2 9414   0.052   6.492   6.396
 3024SOL     OW 9415   0.865   5.934   5.781
 3024SOL    HW1 9416   0.924   5.997   5.732
 3024SOL    HW2 9417   0.884   5.840   5.752
 3025SOL     OW 9418   1.362   6.730   6.131
 3025SOL    HW1 9419   1.445   6.701   6.083
 3025SOL    HW2 9420   1.313   6.797   6.075
 3026SOL     OW 9421   0.550   5.782   6.471
 3026SOL    HW1 9422   0.545   5.777   6.571
 3026SOL    HW2 9423   0.552   5.878   6.442
 3027SOL     OW 9424   1.008   7.042   6.063
 3027SOL    HW1 9425   0.962   7.114   6.011
 3027SOL    HW2 9426   1.004   7.062   6.161
 3028SOL     OW 9427   0.351   7.387   6.439
 3028SOL    HW1 9428   0.401   7.301   6.445
 3028SOL    HW2 9429   0.416   7.464   6.436
 3029SOL     OW 9430   1.795   6.652   6.459
 3029SOL    HW1 9431   1.733   6.637   6.383
 3029SOL    HW2 9432   1.743   6.663   6.544
 3030SOL     OW 9433   0.321   6.529   5.828
 3030SOL    HW1 9434   0.403   6.568   5.786
 3030SOL    HW2 9435   0.294   6.447   5.779
 3031SOL     OW 9436   1.458   6.321   6.314
 3031SOL    HW1 9437   1.453   6.256   6.389
 3031SOL    HW2 9438   1.538   6.380   6.327
 3032SOL     OW 9439   1.111   7.362   5.823
 3032SOL    HW1 9440   1.051   7.300   5.873
 3032SOL    HW2 9441   1.142   7.318   5.738
 3033SOL     OW 9442   1.632   6.963   5.667
 3033SOL    HW1 9443   1.600   7.057   5.657
 3033SOL    HW2 9444   1.556   6.900   5.655
 3034SOL     OW 9445   0.464   7.329   5.909
 3034SOL    HW1 9446   0.497   7.368   5.995
 3034SOL    HW2 9447   0.540   7.322   5.844
 3035SOL     OW 9448   1.400   5.693   6.012
 3035SOL    HW1 9449   1.376   5.656   5.922
 3035SOL    HW2 9450   1.499   5.709   6.016
 3036SOL     OW 9451   0.249   7.371   6.827
 3036SOL    HW1 9452   0.306   7.306   6.877
 3036SOL    HW2 9453   0.233   7.338   6.734
 3037SOL     OW 9454   0.940   7.284   6.490
 3037SOL    HW1 9455   1.020   7.227   6.511
 3037SOL    HW2 9456   0.891   7.244   6.413
 3038SOL     OW 9457   0.382   6.286   6.066
 3038SOL    HW1 9458   0.427   6.196   6.063
 3038SOL    HW2 9459   0.288   6.275   6.099
 3039SOL     OW 9460   0.614   5.708   5.703
 3039SOL    HW1 9461   0.712   5.686   5.710
 3039SOL    HW2 9462   0.583   5.691   5.610
 3040SOL     OW 9463   0.888   7.100   6.781
 3040SOL    HW1 9464   0.865   7.075   6.687
 3040SOL    HW2 9465   0.949   7.031   6.820
 3041SOL     OW 9466   0.803   6.988   6.510
 3041SOL    HW1 9467   0.893   7.002   6.468
 3041SOL    HW2 9468   0.732   6.990   6.439
 3042SOL     OW 9469   0.922   6.089   6.485
 3042SOL    HW1 9470   0.897   6.080   6.389
 3042SOL    HW2 9471   0.970   6.007   6.516
 3043SOL     OW 9472   0.539   5.650   6.098
 3043SOL    HW1 9473   0.458   5.651   6.156
 3043SOL    HW2 9474   0.542   5.733   6.043
 3044SOL     OW 9475   1.434   6.774   5.627
 3044SOL    HW1 9476   1.466   6.698   5.684
 3044SOL    HW2 9477   1.342   6.801   5.657
 3045SOL     OW 9478   0.297   5.621   5.757
 3045SOL    HW1 9479   0.346   5.705   5.736
 3045SOL    HW2 9480   0.359   5.556   5.802
 3046SOL     OW 9481   0.935   5.822   6.066
 3046SOL    HW1 9482   0.887   5.863   5.988
 3046SOL    HW2 9483   1.034   5.820   6.047
 3047SOL     OW 9484   1.227   7.156   6.379
 3047SOL    HW1 9485   1.248   7.230   6.314
 3047SOL    HW2 9486   1.295   7.156   6.452
 3048SOL     OW 9487   0.459   6.738   6.327
 3048SOL    HW1 9488   0.388   6.711   6.392
 3048SOL    HW2 9489   0.433   6.710   6.234
 3049SOL     OW 9490   1.271   7.383   6.177
 3049SOL    HW1 9491   1.315   7.447   6.113
 3049SOL    HW2 9492   1.221   7.435   6.247
 3050SOL     OW 9493   1.032   6.135   5.602
 3050SOL    HW1 9494   0.991   6.217   5.563
 3050SOL    HW2 9495   1.096   6.161   5.675
 3051SOL     OW 9496   0.561   5.808   6.733
 3051SOL    HW1 9497   0.599   5.724   6.770
 3051SOL    HW2 9498   0.473   5.827   6.777
 3052SOL     OW 9499   0.866   6.040   6.228
 3052SOL    HW1 9500   0.834   6.112   6.166
 3052SOL    HW2 9501   0.890   5.959   6.175
 3053SOL     OW 9502   1.017   5.625   6.339
 3053SOL    HW1 9503   0.945   5.630   6.270
 3053SOL    HW2 9504   0.993   5.556   6.408
 3054SOL     OW 9505   1.429   6.759   6.453
 3054SOL    HW1 9506   1.374   6.675   6.446
 3054SOL    HW2 9507   1.455   6.788   6.361
 3055SOL     OW 9508   1.466   6.176   6.578
 3055SOL    HW1 9509   1.436   6.081   6.585
 3055SOL    HW2 9510   1.539   6.192   6.644
 3056SOL     OW 9511   1.857   6.419   5.963
 3056SOL    HW1 9512   1.899   6.355   6.027
 3056SOL    HW2 9513   1.819   6.368   5.885
 3057SOL     OW 9514   0.488   6.971   5.760
 3057SOL    HW1 9515   0.401   6.956   5.807
 3057SOL    HW2 9516   0.471   6.997   5.665
 3058SOL     OW 9517   1.664   6.866   6.243
 3058SOL    HW1 9518   1.763   6.874   6.257
 3058SOL    HW2 9519   1.619   6.950   6.274
 3059SOL     OW 9520   1.390   6.161   5.664
 3059SOL    HW1 9521   1.336   6.140   5.745
 3059SOL    HW2 9522   1.481   6.120   5.673
 3060SOL     OW 9523   0.527   5.842   5.914
 3060SOL    HW1 9524   0.554   5.783   5.839
 3060SOL    HW2 9525   0.527   5.937   5.883
 3061SOL     OW 9526   1.111   6.781   6.686
 3061SOL    HW1 9527   1.071   6.825   6.767
 3061SOL    HW2 9528   1.070   6.818   6.603
 3062SOL     OW 9529   1.638   6.685   6.665
 3062SOL    HW1 9530   1.643   6.766   6.724
 3062SOL    HW2 9531   1.552   6.687   6.614
 3063SOL     OW 9532   0.705   6.636   5.954
 3063SOL    HW1 9533   0.691   6.643   6.053
 3063SOL    HW2 9534   0.789   6.585   5.936
 3064SOL     OW 9535   0.367   6.686   6.087
 3064SOL    HW1 9536   0.360   6.769   6.031
 3064SOL    HW2 9537   0.371   6.606   6.027
 3065SOL     OW 9538   0.566   6.123   6.451
 3065SOL    HW1 9539   0.578   6.189   6.377
 3065SOL    HW2 9540   0.612   6.157   6.534
 3066SOL     OW 9541   1.252   6.934   5.974
 3066SOL    HW1 9542   1.302   7.011   6.014
 3066SOL    HW2 9543   1.157   6.936   6.006
 3067SOL     OW 9544   1.272   7.031   6.728
 3067SOL    HW1 9545   1.319   7.044   6.815
 3067SOL    HW2 9546   1.206   6.957   6.737
 3068SOL     OW 9547   1.582   6.225   6.058
 3068SOL    HW1 9548   1.551   6.286   6.131
 3068SOL    HW2 9549   1.632   6.277   5.989
 3069SOL     OW 9550   0.573   6.456   6.615
 3069SOL    HW1 9551   0.617   6.545   6.606
 3069SOL    HW2 9552   0.510   6.456   6.692
 3070SOL     OW 9553   1.360   6.448   6.631
 3070SOL    HW1 9554   1.285   6.448   6.565
 3070SOL    HW2 9555   1.397   6.356   6.640
 3071SOL     OW 9556   1.209   6.111   5.861
 3071SOL    HW1 9557   1.222   6.027   5.915
 3071SOL    HW2 9558   1.180   6.185   5.921
 3072SOL     OW 9559   0.732   6.220   6.650
 3072SOL    HW1 9560   0.791   6.194   6.574
 3072SOL    HW2 9561   0.704   6.316   6.639
 3073SOL     OW 9562   0.307   5.649   6.204
 3073SOL    HW1 9563   0.296   5.743   6.237
 3073SOL    HW2 9564   0.302   5.586   6.281
 3074SOL     OW 9565   1.622   5.953   5.960
 3074SOL    HW1 9566   1.624   5.877   6.024
 3074SOL    HW2 9567   1.574   6.030   6.000
 3075SOL     OW 9568   1.023   6.352   6.552
 3075SOL    HW1 9569   1.038   6.373   6.648
 3075SOL    HW2 9570   0.993   6.257   6.543
 3076SOL     OW 9571   1.540   5.860   5.711
 3076SOL    HW1 9572   1.479   5.785   5.734
 3076SOL    HW2 9573   1.562   5.912   5.794
 3077SOL     OW 9574   1.303   6.424   5.628
 3077SOL    HW1 9575   1.337   6.331   5.643
 3077SOL    HW2 9576   1.321   6.451   5.533
 3078SOL     OW 9577   1.068   6.919   6.435
 3078SOL    HW1 9578   1.075   6.835   6.380
 3078SOL    HW2 9579   1.130   6.988   6.399
 3079SOL     OW 9580   0.319   6.396   6.535
 3079SOL    HW1 9581   0.412   6.432   6.540
 3079SOL    HW2 9582   0.313   6.311   6.587
 3080SOL     OW 9583   0.339   6.095   6.592
 3080SOL    HW1 9584   0.287   6.012   6.575
 3080SOL    HW2 9585   0.416   6.100   6.528
 3081SOL     OW 9586   0.008   6.912   5.786
 3081SOL    HW1 9587  -0.085   6.933   5.755
 3081SOL    HW2 9588   0.018   6.813   5.799
 3082SOL     OW 9589   0.088   7.387   6.513
 3082SOL    HW1 9590   0.046   7.301   6.486
 3082SOL    HW2 9591   0.182   7.390   6.479
 3083SOL     OW 9592   0.504   7.154   6.496
 3083SOL    HW1 9593   0.570   7.228   6.505
 3083SOL    HW2 9594   0.548   7.075   6.454
 3084SOL     OW 9595   0.040   6.130   6.700
 3084SOL    HW1 9596   0.125   6.097   6.659
 3084SOL    HW2 9597   0.053   6.145   6.798
 3085SOL     OW 9598   0.815   6.158   5.911
 3085SOL    HW1 9599   0.822   6.069   5.865
 3085SOL    HW2 9600   0.721   6.192   5.903
 3086SOL     OW 9601   1.657   6.190   6.792
 3086SOL    HW1 9602   1.619   6.121   6.854
 3086SOL    HW2 9603   1.739   6.154   6.748
 3087SOL     OW 9604   0.671   6.050   6.855
 3087SOL    HW1 9605   0.637   5.961   6.825
 3087SOL    HW2 9606   0.697   6.104   6.775
 3088SOL     OW 9607   0.473   6.086   5.777
 3088SOL    HW1 9608   0.534   6.166   5.781
 3088SOL    HW2 9609   0.378   6.117   5.784
 3089SOL     OW 9610   1.347   6.645   6.820
 3089SOL    HW1 9611   1.371   6.582   6.746
 3089SOL    HW2 9612   1.257   6.685   6.802
 3090SOL     OW 9613   1.302   6.441   5.895
 3090SOL    HW1 9614   1.216   6.410   5.937
 3090SOL    HW2 9615   1.298   6.427   5.796
 3091SOL     OW 9616   1.759   7.333   6.740
 3091SOL    HW1 9617   1.820   7.363   6.667
 3091SOL    HW2 9618   1.721   7.244   6.718
 3092SOL     OW 9619   1.252   7.317   6.714
 3092SOL    HW1 9620   1.336   7.322   6.660
 3092SOL    HW2 9621   1.229   7.221   6.732
 3093SOL     OW 9622   0.083   6.844   6.608
 3093SOL    HW1 9623   0.078   6.843   6.708
 3093SOL    HW2 9624   0.000   6.803   6.570
 3094SOL     OW 9625   1.726   5.721   6.109
 3094SOL    HW1 9626   1.799   5.704   6.042
 3094SOL    HW2 9627   1.695   5.634   6.147
 3095SOL     OW 9628   1.388   7.159   6.063
 3095SOL    HW1 9629   1.455   7.171   5.989
 3095SOL    HW2 9630   1.348   7.248   6.086
 3096SOL     OW 9631   1.280   6.513   6.258
 3096SOL    HW1 9632   1.340   6.432   6.260
 3096SOL    HW2 9633   1.320   6.582   6.198
 3097SOL     OW 9634   0.672   7.202   5.740
 3097SOL    HW1 9635   0.681   7.212   5.641
 3097SOL    HW2 9636   0.632   7.113   5.761
 3098SOL     OW 9637   1.841   5.761   6.549
 3098SOL    HW1 9638   1.880   5.676   6.513
 3098SOL    HW2 9639   1.743   5.763   6.530
 3099SOL     OW 9640   0.263   5.912   6.306
 3099SOL    HW1 9641   0.184   5.963   6.272
 3099SOL    HW2 9642   0.254   5.897   6.404
 3100SOL     OW 9643   1.194   7.198   5.617
 3100SOL    HW1 9644   1.200   7.105   5.654
 3100SOL    HW2 9645   1.135   7.198   5.537
 3101SOL     OW 9646   0.916   6.496   5.877
 3101SOL    HW1 9647   0.979   6.534   5.809
 3101SOL    HW2 9648   0.956   6.413   5.916
 3102SOL     OW 9649   1.504   7.193   5.630
 3102SOL    HW1 9650   1.412   7.230   5.637
 3102SOL    HW2 9651   1.542   7.213   5.540
 3103SOL     OW 9652   1.039   6.684   6.282
 3103SOL    HW1 9653   0.969   6.637   6.336
 3103SOL    HW2 9654   1.098   6.616   6.239
 3104SOL     OW 9655   1.014   5.822   6.557
 3104SOL    HW1 9656   1.006   5.786   6.464
 3104SOL    HW2 9657   1.012   5.746   6.622
 3105SOL     OW 9658   0.590   7.073   6.077
 3105SOL    HW1 9659   0.632   7.015   6.007
 3105SOL    HW2 9660   0.546   7.152   6.033
 3106SOL     OW 9661   0.255   6.934   5.876
 3106SOL    HW1 9662   0.159   6.935   5.849
 3106SOL    HW2 9663   0.267   6.987   5.960
 3107SOL     OW 9664   0.075   5.931   5.619
 3107SOL    HW1 9665  -0.017   5.903   5.590
 3107SOL    HW2 9666   0.106   6.008   5.563
 3108SOL     OW 9667   0.072   5.752   5.904
 3108SOL    HW1 9668   0.055   5.835   5.850
 3108SOL    HW2 9669   0.162   5.715   5.882
 3109SOL     OW 9670   1.183   6.921   5.705
 3109SOL    HW1 9671   1.084   6.910   5.707
 3109SOL    HW2 9672   1.217   6.936   5.798
 3110SOL     OW 9673   1.493   7.353   6.545
 3110SOL    HW1 9674   1.526   7.417   6.476
 3110SOL    HW2 9675   1.559   7.347   6.620
 3111SOL     OW 9676   1.674   6.469   6.840
 3111SOL    HW1 9677   1.647   6.380   6.803
 3111SOL    HW2 9678   1.675   6.537   6.767
 3112SOL     OW 9679   1.225   5.911   6.035
 3112SOL    HW1 9680   1.290   5.837   6.024
 3112SOL    HW2 9681   1.245   5.961   6.119
 3113SOL     OW 9682   0.594   6.331   6.238
 3113SOL    HW1 9683   0.644   6.416   6.219
 3113SOL    HW2 9684   0.506   6.333   6.190
 3114SOL     OW 9685   0.859   6.960   5.602
 3114SOL    HW1 9686   0.813   6.975   5.690
 3114SOL    HW2 9687   0.903   7.045   5.572
 3115SOL     OW 9688   0.661   7.376   6.539
 3115SOL    HW1 9689   0.615   7.464   6.526
 3115SOL    HW2 9690   0.760   7.388   6.532
 3116SOL     OW 9691   0.859   6.542   6.447
 3116SOL    HW1 9692   0.913   6.473   6.495
 3116SOL    HW2 9693   0.827   6.611   6.513
 3117SOL     OW 9694   1.083   6.570   5.673
 3117SOL    HW1 9695   1.060   6.623   5.591
 3117SOL    HW2 9696   1.164   6.514   5.654
 3118SOL     OW 9697   1.861   7.155   6.437
 3118SOL    HW1 9698   1.790   7.143   6.367
 3118SOL    HW2 9699   1.862   7.076   6.497
 3119SOL     OW 9700   0.079   6.826   6.239
 3119SOL    HW1 9701   0.078   6.779   6.327
 3119SOL    HW2 9702   0.161   6.798   6.188
 3120SOL     OW 9703   1.824   5.778   6.813
 3120SOL    HW1 9704   1.820   5.688   6.857
 3120SOL    HW2 9705   1.827   5.767   6.714
 3121SOL     OW 9706   0.428   6.010   6.106
 3121SOL    HW1 9707   0.458   5.938   6.044
 3121SOL    HW2 9708   0.389   5.970   6.189
 3122SOL     OW 9709   1.705   7.073   6.690
 3122SOL    HW1 9710   1.612   7.048   6.663
 3122SOL    HW2 9711   1.731   7.023   6.772
 3123SOL     OW 9712   0.317   6.133   6.866
 3123SOL    HW1 9713   0.355   6.074   6.938
 3123SOL    HW2 9714   0.357   6.107   6.778
 3124SOL     OW 9715   0.812   7.172   6.273
 3124SOL    HW1 9716   0.844   7.182   6.179
 3124SOL    HW2 9717   0.733   7.110   6.275
 3125SOL     OW 9718   1.424   5.800   6.698
 3125SOL    HW1 9719   1.476   5.735   6.753
 3125SOL    HW2 9720   1.375   5.863   6.759
 3126SOL     OW 9721   1.001   5.620   6.740
 3126SOL    HW1 9722   0.938   5.548   6.709
 3126SOL    HW2 9723   1.094   5.584   6.740
 3127SOL     OW 9724   0.770   6.916   5.887
 3127SOL    HW1 9725   0.724   6.829   5.904
 3127SOL    HW2 9726   0.861   6.913   5.928
 3128SOL     OW 9727   1.352   5.638   5.754
 3128SOL    HW1 9728   1.387   5.597   5.670
 3128SOL    HW2 9729   1.262   5.600   5.774
 3129SOL     OW 9730   1.300   6.039   6.277
 3129SOL    HW1 9731   1.241   6.119   6.281
 3129SOL    HW2 9732   1.315   6.004   6.370
 3130SOL     OW 9733   1.593   5.807   6.468
 3130SOL    HW1 9734   1.509   5.806   6.522
 3130SOL    HW2 9735   1.595   5.890   6.412
 3131SOL     OW 9736   0.039   6.663   5.886
 3131SOL    HW1 9737   0.138   6.652   5.877
 3131SOL    HW2 9738  -0.001   6.577   5.918
 3132SOL     OW 9739   0.875   7.232   5.923
 3132SOL    HW1 9740   0.798   7.197   5.869
 3132SOL    HW2 9741   0.843   7.303   5.985
 3133SOL     OW 9742   0.225   7.723   0.996
 3133SOL    HW1 9743   0.260   7.706   1.088
 3133SOL    HW2 9744   0.137   7.678   0.984
 3134SOL     OW 9745   0.019   7.816   0.647
 3134SOL    HW1 9746  -0.063   7.859   0.686
 3134SOL    HW2 9747  -0.009   7.743   0.584
 3135SOL     OW 9748   0.438   7.840   1.499
 3135SOL    HW1 9749   0.520   7.784   1.508
 3135SOL    HW2 9750   0.357   7.782   1.503
 3136SOL     OW 9751   1.594   7.562   1.480
 3136SOL    HW1 9752   1.576   7.629   1.408
 3136SOL    HW2 9753   1.591   7.608   1.569
 3137SOL     OW 9754   0.809   7.452   0.502
 3137SOL    HW1 9755   0.849   7.543   0.493
 3137SOL    HW2 9756   0.709   7.460   0.508
 3138SOL     OW 9757   0.317   7.699   1.801
 3138SOL    HW1 9758   0.388   7.770   1.807
 3138SOL    HW2 9759   0.229   7.738   1.829
 3139SOL     OW 9760   1.281   7.793   0.944
 3139SOL    HW1 9761   1.195   7.743   0.931
 3139SOL    HW2 9762   1.343   7.739   1.000
 3140SOL     OW 9763   0.865   7.796   0.195
 3140SOL    HW1 9764   0.924   7.859   0.146
 3140SOL    HW2 9765   0.884   7.702   0.166
 3141SOL     OW 9766   0.550   7.644   0.885
 3141SOL    HW1 9767   0.545   7.639   0.985
 3141SOL    HW2 9768   0.552   7.740   0.856
 3142SOL     OW 9769   0.202   7.733   1.498
 3142SOL    HW1 9770   0.122   7.793   1.485
 3142SOL    HW2 9771   0.192   7.684   1.584
 3143SOL     OW 9772   1.400   7.555   0.426
 3143SOL    HW1 9773   1.376   7.518   0.336
 3143SOL    HW2 9774   1.499   7.571   0.430
 3144SOL     OW 9775   1.547   7.670   1.729
 3144SOL    HW1 9776   1.542   7.707   1.821
 3144SOL    HW2 9777   1.475   7.601   1.717
 3145SOL     OW 9778   0.614   7.570   0.117
 3145SOL    HW1 9779   0.712   7.548   0.124
 3145SOL    HW2 9780   0.583   7.553   0.024
 3146SOL     OW 9781   0.781   7.712   1.749
 3146SOL    HW1 9782   0.848   7.651   1.792
 3146SOL    HW2 9783   0.708   7.731   1.814
 3147SOL     OW 9784   0.539   7.512   0.512
 3147SOL    HW1 9785   0.458   7.513   0.570
 3147SOL    HW2 9786   0.542   7.595   0.457
 3148SOL     OW 9787   0.297   7.483   0.171
 3148SOL    HW1 9788   0.346   7.567   0.150
 3148SOL    HW2 9789   0.359   7.418   0.216
 3149SOL     OW 9790   0.935   7.684   0.480
 3149SOL    HW1 9791   0.887   7.725   0.402
 3149SOL    HW2 9792   1.034   7.682   0.461
 3150SOL     OW 9793   0.561   7.670   1.147
 3150SOL    HW1 9794   0.599   7.586   1.184
 3150SOL    HW2 9795   0.473   7.689   1.191
 3151SOL     OW 9796   1.017   7.487   0.753
 3151SOL    HW1 9797   0.945   7.492   0.684
 3151SOL    HW2 9798   0.993   7.418   0.822
 3152SOL     OW 9799   0.527   7.704   0.328
 3152SOL    HW1 9800   0.554   7.645   0.253
 3152SOL    HW2 9801   0.527   7.799   0.297
 3153SOL     OW 9802   0.915   7.537   1.402
 3153SOL    HW1 9803   0.940   7.517   1.307
 3153SOL    HW2 9804   0.987   7.593   1.444
 3154SOL     OW 9805   1.013   7.553   1.770
 3154SOL    HW1 9806   1.019   7.638   1.718
 3154SOL    HW2 9807   1.045   7.477   1.713
 3155SOL     OW 9808   0.504   7.498   1.740
 3155SOL    HW1 9809   0.462   7.441   1.670
 3155SOL    HW2 9810   0.438   7.567   1.772
 3156SOL     OW 9811   0.307   7.661   1.231
 3156SOL    HW1 9812   0.284   7.698   1.321
 3156SOL    HW2 9813   0.277   7.566   1.225
 3157SOL     OW 9814   0.307   7.511   0.618
 3157SOL    HW1 9815   0.296   7.605   0.651
 3157SOL    HW2 9816   0.302   7.448   0.695
 3158SOL     OW 9817   1.622   7.815   0.374
 3158SOL    HW1 9818   1.624   7.739   0.438
 3158SOL    HW2 9819   1.574   7.892   0.414
 3159SOL     OW 9820   1.540   7.722   0.125
 3159SOL    HW1 9821   1.479   7.647   0.148
 3159SOL    HW2 9822   1.562   7.774   0.208
 3160SOL     OW 9823   1.160   7.655   1.477
 3160SOL    HW1 9824   1.160   7.719   1.554
 3160SOL    HW2 9825   1.188   7.703   1.394
 3161SOL     OW 9826   0.903   7.534   0.133
 3161SOL    HW1 9827   0.954   7.535   0.047
 3161SOL    HW2 9828   0.959   7.492   0.204
 3162SOL     OW 9829   1.726   7.583   0.523
 3162SOL    HW1 9830   1.799   7.566   0.456
 3162SOL    HW2 9831   1.695   7.496   0.561
 3163SOL     OW 9832   1.841   7.623   0.963
 3163SOL    HW1 9833   1.880   7.538   0.927
 3163SOL    HW2 9834   1.743   7.625   0.944
 3164SOL     OW 9835   0.263   7.774   0.720
 3164SOL    HW1 9836   0.184   7.825   0.686
 3164SOL    HW2 9837   0.254   7.759   0.818
 3165SOL     OW 9838   1.014   7.684   0.971
 3165SOL    HW1 9839   1.006   7.648   0.878
 3165SOL    HW2 9840   1.012   7.608   1.036
 3166SOL     OW 9841   1.709   7.833   1.381
 3166SOL    HW1 9842   1.782   7.902   1.385
 3166SOL    HW2 9843   1.737   7.758   1.322
 3167SOL     OW 9844   0.672   7.651   1.489
 3167SOL    HW1 9845   0.762   7.635   1.449
 3167SOL    HW2 9846   0.680   7.656   1.588
 3168SOL     OW 9847   0.075   7.793   0.033
 3168SOL    HW1 9848  -0.017   7.765   0.004
 3168SOL    HW2 9849   0.106   7.870  -0.023
 3169SOL     OW 9850   0.072   7.614   0.318
 3169SOL    HW1 9851   0.055   7.697   0.264
 3169SOL    HW2 9852   0.162   7.577   0.296
 3170SOL     OW 9853   1.225   7.773   0.449
 3170SOL    HW1 9854   1.290   7.699   0.438
 3170SOL    HW2 9855   1.245   7.823   0.533
 3171SOL     OW 9856   1.777   7.790   1.642
 3171SOL    HW1 9857   1.760   7.821   1.548
 3171SOL    HW2 9858   1.693   7.753   1.680
 3172SOL     OW 9859   1.824   7.640   1.227
 3172SOL    HW1 9860   1.820   7.550   1.271
 3172SOL    HW2 9861   1.827   7.629   1.128
 3173SOL     OW 9862   1.424   7.662   1.112
 3173SOL    HW1 9863   1.476   7.597   1.167
 3173SOL    HW2 9864   1.375   7.725   1.173
 3174SOL     OW 9865   1.001   7.482   1.154
 3174SOL    HW1 9866   0.938   7.410   1.123
 3174SOL    HW2 9867   1.094   7.446   1.154
 3175SOL     OW 9868   1.352   7.500   0.168
 3175SOL    HW1 9869   1.387   7.459   0.084
 3175SOL    HW2 9870   1.262   7.462   0.188
 3176SOL     OW 9871   1.593   7.669   0.882
 3176SOL    HW1 9872   1.509   7.668   0.936
 3176SOL    HW2 9873   1.595   7.752   0.826
 3177SOL     OW 9874   0.225   7.723   2.858
 3177SOL    HW1 9875   0.260   7.706   2.950
 3177SOL    HW2 9876   0.137   7.678   2.846
 3178SOL     OW 9877   0.019   7.816   2.509
 3178SOL    HW1 9878  -0.063   7.859   2.548
 3178SOL    HW2 9879  -0.009   7.743   2.446
 3179SOL     OW 9880   0.438   7.840   3.361
 3179SOL    HW1 9881   0.520   7.784   3.370
 3179SOL    HW2 9882   0.357   7.782   3.365
 3180SOL     OW 9883   1.594   7.562   3.342
 3180SOL    HW1 9884   1.576   7.629   3.270
 3180SOL    HW2 9885   1.591   7.608   3.431
 3181SOL     OW 9886   0.809   7.452   2.364
 3181SOL    HW1 9887   0.849   7.543   2.355
 3181SOL    HW2 9888   0.709   7.460   2.370
 3182SOL     OW 9889   0.317   7.699   3.663
 3182SOL    HW1 9890   0.388   7.770   3.669
 3182SOL    HW2 9891   0.229   7.738   3.691
 3183SOL     OW 9892   1.281   7.793   2.806
 3183SOL    HW1 9893   1.195   7.743   2.793
 3183SOL    HW2 9894   1.343   7.739   2.862
 3184SOL     OW 9895   0.865   7.796   2.057
 3184SOL    HW1 9896   0.924   7.859   2.008
 3184SOL    HW2 9897   0.884   7.702   2.028
 3185SOL     OW 9898   0.550   7.644   2.747
 3185SOL    HW1 9899   0.545   7.639   2.847
 3185SOL    HW2 9900   0.552   7.740   2.718
 3186SOL     OW 9901   0.202   7.733   3.360
 3186SOL    HW1 9902   0.122   7.793   3.347
 3186SOL    HW2 9903   0.192   7.684   3.446
 3187SOL     OW 9904   1.400   7.555   2.288
 3187SOL    HW1 9905   1.376   7.518   2.198
 3187SOL    HW2 9906   1.499   7.571   2.292
 3188SOL     OW 9907   1.547   7.670   3.591
 3188SOL    HW1 9908   1.542   7.707   3.683
 3188SOL    HW2 9909   1.475   7.601   3.579
 3189SOL     OW 9910   0.614   7.570   1.979
 3189SOL    HW1 9911   0.712   7.548   1.986
 3189SOL    HW2 9912   0.583   7.553   1.886
 3190SOL     OW 9913   0.781   7.712   3.611
 3190SOL    HW1 9914   0.848   7.651   3.654
 3190SOL    HW2 9915   0.708   7.731   3.676
 3191SOL     OW 9916   0.539   7.512   2.374
 3191SOL    HW1 9917   0.458   7.513   2.432
 3191SOL    HW2 9918   0.542   7.595   2.319
 3192SOL     OW 9919   0.297   7.483   2.033
 3192SOL    HW1 9920   0.346   7.567   2.012
 3192SOL    HW2 9921   0.359   7.418   2.078
 3193SOL     OW 9922   0.935   7.684   2.342
 3193SOL    HW1 9923   0.887   7.725   2.264
 3193SOL    HW2 9924   1.034   7.682   2.323
 3194SOL     OW 9925   0.561   7.670   3.009
 3194SOL    HW1 9926   0.599   7.586   3.046
 3194SOL    HW2 9927   0.473   7.689   3.053
 3195SOL     OW 9928   1.017   7.487   2.615
 3195SOL    HW1 9929   0.945   7.492   2.546
 3195SOL    HW2 9930   0.993   7.418   2.684
 3196SOL     OW 9931   0.527   7.704   2.190
 3196SOL    HW1 9932   0.554   7.645   2.115
 3196SOL    HW2 9933   0.527   7.799   2.159
 3197SOL     OW 9934   0.915   7.537   3.264
 3197SOL    HW1 9935   0.940   7.517   3.169
 3197SOL    HW2 9936   0.987   7.593   3.306
 3198SOL     OW 9937   1.013   7.553   3.632
 3198SOL    HW1 9938   1.019   7.638   3.580
 3198SOL    HW2 9939   1.045   7.477   3.575
 3199SOL     OW 9940   0.504   7.498   3.602
 3199SOL    HW1 9941   0.462   7.441   3.532
 3199SOL    HW2 9942   0.438   7.567   3.634
 3200SOL     OW 9943   0.307   7.661   3.093
 3200SOL    HW1 9944   0.284   7.698   3.183
 3200SOL    HW2 9945   0.277   7.566   3.087
 3201SOL     OW 9946   0.307   7.511   2.480
 3201SOL    HW1 9947   0.296   7.605   2.513
 3201SOL    HW2 9948   0.302   7.448   2.557
 3202SOL     OW 9949   1.622   7.815   2.236
 3202SOL    HW1 9950   1.624   7.739   2.300
 3202SOL    HW2 9951   1.574   7.892   2.276
 3203SOL     OW 9952   1.540   7.722   1.987
 3203SOL    HW1 9953   1.479   7.647   2.010
 3203SOL    HW2 9954   1.562   7.774   2.070
 3204SOL     OW 9955   1.160   7.655   3.339
 3204SOL    HW1 9956   1.160   7.719   3.416
 3204SOL    HW2 9957   1.188   7.703   3.256
 3205SOL     OW 9958   1.726   7.583   2.385
 3205SOL    HW1 9959   1.799   7.566   2.318
 3205SOL    HW2 9960   1.695   7.496   2.423
 3206SOL     OW 9961   1.841   7.623   2.825
 3206SOL    HW1 9962   1.880   7.538   2.789
 3206SOL    HW2 9963   1.743   7.625   2.806
 3207SOL     OW 9964   0.263   7.774   2.582
 3207SOL    HW1 9965   0.184   7.825   2.548
 3207SOL    HW2 9966   0.254   7.759   2.680
 3208SOL     OW 9967   1.014   7.684   2.833
 3208SOL    HW1 9968   1.006   7.648   2.740
 3208SOL    HW2 9969   1.012   7.608   2.898
 3209SOL     OW 9970   1.709   7.833   3.243
 3209SOL    HW1 9971   1.782   7.902   3.247
 3209SOL    HW2 9972   1.737   7.758   3.184
 3210SOL     OW 9973   0.672   7.651   3.351
 3210SOL    HW1 9974   0.762   7.635   3.311
 3210SOL    HW2 9975   0.680   7.656   3.450
 3211SOL     OW 9976   0.075   7.793   1.895
 3211SOL    HW1 9977  -0.017   7.765   1.866
 3211SOL    HW2 9978   0.106   7.870   1.839
 3212SOL     OW 9979   0.072   7.614   2.180
 3212SOL    HW1 9980   0.055   7.697   2.126
 3212SOL    HW2 9981   0.162   7.577   2.158
 3213SOL     OW 9982   1.225   7.773   2.311
 3213SOL    HW1 9983   1.290   7.699   2.300
 3213SOL    HW2 9984   1.245   7.823   2.395
 3214SOL     OW 9985   1.777   7.790   3.504
 3214SOL    HW1 9986   1.760   7.821   3.410
 3214SOL    HW2 9987   1.693   7.753   3.542
 3215SOL     OW 9988   1.824   7.640   3.089
 3215SOL    HW1 9989   1.820   7.550   3.133
 3215SOL    HW2 9990   1.827   7.629   2.990
 3216SOL     OW 9991   1.424   7.662   2.974
 3216SOL    HW1 9992   1.476   7.597   3.029
 3216SOL    HW2 9993   1.375   7.725   3.035
 3217SOL     OW 9994   1.001   7.482   3.016
 3217SOL    HW1 9995   0.938   7.410   2.985
 3217SOL    HW2 9996   1.094   7.446   3.016
 3218SOL     OW 9997   1.352   7.500   2.030
 3218SOL    HW1 9998   1.387   7.459   1.946
 3218SOL    HW2 9999   1.262   7.462   2.050
 3219SOL     OW10000   1.593   7.669   2.744
 3219SOL    HW110001   1.509   7.668   2.798
 3219SOL    HW210002   1.595   7.752   2.688
 3220SOL     OW10003   0.225   7.723   4.720
 3220SOL    HW110004   0.260   7.706   4.812
 3220SOL    HW210005   0.137   7.678   4.708
 3221SOL     OW10006   0.019   7.816   4.371
 3221SOL    HW110007  -0.063   7.859   4.410
 3221SOL    HW210008  -0.009   7.743   4.308
 3222SOL     OW10009   0.438   7.840   5.223
 3222SOL    HW110010   0.520   7.784   5.232
 3222SOL    HW210011   0.357   7.782   5.227
 3223SOL     OW10012   1.594   7.562   5.204
 3223SOL    HW110013   1.576   7.629   5.132
 3223SOL    HW210014   1.591   7.608   5.293
 3224SOL     OW10015   0.809   7.452   4.226
 3224SOL    HW110016   0.849   7.543   4.217
 3224SOL    HW210017   0.709   7.460   4.232
 3225SOL     OW10018   0.317   7.699   5.525
 3225SOL    HW110019   0.388   7.770   5.531
 3225SOL    HW210020   0.229   7.738   5.553
 3226SOL     OW10021   1.281   7.793   4.668
 3226SOL    HW110022   1.195   7.743   4.655
 3226SOL    HW210023   1.343   7.739   4.724
 3227SOL     OW10024   0.865   7.796   3.919
 3227SOL    HW110025   0.924   7.859   3.870
 3227SOL    HW210026   0.884   7.702   3.890
 3228SOL     OW10027   0.550   7.644   4.609
 3228SOL    HW110028   0.545   7.639   4.709
 3228SOL    HW210029   0.552   7.740   4.580
 3229SOL     OW10030   0.202   7.733   5.222
 3229SOL    HW110031   0.122   7.793   5.209
 3229SOL    HW210032   0.192   7.684   5.308
 3230SOL     OW10033   1.400   7.555   4.150
 3230SOL    HW110034   1.376   7.518   4.060
 3230SOL    HW210035   1.499   7.571   4.154
 3231SOL     OW10036   1.547   7.670   5.453
 3231SOL    HW110037   1.542   7.707   5.545
 3231SOL    HW210038   1.475   7.601   5.441
 3232SOL     OW10039   0.614   7.570   3.841
 3232SOL    HW110040   0.712   7.548   3.848
 3232SOL    HW210041   0.583   7.553   3.748
 3233SOL     OW10042   0.781   7.712   5.473
 3233SOL    HW110043   0.848   7.651   5.516
 3233SOL    HW210044   0.708   7.731   5.538
 3234SOL     OW10045   0.539   7.512   4.236
 3234SOL    HW110046   0.458   7.513   4.294
 3234SOL    HW210047   0.542   7.595   4.181
 3235SOL     OW10048   0.297   7.483   3.895
 3235SOL    HW110049   0.346   7.567   3.874
 3235SOL    HW210050   0.359   7.418   3.940
 3236SOL     OW10051   0.935   7.684   4.204
 3236SOL    HW110052   0.887   7.725   4.126
 3236SOL    HW210053   1.034   7.682   4.185
 3237SOL     OW10054   0.561   7.670   4.871
 3237SOL    HW110055   0.599   7.586   4.908
 3237SOL    HW210056   0.473   7.689   4.915
 3238SOL     OW10057   1.017   7.487   4.477
 3238SOL    HW110058   0.945   7.492   4.408
 3238SOL    HW210059   0.993   7.418   4.546
 3239SOL     OW10060   0.527   7.704   4.052
 3239SOL    HW110061   0.554   7.645   3.977
 3239SOL    HW210062   0.527   7.799   4.021
 3240SOL     OW10063   0.915   7.537   5.126
 3240SOL    HW110064   0.940   7.517   5.031
 3240SOL    HW210065   0.987   7.593   5.168
 3241SOL     OW10066   1.013   7.553   5.494
 3241SOL    HW110067   1.019   7.638   5.442
 3241SOL    HW210068   1.045   7.477   5.437
 3242SOL     OW10069   0.504   7.498   5.464
 3242SOL    HW110070   0.462   7.441   5.394
 3242SOL    HW210071   0.438   7.567   5.496
 3243SOL     OW10072   0.307   7.661   4.955
 3243SOL    HW110073   0.284   7.698   5.045
 3243SOL    HW210074   0.277   7.566   4.949
 3244SOL     OW10075   0.307   7.511   4.342
 3244SOL    HW110076   0.296   7.605   4.375
 3244SOL    HW210077   0.302   7.448   4.419
 3245SOL     OW10078   1.622   7.815   4.098
 3245SOL    HW110079   1.624   7.739   4.162
 3245SOL    HW210080   1.574   7.892   4.138
 3246SOL     OW10081   1.540   7.722   3.849
 3246SOL    HW110082   1.479   7.647   3.872
 3246SOL    HW210083   1.562   7.774   3.932
 3247SOL     OW10084   1.160   7.655   5.201
 3247SOL    HW110085   1.160   7.719   5.278
 3247SOL    HW210086   1.188   7.703   5.118
 3248SOL     OW10087   1.726   7.583   4.247
 3248SOL    HW110088   1.799   7.566   4.180
 3248SOL    HW210089   1.695   7.496   4.285
 3249SOL     OW10090   1.841   7.623   4.687
 3249SOL    HW110091   1.880   7.538   4.651
 3249SOL    HW210092   1.743   7.625   4.668
 3250SOL     OW10093   0.263   7.774   4.444
 3250SOL    HW110094   0.184   7.825   4.410
 3250SOL    HW210095   0.254   7.759   4.542
 3251SOL     OW10096   1.014   7.684   4.695
 3251SOL    HW110097   1.006   7.648   4.602
 3251SOL    HW210098   1.012   7.608   4.760
 3252SOL     OW10099   1.709   7.833   5.105
 3252SOL    HW110100   1.782   7.902   5.109
 3252SOL    HW210101   1.737   7.758   5.046
 3253SOL     OW10102   0.672   7.651   5.213
 3253SOL    HW110103   0.762   7.635   5.173
 3253SOL    HW210104   0.680   7.656   5.312
 3254SOL     OW10105   0.075   7.793   3.757
 3254SOL    HW110106  -0.017   7.765   3.728
 3254SOL    HW210107   0.106   7.870   3.701
 3255SOL     OW10108   0.072   7.614   4.042
 3255SOL    HW110109   0.055   7.697   3.988
 3255SOL    HW210110   0.162   7.577   4.020
 3256SOL     OW10111   1.225   7.773   4.173
 3256SOL    HW110112   1.290   7.699   4.162
 3256SOL    HW210113   1.245   7.823   4.257
 3257SOL     OW10114   1.777   7.790   5.366
 3257SOL    HW110115   1.760   7.821   5.272
 3257SOL    HW210116   1.693   7.753   5.404
 3258SOL     OW10117   1.824   7.640   4.951
 3258SOL    HW110118   1.820   7.550   4.995
 3258SOL    HW210119   1.827   7.629   4.852
 3259SOL     OW10120   1.424   7.662   4.836
 3259SOL    HW110121   1.476   7.597   4.891
 3259SOL    HW210122   1.375   7.725   4.897
 3260SOL     OW10123   1.001   7.482   4.878
 3260SOL    HW110124   0.938   7.410   4.847
 3260SOL    HW210125   1.094   7.446   4.878
 3261SOL     OW10126   1.352   7.500   3.892
 3261SOL    HW110127   1.387   7.459   3.808
 3261SOL    HW210128   1.262   7.462   3.912
 3262SOL     OW10129   1.593   7.669   4.606
 3262SOL    HW110130   1.509   7.668   4.660
 3262SOL    HW210131   1.595   7.752   4.550
 3263SOL     OW10132   0.225   7.723   6.582
 3263SOL    HW110133   0.260   7.706   6.674
 3263SOL    HW210134   0.137   7.678   6.570
 3264SOL     OW10135   0.019   7.816   6.233
 3264SOL    HW110136  -0.063   7.859   6.272
 3264SOL    HW210137  -0.009   7.743   6.170
 3265SOL     OW10138   0.809   7.452   6.088
 3265SOL    HW110139   0.849   7.543   6.079
 3265SOL    HW210140   0.709   7.460   6.094
 3266SOL     OW10141   1.281   7.793   6.530
 3266SOL    HW110142   1.195   7.743   6.517
 3266SOL    HW210143   1.343   7.739   6.586
 3267SOL     OW10144   0.865   7.796   5.781
 3267SOL    HW110145   0.924   7.859   5.732
 3267SOL    HW210146   0.884   7.702   5.752
 3268SOL     OW10147   0.550   7.644   6.471
 3268SOL    HW110148   0.545   7.639   6.571
 3268SOL    HW210149   0.552   7.740   6.442
 3269SOL     OW10150   1.400   7.555   6.012
 3269SOL    HW110151   1.376   7.518   5.922
 3269SOL    HW210152   1.499   7.571   6.016
 3270SOL     OW10153   0.614   7.570   5.703
 3270SOL    HW110154   0.712   7.548   5.710
 3270SOL    HW210155   0.583   7.553   5.610
 3271SOL     OW10156   0.539   7.512   6.098
 3271SOL    HW110157   0.458   7.513   6.156
 3271SOL    HW210158   0.542   7.595   6.043
 3272SOL     OW10159   0.297   7.483   5.757
 3272SOL    HW110160   0.346   7.567   5.736
 3272SOL    HW210161   0.359   7.418   5.802
 3273SOL     OW10162   0.935   7.684   6.066
 3273SOL    HW110163   0.887   7.725   5.988
 3273SOL    HW210164   1.034   7.682   6.047
 3274SOL     OW10165   0.561   7.670   6.733
 3274SOL    HW110166   0.599   7.586   6.770
 3274SOL    HW210167   0.473   7.689   6.777
 3275SOL     OW10168   1.017   7.487   6.339
 3275SOL    HW110169   0.945   7.492   6.270
 3275SOL    HW210170   0.993   7.418   6.408
 3276SOL     OW10171   0.527   7.704   5.914
 3276SOL    HW110172   0.554   7.645   5.839
 3276SOL    HW210173   0.527   7.799   5.883
 3277SOL     OW10174   0.307   7.511   6.204
 3277SOL    HW110175   0.296   7.605   6.237
 3277SOL    HW210176   0.302   7.448   6.281
 3278SOL     OW10177   1.622   7.815   5.960
 3278SOL    HW110178   1.624   7.739   6.024
 3278SOL    HW210179   1.574   7.892   6.000
 3279SOL     OW10180   1.540   7.722   5.711
 3279SOL    HW110181   1.479   7.647   5.734
 3279SOL    HW210182   1.562   7.774   5.794
 3280SOL     OW10183   1.726   7.583   6.109
 3280SOL    HW110184   1.799   7.566   6.042
 3280SOL    HW210185   1.695   7.496   6.147
 3281SOL     OW10186   1.841   7.623   6.549
 3281SOL    HW110187   1.880   7.538   6.513
 3281SOL    HW210188   1.743   7.625   6.530
 3282SOL     OW10189   0.263   7.774   6.306
 3282SOL    HW110190   0.184   7.825   6.272
 3282SOL    HW210191   0.254   7.759   6.404
 3283SOL     OW10192   1.014   7.684   6.557
 3283SOL    HW110193   1.006   7.648   6.464
 3283SOL    HW210194   1.012   7.608   6.622
 3284SOL     OW10195   0.075   7.793   5.619
 3284SOL    HW110196  -0.017   7.765   5.590
 3284SOL    HW210197   0.106   7.870   5.563
 3285SOL     OW10198   0.072   7.614   5.904
 3285SOL    HW110199   0.055   7.697   5.850
 3285SOL    HW210200   0.162   7.577   5.882
 3286SOL     OW10201   1.225   7.773   6.035
 3286SOL    HW110202   1.290   7.699   6.024
 3286SOL    HW210203   1.245   7.823   6.119
 3287SOL     OW10204   1.824   7.640   6.813
 3287SOL    HW110205   1.820   7.550   6.857
 3287SOL    HW210206   1.827   7.629   6.714
 3288SOL     OW10207   1.424   7.662   6.698
 3288SOL    HW110208   1.476   7.597   6.753
 3288SOL    HW210209   1.375   7.725   6.759
 3289SOL     OW10210   1.001   7.482   6.740
 3289SOL    HW110211   0.938   7.410   6.709
 3289SOL    HW210212   1.094   7.446   6.740
 3290SOL     OW10213   1.352   7.500   5.754
 3290SOL    HW110214   1.387   7.459   5.670
 3290SOL    HW210215   1.262   7.462   5.774
 3291SOL     OW10216   1.593   7.669   6.468
 3291SOL    HW110217   1.509   7.668   6.522
 3291SOL    HW210218   1.595   7.752   6.412
 3292SOL     OW10219   2.092   0.628   0.113
 3292SOL    HW110220   1.999   0.626   0.150
 3292SOL    HW210221   2.093   0.589   0.021
 3293SOL     OW10222   2.087   0.275   0.996
 3293SOL    HW110223   2.122   0.258   1.088
 3293SOL    HW210224   1.999   0.230   0.984
 3294SOL     OW10225   1.881   0.368   0.647
 3294SOL    HW110226   1.799   0.411   0.686
 3294SOL    HW210227   1.853   0.295   0.584
 3295SOL     OW10228   2.431   1.275   1.165
 3295SOL    HW110229   2.338   1.268   1.128
 3295SOL    HW210230   2.442   1.364   1.209
 3296SOL     OW10231   3.417   1.511   0.703
 3296SOL    HW110232   3.360   1.495   0.784
 3296SOL    HW210233   3.358   1.521   0.623
 3297SOL     OW10234   2.997   0.703   0.717
 3297SOL    HW110235   3.054   0.781   0.692
 3297SOL    HW210236   2.937   0.729   0.793
 3298SOL     OW10237   2.630   1.144   1.023
 3298SOL    HW110238   2.552   1.161   1.083
 3298SOL    HW210239   2.664   1.231   0.987
 3299SOL     OW10240   2.712   0.798   1.823
 3299SOL    HW110241   2.708   0.874   1.888
 3299SOL    HW210242   2.734   0.834   1.732
 3300SOL     OW10243   2.547   1.012   0.665
 3300SOL    HW110244   2.616   0.996   0.735
 3300SOL    HW210245   2.474   1.069   0.703
 3301SOL     OW10246   2.548   1.161   1.803
 3301SOL    HW110247   2.608   1.240   1.817
 3301SOL    HW210248   2.462   1.192   1.762
 3302SOL     OW10249   2.197   1.435   1.061
 3302SOL    HW110250   2.119   1.404   1.008
 3302SOL    HW210251   2.255   1.493   1.004
 3303SOL     OW10252   3.322   1.505   1.339
 3303SOL    HW110253   3.346   1.599   1.365
 3303SOL    HW210254   3.306   1.451   1.421
 3304SOL     OW10255   2.300   0.392   1.499
 3304SOL    HW110256   2.382   0.336   1.508
 3304SOL    HW210257   2.219   0.334   1.503
 3305SOL     OW10258   3.465   0.447   0.737
 3305SOL    HW110259   3.391   0.493   0.687
 3305SOL    HW210260   3.516   0.515   0.790
 3306SOL     OW10261   2.093   1.713   0.483
 3306SOL    HW110262   2.127   1.790   0.537
 3306SOL    HW210263   2.137   1.713   0.393
 3307SOL     OW10264   2.989   1.341   1.690
 3307SOL    HW110265   3.036   1.341   1.778
 3307SOL    HW210266   2.941   1.254   1.679
 3308SOL     OW10267   2.092   1.434   0.538
 3308SOL    HW110268   2.066   1.530   0.538
 3308SOL    HW210269   2.021   1.380   0.583
 3309SOL     OW10270   2.102   1.091   0.886
 3309SOL    HW110271   2.116   1.007   0.938
 3309SOL    HW210272   2.047   1.155   0.941
 3310SOL     OW10273   2.482   1.786   1.439
 3310SOL    HW110274   2.390   1.769   1.474
 3310SOL    HW210275   2.510   1.878   1.465
 3311SOL     OW10276   2.468   0.964   0.123
 3311SOL    HW110277   2.475   1.048   0.069
 3311SOL    HW210278   2.514   0.977   0.211
 3312SOL     OW10279   3.456   0.114   1.480
 3312SOL    HW110280   3.438   0.181   1.408
 3312SOL    HW210281   3.453   0.160   1.569
 3313SOL     OW10282   1.984   0.643   0.563
 3313SOL    HW110283   1.939   0.555   0.580
 3313SOL    HW210284   1.983   0.697   0.647
 3314SOL     OW10285   1.889   1.596   0.117
 3314SOL    HW110286   1.870   1.500   0.138
 3314SOL    HW210287   1.856   1.654   0.192
 3315SOL     OW10288   3.551   0.922   0.612
 3315SOL    HW110289   3.646   0.893   0.620
 3315SOL    HW210290   3.543   0.987   0.537
 3316SOL     OW10291   3.503   1.108   0.432
 3316SOL    HW110292   3.589   1.110   0.380
 3316SOL    HW210293   3.517   1.155   0.520
 3317SOL     OW10294   1.975   0.737   1.597
 3317SOL    HW110295   2.063   0.724   1.642
 3317SOL    HW210296   1.962   0.834   1.575
 3318SOL     OW10297   2.475   1.365   0.726
 3318SOL    HW110298   2.426   1.278   0.735
 3318SOL    HW210299   2.452   1.408   0.639
 3319SOL     OW10300   3.155   1.228   1.423
 3319SOL    HW110301   3.192   1.155   1.365
 3319SOL    HW210302   3.207   1.233   1.508
 3320SOL     OW10303   2.671   0.004   0.502
 3320SOL    HW110304   2.711   0.095   0.493
 3320SOL    HW210305   2.571   0.012   0.508
 3321SOL     OW10306   2.059   0.976   1.264
 3321SOL    HW110307   2.148   0.931   1.250
 3321SOL    HW210308   1.986   0.911   1.245
 3322SOL     OW10309   3.049   1.792   1.616
 3322SOL    HW110310   3.073   1.852   1.540
 3322SOL    HW210311   3.056   1.697   1.586
 3323SOL     OW10312   2.179   0.251   1.801
 3323SOL    HW110313   2.250   0.322   1.807
 3323SOL    HW210314   2.091   0.290   1.829
 3324SOL     OW10315   3.328   1.417   0.953
 3324SOL    HW110316   3.269   1.423   1.033
 3324SOL    HW210317   3.313   1.329   0.907
 3325SOL     OW10318   3.529   1.714   0.572
 3325SOL    HW110319   3.488   1.691   0.484
 3325SOL    HW210320   3.511   1.640   0.637
 3326SOL     OW10321   2.460   0.729   0.270
 3326SOL    HW110322   2.484   0.798   0.202
 3326SOL    HW210323   2.382   0.762   0.324
 3327SOL     OW10324   3.143   0.345   0.944
 3327SOL    HW110325   3.057   0.295   0.931
 3327SOL    HW210326   3.205   0.291   1.000
 3328SOL     OW10327   3.438   1.662   0.307
 3328SOL    HW110328   3.527   1.708   0.310
 3328SOL    HW210329   3.417   1.638   0.212
 3329SOL     OW10330   2.669   0.605   1.465
 3329SOL    HW110331   2.622   0.602   1.554
 3329SOL    HW210332   2.618   0.550   1.399
 3330SOL     OW10333   3.256   0.469   1.674
 3330SOL    HW110334   3.236   0.512   1.762
 3330SOL    HW210335   3.334   0.407   1.683
 3331SOL     OW10336   2.835   0.890   1.572
 3331SOL    HW110337   2.881   0.806   1.543
 3331SOL    HW210338   2.779   0.924   1.497
 3332SOL     OW10339   2.853   0.410   1.242
 3332SOL    HW110340   2.776   0.444   1.296
 3332SOL    HW210341   2.819   0.359   1.163
 3333SOL     OW10342   2.903   0.701   0.429
 3333SOL    HW110343   2.929   0.697   0.525
 3333SOL    HW210344   2.818   0.650   0.415
 3334SOL     OW10345   1.938   0.811   0.789
 3334SOL    HW110346   2.037   0.799   0.798
 3334SOL    HW210347   1.914   0.906   0.810
 3335SOL     OW10348   1.992   1.821   1.571
 3335SOL    HW110349   1.982   1.806   1.670
 3335SOL    HW210350   1.906   1.857   1.535
 3336SOL     OW10351   3.581   0.585   1.831
 3336SOL    HW110352   3.555   0.674   1.795
 3336SOL    HW210353   3.579   0.517   1.758
 3337SOL     OW10354   3.224   1.144   0.545
 3337SOL    HW110355   3.307   1.115   0.497
 3337SOL    HW210356   3.175   1.211   0.489
 3338SOL     OW10357   2.412   0.196   0.885
 3338SOL    HW110358   2.407   0.191   0.985
 3338SOL    HW210359   2.414   0.292   0.856
 3339SOL     OW10360   2.870   1.456   0.477
 3339SOL    HW110361   2.824   1.528   0.425
 3339SOL    HW210362   2.866   1.476   0.575
 3340SOL     OW10363   2.213   1.801   0.853
 3340SOL    HW110364   2.263   1.715   0.859
 3340SOL    HW210365   2.278   1.878   0.850
 3341SOL     OW10366   3.657   1.066   0.873
 3341SOL    HW110367   3.595   1.051   0.797
 3341SOL    HW210368   3.605   1.077   0.958
 3342SOL     OW10369   3.089   1.550   1.506
 3342SOL    HW110370   3.095   1.473   1.570
 3342SOL    HW210371   3.037   1.524   1.426
 3343SOL     OW10372   2.183   0.943   0.242
 3343SOL    HW110373   2.265   0.982   0.200
 3343SOL    HW210374   2.156   0.861   0.193
 3344SOL     OW10375   3.320   0.735   0.728
 3344SOL    HW110376   3.315   0.670   0.803
 3344SOL    HW210377   3.400   0.794   0.741
 3345SOL     OW10378   2.323   1.266   1.727
 3345SOL    HW110379   2.273   1.267   1.641
 3345SOL    HW210380   2.260   1.248   1.803
 3346SOL     OW10381   2.064   0.285   1.498
 3346SOL    HW110382   1.984   0.345   1.485
 3346SOL    HW210383   2.054   0.236   1.584
 3347SOL     OW10384   2.326   1.743   0.323
 3347SOL    HW110385   2.359   1.782   0.409
 3347SOL    HW210386   2.402   1.736   0.258
 3348SOL     OW10387   2.111   1.785   1.241
 3348SOL    HW110388   2.168   1.720   1.291
 3348SOL    HW210389   2.095   1.752   1.148
 3349SOL     OW10390   2.802   1.698   0.904
 3349SOL    HW110391   2.882   1.641   0.925
 3349SOL    HW210392   2.753   1.658   0.827
 3350SOL     OW10393   2.244   0.700   0.480
 3350SOL    HW110394   2.289   0.610   0.477
 3350SOL    HW210395   2.150   0.689   0.513
 3351SOL     OW10396   3.409   0.222   1.729
 3351SOL    HW110397   3.404   0.259   1.821
 3351SOL    HW210398   3.337   0.153   1.717
 3352SOL     OW10399   2.476   0.122   0.117
 3352SOL    HW110400   2.574   0.100   0.124
 3352SOL    HW210401   2.445   0.105   0.024
 3353SOL     OW10402   2.643   0.264   1.749
 3353SOL    HW110403   2.710   0.203   1.792
 3353SOL    HW210404   2.570   0.283   1.814
 3354SOL     OW10405   2.750   1.514   1.195
 3354SOL    HW110406   2.727   1.489   1.101
 3354SOL    HW210407   2.811   1.445   1.234
 3355SOL     OW10408   3.213   0.590   1.433
 3355SOL    HW110409   3.241   0.547   1.518
 3355SOL    HW210410   3.238   0.686   1.434
 3356SOL     OW10411   2.665   1.402   0.924
 3356SOL    HW110412   2.755   1.416   0.882
 3356SOL    HW210413   2.594   1.404   0.853
 3357SOL     OW10414   2.784   0.503   0.899
 3357SOL    HW110415   2.759   0.494   0.803
 3357SOL    HW210416   2.832   0.421   0.930
 3358SOL     OW10417   2.401   0.064   0.512
 3358SOL    HW110418   2.320   0.065   0.570
 3358SOL    HW210419   2.404   0.147   0.457
 3359SOL     OW10420   2.159   0.035   0.171
 3359SOL    HW110421   2.208   0.119   0.150
 3359SOL    HW210422   2.221  -0.030   0.216
 3360SOL     OW10423   2.797   0.236   0.480
 3360SOL    HW110424   2.749   0.277   0.402
 3360SOL    HW210425   2.896   0.234   0.461
 3361SOL     OW10426   2.938   0.683   1.464
 3361SOL    HW110427   2.858   0.622   1.467
 3361SOL    HW210428   3.019   0.630   1.440
 3362SOL     OW10429   3.089   1.570   0.793
 3362SOL    HW110430   3.110   1.644   0.728
 3362SOL    HW210431   3.157   1.570   0.866
 3363SOL     OW10432   2.321   1.152   0.741
 3363SOL    HW110433   2.250   1.125   0.806
 3363SOL    HW210434   2.295   1.124   0.648
 3364SOL     OW10435   3.133   1.797   0.591
 3364SOL    HW110436   3.177   1.861   0.527
 3364SOL    HW210437   3.083   1.849   0.661
 3365SOL     OW10438   1.940   0.556   1.386
 3365SOL    HW110439   2.032   0.555   1.345
 3365SOL    HW210440   1.934   0.630   1.453
 3366SOL     OW10441   2.423   0.222   1.147
 3366SOL    HW110442   2.461   0.138   1.184
 3366SOL    HW210443   2.335   0.241   1.191
 3367SOL     OW10444   2.728   0.454   0.642
 3367SOL    HW110445   2.696   0.526   0.580
 3367SOL    HW210446   2.752   0.373   0.589
 3368SOL     OW10447   2.879   0.039   0.753
 3368SOL    HW110448   2.807   0.044   0.684
 3368SOL    HW210449   2.855  -0.030   0.822
 3369SOL     OW10450   3.291   1.173   0.867
 3369SOL    HW110451   3.236   1.089   0.860
 3369SOL    HW210452   3.317   1.202   0.775
 3370SOL     OW10453   3.328   0.590   0.992
 3370SOL    HW110454   3.298   0.495   0.999
 3370SOL    HW210455   3.401   0.606   1.058
 3371SOL     OW10456   3.719   0.833   0.377
 3371SOL    HW110457   3.761   0.769   0.441
 3371SOL    HW210458   3.681   0.782   0.299
 3372SOL     OW10459   2.350   1.385   0.174
 3372SOL    HW110460   2.263   1.370   0.221
 3372SOL    HW210461   2.333   1.411   0.079
 3373SOL     OW10462   3.526   1.280   0.657
 3373SOL    HW110463   3.625   1.288   0.671
 3373SOL    HW210464   3.481   1.364   0.688
 3374SOL     OW10465   2.389   0.256   0.328
 3374SOL    HW110466   2.416   0.197   0.253
 3374SOL    HW210467   2.389   0.351   0.297
 3375SOL     OW10468   3.616   1.223   1.588
 3375SOL    HW110469   3.707   1.184   1.575
 3375SOL    HW210470   3.624   1.319   1.612
 3376SOL     OW10471   2.926   1.347   1.340
 3376SOL    HW110472   2.846   1.324   1.395
 3376SOL    HW210473   3.009   1.321   1.389
 3377SOL     OW10474   3.454   1.629   1.625
 3377SOL    HW110475   3.481   1.663   1.535
 3377SOL    HW210476   3.533   1.591   1.671
 3378SOL     OW10477   2.973   1.195   1.100
 3378SOL    HW110478   2.933   1.239   1.181
 3378SOL    HW210479   2.932   1.232   1.017
 3379SOL     OW10480   3.500   1.099   1.079
 3379SOL    HW110481   3.505   1.180   1.138
 3379SOL    HW210482   3.414   1.101   1.028
 3380SOL     OW10483   2.777   0.089   1.402
 3380SOL    HW110484   2.802   0.069   1.307
 3380SOL    HW210485   2.849   0.145   1.444
 3381SOL     OW10486   2.842   1.116   1.719
 3381SOL    HW110487   2.743   1.122   1.729
 3381SOL    HW210488   2.865   1.036   1.663
 3382SOL     OW10489   2.567   1.050   0.368
 3382SOL    HW110490   2.553   1.057   0.467
 3382SOL    HW210491   2.651   0.999   0.350
 3383SOL     OW10492   2.272   0.813   1.251
 3383SOL    HW110493   2.358   0.825   1.301
 3383SOL    HW210494   2.230   0.726   1.278
 3384SOL     OW10495   3.136   0.386   1.262
 3384SOL    HW110496   3.157   0.460   1.326
 3384SOL    HW210497   3.047   0.403   1.219
 3385SOL     OW10498   1.926   1.564   1.331
 3385SOL    HW110499   1.880   1.646   1.297
 3385SOL    HW210500   2.024   1.583   1.340
 3386SOL     OW10501   2.229   1.100   0.501
 3386SOL    HW110502   2.222   1.183   0.445
 3386SOL    HW210503   2.233   1.020   0.441
 3387SOL     OW10504   2.428   0.537   0.865
 3387SOL    HW110505   2.440   0.603   0.791
 3387SOL    HW210506   2.474   0.571   0.948
 3388SOL     OW10507   3.114   1.348   0.388
 3388SOL    HW110508   3.164   1.425   0.428
 3388SOL    HW210509   3.019   1.350   0.420
 3389SOL     OW10510   3.134   1.445   1.142
 3389SOL    HW110511   3.181   1.458   1.229
 3389SOL    HW210512   3.068   1.371   1.151
 3390SOL     OW10513   3.444   0.639   0.472
 3390SOL    HW110514   3.413   0.700   0.545
 3390SOL    HW210515   3.494   0.691   0.403
 3391SOL     OW10516   2.216   1.510   1.329
 3391SOL    HW110517   2.195   1.466   1.242
 3391SOL    HW210518   2.313   1.536   1.332
 3392SOL     OW10519   2.264   0.751   1.598
 3392SOL    HW110520   2.332   0.806   1.551
 3392SOL    HW210521   2.304   0.663   1.625
 3393SOL     OW10522   3.449   0.779   1.670
 3393SOL    HW110523   3.357   0.817   1.665
 3393SOL    HW210524   3.509   0.826   1.605
 3394SOL     OW10525   2.875   0.105   1.770
 3394SOL    HW110526   2.881   0.190   1.718
 3394SOL    HW210527   2.907   0.029   1.713
 3395SOL     OW10528   2.366   0.050   1.740
 3395SOL    HW110529   2.324  -0.007   1.670
 3395SOL    HW210530   2.300   0.119   1.772
 3396SOL     OW10531   2.435   0.870   1.029
 3396SOL    HW110532   2.479   0.959   1.020
 3396SOL    HW210533   2.372   0.870   1.106
 3397SOL     OW10534   3.222   0.862   1.045
 3397SOL    HW110535   3.147   0.862   0.979
 3397SOL    HW210536   3.259   0.770   1.054
 3398SOL     OW10537   2.169   0.213   1.231
 3398SOL    HW110538   2.146   0.250   1.321
 3398SOL    HW210539   2.139   0.118   1.225
 3399SOL     OW10540   1.899   1.310   1.282
 3399SOL    HW110541   1.952   1.261   1.350
 3399SOL    HW210542   1.921   1.408   1.287
 3400SOL     OW10543   2.594   0.634   1.064
 3400SOL    HW110544   2.653   0.608   0.988
 3400SOL    HW210545   2.566   0.730   1.053
 3401SOL     OW10546   3.590   0.935   1.854
 3401SOL    HW110547   3.544   0.928   1.765
 3401SOL    HW210548   3.528   0.979   1.920
 3402SOL     OW10549   2.169   0.063   0.618
 3402SOL    HW110550   2.158   0.157   0.651
 3402SOL    HW210551   2.164   0.000   0.695
 3403SOL     OW10552   2.885   0.766   0.966
 3403SOL    HW110553   2.900   0.787   1.062
 3403SOL    HW210554   2.855   0.671   0.957
 3404SOL     OW10555   2.842   1.573   1.700
 3404SOL    HW110556   2.822   1.617   1.612
 3404SOL    HW210557   2.881   1.482   1.684
 3405SOL     OW10558   3.721   1.518   1.605
 3405SOL    HW110559   3.735   1.545   1.510
 3405SOL    HW210560   3.804   1.540   1.658
 3406SOL     OW10561   2.212   0.898   1.804
 3406SOL    HW110562   2.288   0.942   1.852
 3406SOL    HW210563   2.247   0.851   1.722
 3407SOL     OW10564   2.930   1.333   0.849
 3407SOL    HW110565   2.937   1.249   0.794
 3407SOL    HW210566   2.992   1.402   0.813
 3408SOL     OW10567   2.181   0.810   0.949
 3408SOL    HW110568   2.274   0.846   0.954
 3408SOL    HW210569   2.175   0.725   1.001
 3409SOL     OW10570   2.201   0.509   1.006
 3409SOL    HW110571   2.149   0.426   0.989
 3409SOL    HW210572   2.278   0.514   0.942
 3410SOL     OW10573   3.000   0.380   1.678
 3410SOL    HW110574   2.955   0.443   1.742
 3410SOL    HW210575   3.093   0.411   1.661
 3411SOL     OW10576   3.022   0.207   1.477
 3411SOL    HW110577   3.022   0.271   1.554
 3411SOL    HW210578   3.050   0.255   1.394
 3412SOL     OW10579   1.870   1.326   0.200
 3412SOL    HW110580   1.777   1.347   0.169
 3412SOL    HW210581   1.880   1.227   0.213
 3413SOL     OW10582   1.950   1.801   0.927
 3413SOL    HW110583   1.908   1.715   0.900
 3413SOL    HW210584   2.044   1.804   0.893
 3414SOL     OW10585   2.366   1.568   0.910
 3414SOL    HW110586   2.432   1.642   0.919
 3414SOL    HW210587   2.410   1.489   0.868
 3415SOL     OW10588   2.864   0.796   1.238
 3415SOL    HW110589   2.905   0.764   1.324
 3415SOL    HW210590   2.768   0.769   1.235
 3416SOL     OW10591   1.902   0.544   1.114
 3416SOL    HW110592   1.987   0.511   1.073
 3416SOL    HW210593   1.915   0.559   1.212
 3417SOL     OW10594   2.051   0.520   1.722
 3417SOL    HW110595   2.110   0.480   1.652
 3417SOL    HW210596   1.993   0.591   1.681
 3418SOL     OW10597   3.231   0.950   1.660
 3418SOL    HW110598   3.270   1.039   1.680
 3418SOL    HW210599   3.241   0.930   1.563
 3419SOL     OW10600   3.519   0.604   1.206
 3419SOL    HW110601   3.481   0.535   1.268
 3419SOL    HW210602   3.601   0.568   1.162
 3420SOL     OW10603   2.114   1.564   1.744
 3420SOL    HW110604   2.084   1.621   1.820
 3420SOL    HW210605   2.107   1.467   1.770
 3421SOL     OW10606   2.533   0.464   1.269
 3421SOL    HW110607   2.499   0.375   1.239
 3421SOL    HW210608   2.559   0.518   1.189
 3422SOL     OW10609   2.792   1.678   1.465
 3422SOL    HW110610   2.768   1.660   1.370
 3422SOL    HW210611   2.822   1.772   1.475
 3423SOL     OW10612   2.335   0.500   0.191
 3423SOL    HW110613   2.396   0.580   0.195
 3423SOL    HW210614   2.240   0.531   0.198
 3424SOL     OW10615   2.021   1.137   1.466
 3424SOL    HW110616   2.043   1.076   1.542
 3424SOL    HW210617   2.031   1.088   1.380
 3425SOL     OW10618   3.209   1.059   1.234
 3425SOL    HW110619   3.233   0.996   1.160
 3425SOL    HW210620   3.119   1.099   1.216
 3426SOL     OW10621   3.621   1.747   1.154
 3426SOL    HW110622   3.682   1.777   1.081
 3426SOL    HW210623   3.583   1.658   1.132
 3427SOL     OW10624   3.114   1.731   1.128
 3427SOL    HW110625   3.198   1.736   1.074
 3427SOL    HW210626   3.091   1.635   1.146
 3428SOL     OW10627   1.945   1.258   1.022
 3428SOL    HW110628   1.940   1.257   1.122
 3428SOL    HW210629   1.862   1.217   0.984
 3429SOL     OW10630   2.550   1.662   1.716
 3429SOL    HW110631   2.494   1.743   1.725
 3429SOL    HW210632   2.602   1.666   1.630
 3430SOL     OW10633   3.588   0.135   0.523
 3430SOL    HW110634   3.661   0.118   0.456
 3430SOL    HW210635   3.557   0.048   0.561
 3431SOL     OW10636   3.250   1.573   0.477
 3431SOL    HW110637   3.317   1.585   0.403
 3431SOL    HW210638   3.210   1.662   0.500
 3432SOL     OW10639   1.992   1.794   1.851
 3432SOL    HW110640   1.951   1.720   1.904
 3432SOL    HW210641   2.056   1.845   1.909
 3433SOL     OW10642   3.142   0.927   0.672
 3433SOL    HW110643   3.202   0.846   0.674
 3433SOL    HW210644   3.182   0.996   0.612
 3434SOL     OW10645   2.692   1.273   1.422
 3434SOL    HW110646   2.687   1.306   1.517
 3434SOL    HW210647   2.606   1.292   1.376
 3435SOL     OW10648   2.534   1.616   0.154
 3435SOL    HW110649   2.543   1.626   0.055
 3435SOL    HW210650   2.494   1.527   0.175
 3436SOL     OW10651   3.512   1.720   1.394
 3436SOL    HW110652   3.565   1.730   1.310
 3436SOL    HW210653   3.485   1.810   1.428
 3437SOL     OW10654   3.703   0.175   0.963
 3437SOL    HW110655   3.742   0.090   0.927
 3437SOL    HW210656   3.605   0.177   0.944
 3438SOL     OW10657   2.125   0.326   0.720
 3438SOL    HW110658   2.046   0.377   0.686
 3438SOL    HW210659   2.116   0.311   0.818
 3439SOL     OW10660   2.684   1.002   1.372
 3439SOL    HW110661   2.724   1.001   1.280
 3439SOL    HW210662   2.694   1.094   1.412
 3440SOL     OW10663   2.778   0.910   0.291
 3440SOL    HW110664   2.841   0.948   0.223
 3440SOL    HW210665   2.818   0.827   0.330
 3441SOL     OW10666   2.234   1.288   1.490
 3441SOL    HW110667   2.221   1.381   1.456
 3441SOL    HW210668   2.150   1.236   1.477
 3442SOL     OW10669   3.476   1.292   1.289
 3442SOL    HW110670   3.536   1.295   1.369
 3442SOL    HW210671   3.401   1.356   1.302
 3443SOL     OW10672   2.901   1.098   0.696
 3443SOL    HW110673   2.831   1.051   0.750
 3443SOL    HW210674   2.960   1.030   0.653
 3444SOL     OW10675   2.876   0.236   0.971
 3444SOL    HW110676   2.868   0.200   0.878
 3444SOL    HW210677   2.874   0.160   1.036
 3445SOL     OW10678   2.452   1.487   0.491
 3445SOL    HW110679   2.494   1.429   0.421
 3445SOL    HW210680   2.408   1.566   0.447
 3446SOL     OW10681   3.571   0.385   1.381
 3446SOL    HW110682   3.644   0.454   1.385
 3446SOL    HW210683   3.599   0.310   1.322
 3447SOL     OW10684   2.117   1.348   0.290
 3447SOL    HW110685   2.021   1.349   0.263
 3447SOL    HW210686   2.129   1.401   0.374
 3448SOL     OW10687   1.967   1.013   1.726
 3448SOL    HW110688   1.890   0.980   1.780
 3448SOL    HW210689   2.052   0.983   1.768
 3449SOL     OW10690   2.534   0.203   1.489
 3449SOL    HW110691   2.624   0.187   1.449
 3449SOL    HW210692   2.542   0.208   1.588
 3450SOL     OW10693   1.937   0.345   0.033
 3450SOL    HW110694   1.845   0.317   0.004
 3450SOL    HW210695   1.968   0.422  -0.023
 3451SOL     OW10696   3.302   0.856   1.398
 3451SOL    HW110697   3.245   0.908   1.335
 3451SOL    HW210698   3.398   0.868   1.374
 3452SOL     OW10699   1.934   0.166   0.318
 3452SOL    HW110700   1.917   0.249   0.264
 3452SOL    HW210701   2.024   0.129   0.296
 3453SOL     OW10702   2.475   0.842   1.431
 3453SOL    HW110703   2.531   0.923   1.414
 3453SOL    HW210704   2.534   0.762   1.434
 3454SOL     OW10705   3.355   1.767   0.959
 3454SOL    HW110706   3.388   1.831   0.890
 3454SOL    HW210707   3.421   1.761   1.034
 3455SOL     OW10708   2.578   0.565   1.708
 3455SOL    HW110709   2.597   0.630   1.782
 3455SOL    HW210710   2.638   0.485   1.717
 3456SOL     OW10711   3.312   1.220   1.633
 3456SOL    HW110712   3.303   1.210   1.732
 3456SOL    HW210713   3.408   1.213   1.607
 3457SOL     OW10714   2.252   1.741   1.560
 3457SOL    HW110715   2.161   1.782   1.558
 3457SOL    HW210716   2.245   1.647   1.592
 3458SOL     OW10717   3.536   0.883   1.254
 3458SOL    HW110718   3.509   0.794   1.217
 3458SOL    HW210719   3.537   0.951   1.181
 3459SOL     OW10720   2.456   0.745   0.652
 3459SOL    HW110721   2.506   0.830   0.633
 3459SOL    HW210722   2.368   0.747   0.604
 3460SOL     OW10723   3.639   0.342   1.642
 3460SOL    HW110724   3.622   0.373   1.548
 3460SOL    HW210725   3.555   0.305   1.680
 3461SOL     OW10726   3.592   0.934   1.517
 3461SOL    HW110727   3.630   1.025   1.532
 3461SOL    HW210728   3.584   0.917   1.418
 3462SOL     OW10729   2.721   1.374   0.016
 3462SOL    HW110730   2.675   1.389   0.104
 3462SOL    HW210731   2.765   1.459  -0.014
 3463SOL     OW10732   2.523   1.790   0.953
 3463SOL    HW110733   2.477   1.878   0.940
 3463SOL    HW210734   2.622   1.802   0.946
 3464SOL     OW10735   2.721   0.956   0.861
 3464SOL    HW110736   2.775   0.887   0.909
 3464SOL    HW210737   2.689   1.025   0.927
 3465SOL     OW10738   3.723   1.569   0.851
 3465SOL    HW110739   3.652   1.557   0.781
 3465SOL    HW210740   3.724   1.490   0.911
 3466SOL     OW10741   2.083   1.314   1.844
 3466SOL    HW110742   2.018   1.241   1.823
 3466SOL    HW210743   2.087   1.328   1.942
 3467SOL     OW10744   1.941   1.240   0.653
 3467SOL    HW110745   1.940   1.193   0.741
 3467SOL    HW210746   2.023   1.212   0.602
 3468SOL     OW10747   2.534   1.391   1.624
 3468SOL    HW110748   2.456   1.341   1.662
 3468SOL    HW210749   2.531   1.486   1.655
 3469SOL     OW10750   3.686   0.192   1.227
 3469SOL    HW110751   3.682   0.102   1.271
 3469SOL    HW210752   3.689   0.181   1.128
 3470SOL     OW10753   2.290   0.424   0.520
 3470SOL    HW110754   2.320   0.352   0.458
 3470SOL    HW210755   2.251   0.384   0.603
 3471SOL     OW10756   3.567   1.487   1.104
 3471SOL    HW110757   3.474   1.462   1.077
 3471SOL    HW210758   3.593   1.437   1.186
 3472SOL     OW10759   2.179   0.547   1.280
 3472SOL    HW110760   2.217   0.488   1.352
 3472SOL    HW210761   2.219   0.521   1.192
 3473SOL     OW10762   2.674   1.586   0.687
 3473SOL    HW110763   2.706   1.596   0.593
 3473SOL    HW210764   2.595   1.524   0.689
 3474SOL     OW10765   3.286   0.214   1.112
 3474SOL    HW110766   3.338   0.149   1.167
 3474SOL    HW210767   3.237   0.277   1.173
 3475SOL     OW10768   2.863   0.034   1.154
 3475SOL    HW110769   2.800  -0.038   1.123
 3475SOL    HW210770   2.956  -0.002   1.154
 3476SOL     OW10771   2.632   1.330   0.301
 3476SOL    HW110772   2.586   1.243   0.318
 3476SOL    HW210773   2.723   1.327   0.342
 3477SOL     OW10774   2.480   1.567   1.284
 3477SOL    HW110775   2.475   1.649   1.341
 3477SOL    HW210776   2.569   1.564   1.239
 3478SOL     OW10777   3.162   0.453   0.691
 3478SOL    HW110778   3.103   0.533   0.695
 3478SOL    HW210779   3.177   0.418   0.784
 3479SOL     OW10780   3.455   0.221   0.882
 3479SOL    HW110781   3.371   0.220   0.936
 3479SOL    HW210782   3.457   0.304   0.826
 3480SOL     OW10783   1.901   1.077   0.300
 3480SOL    HW110784   2.000   1.066   0.291
 3480SOL    HW210785   1.861   0.991   0.332
 3481SOL     OW10786   2.737   1.646   0.337
 3481SOL    HW110787   2.660   1.611   0.283
 3481SOL    HW210788   2.705   1.717   0.399
 3482SOL     OW10789   2.092   0.628   1.975
 3482SOL    HW110790   1.999   0.626   2.012
 3482SOL    HW210791   2.093   0.589   1.883
 3483SOL     OW10792   2.087   0.275   2.858
 3483SOL    HW110793   2.122   0.258   2.950
 3483SOL    HW210794   1.999   0.230   2.846
 3484SOL     OW10795   1.881   0.368   2.509
 3484SOL    HW110796   1.799   0.411   2.548
 3484SOL    HW210797   1.853   0.295   2.446
 3485SOL     OW10798   2.431   1.275   3.027
 3485SOL    HW110799   2.338   1.268   2.990
 3485SOL    HW210800   2.442   1.364   3.071
 3486SOL     OW10801   3.417   1.511   2.565
 3486SOL    HW110802   3.360   1.495   2.646
 3486SOL    HW210803   3.358   1.521   2.485
 3487SOL     OW10804   2.997   0.703   2.579
 3487SOL    HW110805   3.054   0.781   2.554
 3487SOL    HW210806   2.937   0.729   2.655
 3488SOL     OW10807   3.617   0.607   2.093
 3488SOL    HW110808   3.605   0.594   1.994
 3488SOL    HW210809   3.587   0.526   2.142
 3489SOL     OW10810   2.630   1.144   2.885
 3489SOL    HW110811   2.552   1.161   2.945
 3489SOL    HW210812   2.664   1.231   2.849
 3490SOL     OW10813   2.712   0.798   3.685
 3490SOL    HW110814   2.708   0.874   3.750
 3490SOL    HW210815   2.734   0.834   3.594
 3491SOL     OW10816   2.547   1.012   2.527
 3491SOL    HW110817   2.616   0.996   2.597
 3491SOL    HW210818   2.474   1.069   2.565
 3492SOL     OW10819   2.548   1.161   3.665
 3492SOL    HW110820   2.608   1.240   3.679
 3492SOL    HW210821   2.462   1.192   3.624
 3493SOL     OW10822   2.197   1.435   2.923
 3493SOL    HW110823   2.119   1.404   2.870
 3493SOL    HW210824   2.255   1.493   2.866
 3494SOL     OW10825   3.322   1.505   3.201
 3494SOL    HW110826   3.346   1.599   3.227
 3494SOL    HW210827   3.306   1.451   3.283
 3495SOL     OW10828   2.300   0.392   3.361
 3495SOL    HW110829   2.382   0.336   3.370
 3495SOL    HW210830   2.219   0.334   3.365
 3496SOL     OW10831   3.465   0.447   2.599
 3496SOL    HW110832   3.391   0.493   2.549
 3496SOL    HW210833   3.516   0.515   2.652
 3497SOL     OW10834   2.093   1.713   2.345
 3497SOL    HW110835   2.127   1.790   2.399
 3497SOL    HW210836   2.137   1.713   2.255
 3498SOL     OW10837   2.989   1.341   3.552
 3498SOL    HW110838   3.036   1.341   3.640
 3498SOL    HW210839   2.941   1.254   3.541
 3499SOL     OW10840   2.092   1.434   2.400
 3499SOL    HW110841   2.066   1.530   2.400
 3499SOL    HW210842   2.021   1.380   2.445
 3500SOL     OW10843   2.102   1.091   2.748
 3500SOL    HW110844   2.116   1.007   2.800
 3500SOL    HW210845   2.047   1.155   2.803
 3501SOL     OW10846   2.482   1.786   3.301
 3501SOL    HW110847   2.390   1.769   3.336
 3501SOL    HW210848   2.510   1.878   3.327
 3502SOL     OW10849   2.468   0.964   1.985
 3502SOL    HW110850   2.475   1.048   1.931
 3502SOL    HW210851   2.514   0.977   2.073
 3503SOL     OW10852   3.456   0.114   3.342
 3503SOL    HW110853   3.438   0.181   3.270
 3503SOL    HW210854   3.453   0.160   3.431
 3504SOL     OW10855   1.984   0.643   2.425
 3504SOL    HW110856   1.939   0.555   2.442
 3504SOL    HW210857   1.983   0.697   2.509
 3505SOL     OW10858   3.704   1.767   2.221
 3505SOL    HW110859   3.758   1.738   2.301
 3505SOL    HW210860   3.734   1.857   2.192
 3506SOL     OW10861   1.889   1.596   1.979
 3506SOL    HW110862   1.870   1.500   2.000
 3506SOL    HW210863   1.856   1.654   2.054
 3507SOL     OW10864   3.551   0.922   2.474
 3507SOL    HW110865   3.646   0.893   2.482
 3507SOL    HW210866   3.543   0.987   2.399
 3508SOL     OW10867   3.503   1.108   2.294
 3508SOL    HW110868   3.589   1.110   2.242
 3508SOL    HW210869   3.517   1.155   2.382
 3509SOL     OW10870   1.975   0.737   3.459
 3509SOL    HW110871   2.063   0.724   3.504
 3509SOL    HW210872   1.962   0.834   3.437
 3510SOL     OW10873   2.475   1.365   2.588
 3510SOL    HW110874   2.426   1.278   2.597
 3510SOL    HW210875   2.452   1.408   2.501
 3511SOL     OW10876   3.155   1.228   3.285
 3511SOL    HW110877   3.192   1.155   3.227
 3511SOL    HW210878   3.207   1.233   3.370
 3512SOL     OW10879   2.671   0.004   2.364
 3512SOL    HW110880   2.711   0.095   2.355
 3512SOL    HW210881   2.571   0.012   2.370
 3513SOL     OW10882   2.059   0.976   3.126
 3513SOL    HW110883   2.148   0.931   3.112
 3513SOL    HW210884   1.986   0.911   3.107
 3514SOL     OW10885   3.387   0.999   2.052
 3514SOL    HW110886   3.324   0.923   2.065
 3514SOL    HW210887   3.435   1.017   2.138
 3515SOL     OW10888   3.049   1.792   3.478
 3515SOL    HW110889   3.073   1.852   3.402
 3515SOL    HW210890   3.056   1.697   3.448
 3516SOL     OW10891   2.179   0.251   3.663
 3516SOL    HW110892   2.250   0.322   3.669
 3516SOL    HW210893   2.091   0.290   3.691
 3517SOL     OW10894   3.328   1.417   2.815
 3517SOL    HW110895   3.269   1.423   2.895
 3517SOL    HW210896   3.313   1.329   2.769
 3518SOL     OW10897   3.529   1.714   2.434
 3518SOL    HW110898   3.488   1.691   2.346
 3518SOL    HW210899   3.511   1.640   2.499
 3519SOL     OW10900   2.460   0.729   2.132
 3519SOL    HW110901   2.484   0.798   2.064
 3519SOL    HW210902   2.382   0.762   2.186
 3520SOL     OW10903   3.143   0.345   2.806
 3520SOL    HW110904   3.057   0.295   2.793
 3520SOL    HW210905   3.205   0.291   2.862
 3521SOL     OW10906   3.438   1.662   2.169
 3521SOL    HW110907   3.527   1.708   2.172
 3521SOL    HW210908   3.417   1.638   2.074
 3522SOL     OW10909   2.669   0.605   3.327
 3522SOL    HW110910   2.622   0.602   3.416
 3522SOL    HW210911   2.618   0.550   3.261
 3523SOL     OW10912   3.256   0.469   3.536
 3523SOL    HW110913   3.236   0.512   3.624
 3523SOL    HW210914   3.334   0.407   3.545
 3524SOL     OW10915   2.835   0.890   3.434
 3524SOL    HW110916   2.881   0.806   3.405
 3524SOL    HW210917   2.779   0.924   3.359
 3525SOL     OW10918   2.853   0.410   3.104
 3525SOL    HW110919   2.776   0.444   3.158
 3525SOL    HW210920   2.819   0.359   3.025
 3526SOL     OW10921   2.903   0.701   2.291
 3526SOL    HW110922   2.929   0.697   2.387
 3526SOL    HW210923   2.818   0.650   2.277
 3527SOL     OW10924   1.938   0.811   2.651
 3527SOL    HW110925   2.037   0.799   2.660
 3527SOL    HW210926   1.914   0.906   2.672
 3528SOL     OW10927   1.992   1.821   3.433
 3528SOL    HW110928   1.982   1.806   3.532
 3528SOL    HW210929   1.906   1.857   3.397
 3529SOL     OW10930   2.727   0.348   2.057
 3529SOL    HW110931   2.786   0.411   2.008
 3529SOL    HW210932   2.746   0.254   2.028
 3530SOL     OW10933   3.581   0.585   3.693
 3530SOL    HW110934   3.555   0.674   3.657
 3530SOL    HW210935   3.579   0.517   3.620
 3531SOL     OW10936   3.224   1.144   2.407
 3531SOL    HW110937   3.307   1.115   2.359
 3531SOL    HW210938   3.175   1.211   2.351
 3532SOL     OW10939   2.412   0.196   2.747
 3532SOL    HW110940   2.407   0.191   2.847
 3532SOL    HW210941   2.414   0.292   2.718
 3533SOL     OW10942   2.870   1.456   2.339
 3533SOL    HW110943   2.824   1.528   2.287
 3533SOL    HW210944   2.866   1.476   2.437
 3534SOL     OW10945   2.213   1.801   2.715
 3534SOL    HW110946   2.263   1.715   2.721
 3534SOL    HW210947   2.278   1.878   2.712
 3535SOL     OW10948   3.657   1.066   2.735
 3535SOL    HW110949   3.595   1.051   2.659
 3535SOL    HW210950   3.605   1.077   2.820
 3536SOL     OW10951   3.089   1.550   3.368
 3536SOL    HW110952   3.095   1.473   3.432
 3536SOL    HW210953   3.037   1.524   3.288
 3537SOL     OW10954   2.183   0.943   2.104
 3537SOL    HW110955   2.265   0.982   2.062
 3537SOL    HW210956   2.156   0.861   2.055
 3538SOL     OW10957   3.320   0.735   2.590
 3538SOL    HW110958   3.315   0.670   2.665
 3538SOL    HW210959   3.400   0.794   2.603
 3539SOL     OW10960   2.323   1.266   3.589
 3539SOL    HW110961   2.273   1.267   3.503
 3539SOL    HW210962   2.260   1.248   3.665
 3540SOL     OW10963   2.973   1.776   2.099
 3540SOL    HW110964   2.913   1.714   2.149
 3540SOL    HW210965   3.004   1.732   2.014
 3541SOL     OW10966   2.064   0.285   3.360
 3541SOL    HW110967   1.984   0.345   3.347
 3541SOL    HW210968   2.054   0.236   3.446
 3542SOL     OW10969   3.494   1.377   1.943
 3542SOL    HW110970   3.462   1.471   1.933
 3542SOL    HW210971   3.418   1.314   1.931
 3543SOL     OW10972   2.326   1.743   2.185
 3543SOL    HW110973   2.359   1.782   2.271
 3543SOL    HW210974   2.402   1.736   2.120
 3544SOL     OW10975   3.262   0.107   2.288
 3544SOL    HW110976   3.238   0.070   2.198
 3544SOL    HW210977   3.361   0.123   2.292
 3545SOL     OW10978   2.111   1.785   3.103
 3545SOL    HW110979   2.168   1.720   3.153
 3545SOL    HW210980   2.095   1.752   3.010
 3546SOL     OW10981   2.802   1.698   2.766
 3546SOL    HW110982   2.882   1.641   2.787
 3546SOL    HW210983   2.753   1.658   2.689
 3547SOL     OW10984   2.244   0.700   2.342
 3547SOL    HW110985   2.289   0.610   2.339
 3547SOL    HW210986   2.150   0.689   2.375
 3548SOL     OW10987   3.409   0.222   3.591
 3548SOL    HW110988   3.404   0.259   3.683
 3548SOL    HW210989   3.337   0.153   3.579
 3549SOL     OW10990   2.476   0.122   1.979
 3549SOL    HW110991   2.574   0.100   1.986
 3549SOL    HW210992   2.445   0.105   1.886
 3550SOL     OW10993   2.643   0.264   3.611
 3550SOL    HW110994   2.710   0.203   3.654
 3550SOL    HW210995   2.570   0.283   3.676
 3551SOL     OW10996   2.750   1.514   3.057
 3551SOL    HW110997   2.727   1.489   2.963
 3551SOL    HW210998   2.811   1.445   3.096
 3552SOL     OW10999   3.213   0.590   3.295
 3552SOL    HW111000   3.241   0.547   3.380
 3552SOL    HW211001   3.238   0.686   3.296
 3553SOL     OW11002   2.665   1.402   2.786
 3553SOL    HW111003   2.755   1.416   2.744
 3553SOL    HW211004   2.594   1.404   2.715
 3554SOL     OW11005   2.784   0.503   2.761
 3554SOL    HW111006   2.759   0.494   2.665
 3554SOL    HW211007   2.832   0.421   2.792
 3555SOL     OW11008   2.401   0.064   2.374
 3555SOL    HW111009   2.320   0.065   2.432
 3555SOL    HW211010   2.404   0.147   2.319
 3556SOL     OW11011   3.296   1.188   1.903
 3556SOL    HW111012   3.328   1.112   1.960
 3556SOL    HW211013   3.204   1.215   1.933
 3557SOL     OW11014   2.159   0.035   2.033
 3557SOL    HW111015   2.208   0.119   2.012
 3557SOL    HW211016   2.221  -0.030   2.078
 3558SOL     OW11017   2.797   0.236   2.342
 3558SOL    HW111018   2.749   0.277   2.264
 3558SOL    HW211019   2.896   0.234   2.323
 3559SOL     OW11020   2.938   0.683   3.326
 3559SOL    HW111021   2.858   0.622   3.329
 3559SOL    HW211022   3.019   0.630   3.302
 3560SOL     OW11023   3.089   1.570   2.655
 3560SOL    HW111024   3.110   1.644   2.590
 3560SOL    HW211025   3.157   1.570   2.728
 3561SOL     OW11026   2.321   1.152   2.603
 3561SOL    HW111027   2.250   1.125   2.668
 3561SOL    HW211028   2.295   1.124   2.510
 3562SOL     OW11029   3.133   1.797   2.453
 3562SOL    HW111030   3.177   1.861   2.389
 3562SOL    HW211031   3.083   1.849   2.523
 3563SOL     OW11032   2.894   0.549   1.878
 3563SOL    HW111033   2.853   0.631   1.839
 3563SOL    HW211034   2.958   0.575   1.951
 3564SOL     OW11035   1.940   0.556   3.248
 3564SOL    HW111036   2.032   0.555   3.207
 3564SOL    HW211037   1.934   0.630   3.315
 3565SOL     OW11038   2.423   0.222   3.009
 3565SOL    HW111039   2.461   0.138   3.046
 3565SOL    HW211040   2.335   0.241   3.053
 3566SOL     OW11041   2.728   0.454   2.504
 3566SOL    HW111042   2.696   0.526   2.442
 3566SOL    HW211043   2.752   0.373   2.451
 3567SOL     OW11044   2.879   0.039   2.615
 3567SOL    HW111045   2.807   0.044   2.546
 3567SOL    HW211046   2.855  -0.030   2.684
 3568SOL     OW11047   3.291   1.173   2.729
 3568SOL    HW111048   3.236   1.089   2.722
 3568SOL    HW211049   3.317   1.202   2.637
 3569SOL     OW11050   3.328   0.590   2.854
 3569SOL    HW111051   3.298   0.495   2.861
 3569SOL    HW211052   3.401   0.606   2.920
 3570SOL     OW11053   3.719   0.833   2.239
 3570SOL    HW111054   3.761   0.769   2.303
 3570SOL    HW211055   3.681   0.782   2.161
 3571SOL     OW11056   2.350   1.385   2.036
 3571SOL    HW111057   2.263   1.370   2.083
 3571SOL    HW211058   2.333   1.411   1.941
 3572SOL     OW11059   3.526   1.280   2.519
 3572SOL    HW111060   3.625   1.288   2.533
 3572SOL    HW211061   3.481   1.364   2.550
 3573SOL     OW11062   3.252   0.575   1.940
 3573SOL    HW111063   3.198   0.554   2.021
 3573SOL    HW211064   3.343   0.534   1.949
 3574SOL     OW11065   2.389   0.256   2.190
 3574SOL    HW111066   2.416   0.197   2.115
 3574SOL    HW211067   2.389   0.351   2.159
 3575SOL     OW11068   3.616   1.223   3.450
 3575SOL    HW111069   3.707   1.184   3.437
 3575SOL    HW211070   3.624   1.319   3.474
 3576SOL     OW11071   2.926   1.347   3.202
 3576SOL    HW111072   2.846   1.324   3.257
 3576SOL    HW211073   3.009   1.321   3.251
 3577SOL     OW11074   3.454   1.629   3.487
 3577SOL    HW111075   3.481   1.663   3.397
 3577SOL    HW211076   3.533   1.591   3.533
 3578SOL     OW11077   2.973   1.195   2.962
 3578SOL    HW111078   2.933   1.239   3.043
 3578SOL    HW211079   2.932   1.232   2.879
 3579SOL     OW11080   3.500   1.099   2.941
 3579SOL    HW111081   3.505   1.180   3.000
 3579SOL    HW211082   3.414   1.101   2.890
 3580SOL     OW11083   2.777   0.089   3.264
 3580SOL    HW111084   2.802   0.069   3.169
 3580SOL    HW211085   2.849   0.145   3.306
 3581SOL     OW11086   2.842   1.116   3.581
 3581SOL    HW111087   2.743   1.122   3.591
 3581SOL    HW211088   2.865   1.036   3.525
 3582SOL     OW11089   2.567   1.050   2.230
 3582SOL    HW111090   2.553   1.057   2.329
 3582SOL    HW211091   2.651   0.999   2.212
 3583SOL     OW11092   2.272   0.813   3.113
 3583SOL    HW111093   2.358   0.825   3.163
 3583SOL    HW211094   2.230   0.726   3.140
 3584SOL     OW11095   3.136   0.386   3.124
 3584SOL    HW111096   3.157   0.460   3.188
 3584SOL    HW211097   3.047   0.403   3.081
 3585SOL     OW11098   1.926   1.564   3.193
 3585SOL    HW111099   1.880   1.646   3.159
 3585SOL    HW211100   2.024   1.583   3.202
 3586SOL     OW11101   2.229   1.100   2.363
 3586SOL    HW111102   2.222   1.183   2.307
 3586SOL    HW211103   2.233   1.020   2.303
 3587SOL     OW11104   2.428   0.537   2.727
 3587SOL    HW111105   2.440   0.603   2.653
 3587SOL    HW211106   2.474   0.571   2.810
 3588SOL     OW11107   3.114   1.348   2.250
 3588SOL    HW111108   3.164   1.425   2.290
 3588SOL    HW211109   3.019   1.350   2.282
 3589SOL     OW11110   3.134   1.445   3.004
 3589SOL    HW111111   3.181   1.458   3.091
 3589SOL    HW211112   3.068   1.371   3.013
 3590SOL     OW11113   3.444   0.639   2.334
 3590SOL    HW111114   3.413   0.700   2.407
 3590SOL    HW211115   3.494   0.691   2.265
 3591SOL     OW11116   2.216   1.510   3.191
 3591SOL    HW111117   2.195   1.466   3.104
 3591SOL    HW211118   2.313   1.536   3.194
 3592SOL     OW11119   2.264   0.751   3.460
 3592SOL    HW111120   2.332   0.806   3.413
 3592SOL    HW211121   2.304   0.663   3.487
 3593SOL     OW11122   3.449   0.779   3.532
 3593SOL    HW111123   3.357   0.817   3.527
 3593SOL    HW211124   3.509   0.826   3.467
 3594SOL     OW11125   2.875   0.105   3.632
 3594SOL    HW111126   2.881   0.190   3.580
 3594SOL    HW211127   2.907   0.029   3.575
 3595SOL     OW11128   2.366   0.050   3.602
 3595SOL    HW111129   2.324  -0.007   3.532
 3595SOL    HW211130   2.300   0.119   3.634
 3596SOL     OW11131   2.435   0.870   2.891
 3596SOL    HW111132   2.479   0.959   2.882
 3596SOL    HW211133   2.372   0.870   2.968
 3597SOL     OW11134   3.222   0.862   2.907
 3597SOL    HW111135   3.147   0.862   2.841
 3597SOL    HW211136   3.259   0.770   2.916
 3598SOL     OW11137   3.071   0.525   2.137
 3598SOL    HW111138   3.084   0.441   2.191
 3598SOL    HW211139   3.042   0.599   2.197
 3599SOL     OW11140   2.169   0.213   3.093
 3599SOL    HW111141   2.146   0.250   3.183
 3599SOL    HW211142   2.139   0.118   3.087
 3600SOL     OW11143   1.899   1.310   3.144
 3600SOL    HW111144   1.952   1.261   3.212
 3600SOL    HW211145   1.921   1.408   3.149
 3601SOL     OW11146   2.594   0.634   2.926
 3601SOL    HW111147   2.653   0.608   2.850
 3601SOL    HW211148   2.566   0.730   2.915
 3602SOL     OW11149   3.590   0.935   3.716
 3602SOL    HW111150   3.544   0.928   3.627
 3602SOL    HW211151   3.528   0.979   3.782
 3603SOL     OW11152   2.169   0.063   2.480
 3603SOL    HW111153   2.158   0.157   2.513
 3603SOL    HW211154   2.164   0.000   2.557
 3604SOL     OW11155   3.484   0.367   2.236
 3604SOL    HW111156   3.486   0.291   2.300
 3604SOL    HW211157   3.436   0.444   2.276
 3605SOL     OW11158   2.885   0.766   2.828
 3605SOL    HW111159   2.900   0.787   2.924
 3605SOL    HW211160   2.855   0.671   2.819
 3606SOL     OW11161   2.842   1.573   3.562
 3606SOL    HW111162   2.822   1.617   3.474
 3606SOL    HW211163   2.881   1.482   3.546
 3607SOL     OW11164   3.721   1.518   3.467
 3607SOL    HW111165   3.735   1.545   3.372
 3607SOL    HW211166   3.804   1.540   3.520
 3608SOL     OW11167   2.212   0.898   3.666
 3608SOL    HW111168   2.288   0.942   3.714
 3608SOL    HW211169   2.247   0.851   3.584
 3609SOL     OW11170   3.402   0.274   1.987
 3609SOL    HW111171   3.341   0.199   2.010
 3609SOL    HW211172   3.424   0.326   2.070
 3610SOL     OW11173   3.165   0.838   1.904
 3610SOL    HW111174   3.199   0.745   1.919
 3610SOL    HW211175   3.183   0.865   1.809
 3611SOL     OW11176   2.930   1.333   2.711
 3611SOL    HW111177   2.937   1.249   2.656
 3611SOL    HW211178   2.992   1.402   2.675
 3612SOL     OW11179   2.181   0.810   2.811
 3612SOL    HW111180   2.274   0.846   2.816
 3612SOL    HW211181   2.175   0.725   2.863
 3613SOL     OW11182   2.201   0.509   2.868
 3613SOL    HW111183   2.149   0.426   2.851
 3613SOL    HW211184   2.278   0.514   2.804
 3614SOL     OW11185   3.000   0.380   3.540
 3614SOL    HW111186   2.955   0.443   3.604
 3614SOL    HW211187   3.093   0.411   3.523
 3615SOL     OW11188   3.022   0.207   3.339
 3615SOL    HW111189   3.022   0.271   3.416
 3615SOL    HW211190   3.050   0.255   3.256
 3616SOL     OW11191   1.870   1.326   2.062
 3616SOL    HW111192   1.777   1.347   2.031
 3616SOL    HW211193   1.880   1.227   2.075
 3617SOL     OW11194   1.950   1.801   2.789
 3617SOL    HW111195   1.908   1.715   2.762
 3617SOL    HW211196   2.044   1.804   2.755
 3618SOL     OW11197   2.366   1.568   2.772
 3618SOL    HW111198   2.432   1.642   2.781
 3618SOL    HW211199   2.410   1.489   2.730
 3619SOL     OW11200   2.864   0.796   3.100
 3619SOL    HW111201   2.905   0.764   3.186
 3619SOL    HW211202   2.768   0.769   3.097
 3620SOL     OW11203   1.902   0.544   2.976
 3620SOL    HW111204   1.987   0.511   2.935
 3620SOL    HW211205   1.915   0.559   3.074
 3621SOL     OW11206   2.051   0.520   3.584
 3621SOL    HW111207   2.110   0.480   3.514
 3621SOL    HW211208   1.993   0.591   3.543
 3622SOL     OW11209   3.231   0.950   3.522
 3622SOL    HW111210   3.270   1.039   3.542
 3622SOL    HW211211   3.241   0.930   3.425
 3623SOL     OW11212   2.677   0.572   2.187
 3623SOL    HW111213   2.684   0.483   2.141
 3623SOL    HW211214   2.583   0.606   2.179
 3624SOL     OW11215   3.519   0.604   3.068
 3624SOL    HW111216   3.481   0.535   3.130
 3624SOL    HW211217   3.601   0.568   3.024
 3625SOL     OW11218   2.114   1.564   3.606
 3625SOL    HW111219   2.084   1.621   3.682
 3625SOL    HW211220   2.107   1.467   3.632
 3626SOL     OW11221   2.533   0.464   3.131
 3626SOL    HW111222   2.499   0.375   3.101
 3626SOL    HW211223   2.559   0.518   3.051
 3627SOL     OW11224   2.792   1.678   3.327
 3627SOL    HW111225   2.768   1.660   3.232
 3627SOL    HW211226   2.822   1.772   3.337
 3628SOL     OW11227   2.335   0.500   2.053
 3628SOL    HW111228   2.396   0.580   2.057
 3628SOL    HW211229   2.240   0.531   2.060
 3629SOL     OW11230   2.021   1.137   3.328
 3629SOL    HW111231   2.043   1.076   3.404
 3629SOL    HW211232   2.031   1.088   3.242
 3630SOL     OW11233   3.209   1.059   3.096
 3630SOL    HW111234   3.233   0.996   3.022
 3630SOL    HW211235   3.119   1.099   3.078
 3631SOL     OW11236   3.164   0.855   2.171
 3631SOL    HW111237   3.078   0.824   2.213
 3631SOL    HW211238   3.160   0.841   2.072
 3632SOL     OW11239   3.621   1.747   3.016
 3632SOL    HW111240   3.682   1.777   2.943
 3632SOL    HW211241   3.583   1.658   2.994
 3633SOL     OW11242   3.114   1.731   2.990
 3633SOL    HW111243   3.198   1.736   2.936
 3633SOL    HW211244   3.091   1.635   3.008
 3634SOL     OW11245   1.945   1.258   2.884
 3634SOL    HW111246   1.940   1.257   2.984
 3634SOL    HW211247   1.862   1.217   2.846
 3635SOL     OW11248   2.550   1.662   3.578
 3635SOL    HW111249   2.494   1.743   3.587
 3635SOL    HW211250   2.602   1.666   3.492
 3636SOL     OW11251   3.588   0.135   2.385
 3636SOL    HW111252   3.661   0.118   2.318
 3636SOL    HW211253   3.557   0.048   2.423
 3637SOL     OW11254   3.250   1.573   2.339
 3637SOL    HW111255   3.317   1.585   2.265
 3637SOL    HW211256   3.210   1.662   2.362
 3638SOL     OW11257   1.992   1.794   3.713
 3638SOL    HW111258   1.951   1.720   3.766
 3638SOL    HW211259   2.056   1.845   3.771
 3639SOL     OW11260   3.142   0.927   2.534
 3639SOL    HW111261   3.202   0.846   2.536
 3639SOL    HW211262   3.182   0.996   2.474
 3640SOL     OW11263   2.692   1.273   3.284
 3640SOL    HW111264   2.687   1.306   3.379
 3640SOL    HW211265   2.606   1.292   3.238
 3641SOL     OW11266   2.534   1.616   2.016
 3641SOL    HW111267   2.543   1.626   1.917
 3641SOL    HW211268   2.494   1.527   2.037
 3642SOL     OW11269   3.512   1.720   3.256
 3642SOL    HW111270   3.565   1.730   3.172
 3642SOL    HW211271   3.485   1.810   3.290
 3643SOL     OW11272   3.703   0.175   2.825
 3643SOL    HW111273   3.742   0.090   2.789
 3643SOL    HW211274   3.605   0.177   2.806
 3644SOL     OW11275   2.125   0.326   2.582
 3644SOL    HW111276   2.046   0.377   2.548
 3644SOL    HW211277   2.116   0.311   2.680
 3645SOL     OW11278   3.056   1.612   1.893
 3645SOL    HW111279   3.062   1.519   1.930
 3645SOL    HW211280   2.997   1.612   1.813
 3646SOL     OW11281   2.684   1.002   3.234
 3646SOL    HW111282   2.724   1.001   3.142
 3646SOL    HW211283   2.694   1.094   3.274
 3647SOL     OW11284   2.778   0.910   2.153
 3647SOL    HW111285   2.841   0.948   2.085
 3647SOL    HW211286   2.818   0.827   2.192
 3648SOL     OW11287   3.366   1.607   1.906
 3648SOL    HW111288   3.274   1.644   1.913
 3648SOL    HW211289   3.404   1.627   1.816
 3649SOL     OW11290   2.234   1.288   3.352
 3649SOL    HW111291   2.221   1.381   3.318
 3649SOL    HW211292   2.150   1.236   3.339
 3650SOL     OW11293   3.476   1.292   3.151
 3650SOL    HW111294   3.536   1.295   3.231
 3650SOL    HW211295   3.401   1.356   3.164
 3651SOL     OW11296   2.901   1.098   2.558
 3651SOL    HW111297   2.831   1.051   2.612
 3651SOL    HW211298   2.960   1.030   2.515
 3652SOL     OW11299   2.876   0.236   2.833
 3652SOL    HW111300   2.868   0.200   2.740
 3652SOL    HW211301   2.874   0.160   2.898
 3653SOL     OW11302   2.452   1.487   2.353
 3653SOL    HW111303   2.494   1.429   2.283
 3653SOL    HW211304   2.408   1.566   2.309
 3654SOL     OW11305   3.571   0.385   3.243
 3654SOL    HW111306   3.644   0.454   3.247
 3654SOL    HW211307   3.599   0.310   3.184
 3655SOL     OW11308   2.117   1.348   2.152
 3655SOL    HW111309   2.021   1.349   2.125
 3655SOL    HW211310   2.129   1.401   2.236
 3656SOL     OW11311   1.967   1.013   3.588
 3656SOL    HW111312   1.890   0.980   3.642
 3656SOL    HW211313   2.052   0.983   3.630
 3657SOL     OW11314   2.534   0.203   3.351
 3657SOL    HW111315   2.624   0.187   3.311
 3657SOL    HW211316   2.542   0.208   3.450
 3658SOL     OW11317   1.937   0.345   1.895
 3658SOL    HW111318   1.845   0.317   1.866
 3658SOL    HW211319   1.968   0.422   1.839
 3659SOL     OW11320   3.302   0.856   3.260
 3659SOL    HW111321   3.245   0.908   3.197
 3659SOL    HW211322   3.398   0.868   3.236
 3660SOL     OW11323   1.934   0.166   2.180
 3660SOL    HW111324   1.917   0.249   2.126
 3660SOL    HW211325   2.024   0.129   2.158
 3661SOL     OW11326   3.045   1.335   1.981
 3661SOL    HW111327   2.946   1.324   1.983
 3661SOL    HW211328   3.079   1.350   2.074
 3662SOL     OW11329   2.475   0.842   3.293
 3662SOL    HW111330   2.531   0.923   3.276
 3662SOL    HW211331   2.534   0.762   3.296
 3663SOL     OW11332   3.355   1.767   2.821
 3663SOL    HW111333   3.388   1.831   2.752
 3663SOL    HW211334   3.421   1.761   2.896
 3664SOL     OW11335   2.578   0.565   3.570
 3664SOL    HW111336   2.597   0.630   3.644
 3664SOL    HW211337   2.638   0.485   3.579
 3665SOL     OW11338   3.312   1.220   3.495
 3665SOL    HW111339   3.303   1.210   3.594
 3665SOL    HW211340   3.408   1.213   3.469
 3666SOL     OW11341   2.252   1.741   3.422
 3666SOL    HW111342   2.161   1.782   3.420
 3666SOL    HW211343   2.245   1.647   3.454
 3667SOL     OW11344   3.536   0.883   3.116
 3667SOL    HW111345   3.509   0.794   3.079
 3667SOL    HW211346   3.537   0.951   3.043
 3668SOL     OW11347   3.087   0.325   2.311
 3668SOL    HW111348   3.152   0.251   2.300
 3668SOL    HW211349   3.107   0.375   2.395
 3669SOL     OW11350   2.456   0.745   2.514
 3669SOL    HW111351   2.506   0.830   2.495
 3669SOL    HW211352   2.368   0.747   2.466
 3670SOL     OW11353   3.639   0.342   3.504
 3670SOL    HW111354   3.622   0.373   3.410
 3670SOL    HW211355   3.555   0.305   3.542
 3671SOL     OW11356   3.592   0.934   3.379
 3671SOL    HW111357   3.630   1.025   3.394
 3671SOL    HW211358   3.584   0.917   3.280
 3672SOL     OW11359   2.721   1.374   1.878
 3672SOL    HW111360   2.675   1.389   1.966
 3672SOL    HW211361   2.765   1.459   1.848
 3673SOL     OW11362   2.523   1.790   2.815
 3673SOL    HW111363   2.477   1.878   2.802
 3673SOL    HW211364   2.622   1.802   2.808
 3674SOL     OW11365   2.721   0.956   2.723
 3674SOL    HW111366   2.775   0.887   2.771
 3674SOL    HW211367   2.689   1.025   2.789
 3675SOL     OW11368   2.945   0.984   1.949
 3675SOL    HW111369   2.922   1.037   1.867
 3675SOL    HW211370   3.026   0.928   1.930
 3676SOL     OW11371   3.723   1.569   2.713
 3676SOL    HW111372   3.652   1.557   2.643
 3676SOL    HW211373   3.724   1.490   2.773
 3677SOL     OW11374   2.083   1.314   3.706
 3677SOL    HW111375   2.018   1.241   3.685
 3677SOL    HW211376   2.087   1.328   3.804
 3678SOL     OW11377   1.941   1.240   2.515
 3678SOL    HW111378   1.940   1.193   2.603
 3678SOL    HW211379   2.023   1.212   2.464
 3679SOL     OW11380   2.534   1.391   3.486
 3679SOL    HW111381   2.456   1.341   3.524
 3679SOL    HW211382   2.531   1.486   3.517
 3680SOL     OW11383   3.686   0.192   3.089
 3680SOL    HW111384   3.682   0.102   3.133
 3680SOL    HW211385   3.689   0.181   2.990
 3681SOL     OW11386   2.290   0.424   2.382
 3681SOL    HW111387   2.320   0.352   2.320
 3681SOL    HW211388   2.251   0.384   2.465
 3682SOL     OW11389   3.567   1.487   2.966
 3682SOL    HW111390   3.474   1.462   2.939
 3682SOL    HW211391   3.593   1.437   3.048
 3683SOL     OW11392   2.179   0.547   3.142
 3683SOL    HW111393   2.217   0.488   3.214
 3683SOL    HW211394   2.219   0.521   3.054
 3684SOL     OW11395   2.674   1.586   2.549
 3684SOL    HW111396   2.706   1.596   2.455
 3684SOL    HW211397   2.595   1.524   2.551
 3685SOL     OW11398   3.286   0.214   2.974
 3685SOL    HW111399   3.338   0.149   3.029
 3685SOL    HW211400   3.237   0.277   3.035
 3686SOL     OW11401   2.863   0.034   3.016
 3686SOL    HW111402   2.800  -0.038   2.985
 3686SOL    HW211403   2.956  -0.002   3.016
 3687SOL     OW11404   2.632   1.330   2.163
 3687SOL    HW111405   2.586   1.243   2.180
 3687SOL    HW211406   2.723   1.327   2.204
 3688SOL     OW11407   2.480   1.567   3.146
 3688SOL    HW111408   2.475   1.649   3.203
 3688SOL    HW211409   2.569   1.564   3.101
 3689SOL     OW11410   3.214   0.052   2.030
 3689SOL    HW111411   3.249   0.011   1.946
 3689SOL    HW211412   3.124   0.014   2.050
 3690SOL     OW11413   3.162   0.453   2.553
 3690SOL    HW111414   3.103   0.533   2.557
 3690SOL    HW211415   3.177   0.418   2.646
 3691SOL     OW11416   3.455   0.221   2.744
 3691SOL    HW111417   3.371   0.220   2.798
 3691SOL    HW211418   3.457   0.304   2.688
 3692SOL     OW11419   1.901   1.077   2.162
 3692SOL    HW111420   2.000   1.066   2.153
 3692SOL    HW211421   1.861   0.991   2.194
 3693SOL     OW11422   2.737   1.646   2.199
 3693SOL    HW111423   2.660   1.611   2.145
 3693SOL    HW211424   2.705   1.717   2.261
 3694SOL     OW11425   2.092   0.628   3.837
 3694SOL    HW111426   1.999   0.626   3.874
 3694SOL    HW211427   2.093   0.589   3.745
 3695SOL     OW11428   2.087   0.275   4.720
 3695SOL    HW111429   2.122   0.258   4.812
 3695SOL    HW211430   1.999   0.230   4.708
 3696SOL     OW11431   1.881   0.368   4.371
 3696SOL    HW111432   1.799   0.411   4.410
 3696SOL    HW211433   1.853   0.295   4.308
 3697SOL     OW11434   2.431   1.275   4.889
 3697SOL    HW111435   2.338   1.268   4.852
 3697SOL    HW211436   2.442   1.364   4.933
 3698SOL     OW11437   3.417   1.511   4.427
 3698SOL    HW111438   3.360   1.495   4.508
 3698SOL    HW211439   3.358   1.521   4.347
 3699SOL     OW11440   2.997   0.703   4.441
 3699SOL    HW111441   3.054   0.781   4.416
 3699SOL    HW211442   2.937   0.729   4.517
 3700SOL     OW11443   3.617   0.607   3.955
 3700SOL    HW111444   3.605   0.594   3.856
 3700SOL    HW211445   3.587   0.526   4.004
 3701SOL     OW11446   2.630   1.144   4.747
 3701SOL    HW111447   2.552   1.161   4.807
 3701SOL    HW211448   2.664   1.231   4.711
 3702SOL     OW11449   2.712   0.798   5.547
 3702SOL    HW111450   2.708   0.874   5.612
 3702SOL    HW211451   2.734   0.834   5.456
 3703SOL     OW11452   2.547   1.012   4.389
 3703SOL    HW111453   2.616   0.996   4.459
 3703SOL    HW211454   2.474   1.069   4.427
 3704SOL     OW11455   2.548   1.161   5.527
 3704SOL    HW111456   2.608   1.240   5.541
 3704SOL    HW211457   2.462   1.192   5.486
 3705SOL     OW11458   2.197   1.435   4.785
 3705SOL    HW111459   2.119   1.404   4.732
 3705SOL    HW211460   2.255   1.493   4.728
 3706SOL     OW11461   3.322   1.505   5.063
 3706SOL    HW111462   3.346   1.599   5.089
 3706SOL    HW211463   3.306   1.451   5.145
 3707SOL     OW11464   2.300   0.392   5.223
 3707SOL    HW111465   2.382   0.336   5.232
 3707SOL    HW211466   2.219   0.334   5.227
 3708SOL     OW11467   3.465   0.447   4.461
 3708SOL    HW111468   3.391   0.493   4.411
 3708SOL    HW211469   3.516   0.515   4.514
 3709SOL     OW11470   2.093   1.713   4.207
 3709SOL    HW111471   2.127   1.790   4.261
 3709SOL    HW211472   2.137   1.713   4.117
 3710SOL     OW11473   2.989   1.341   5.414
 3710SOL    HW111474   3.036   1.341   5.502
 3710SOL    HW211475   2.941   1.254   5.403
 3711SOL     OW11476   2.092   1.434   4.262
 3711SOL    HW111477   2.066   1.530   4.262
 3711SOL    HW211478   2.021   1.380   4.307
 3712SOL     OW11479   2.102   1.091   4.610
 3712SOL    HW111480   2.116   1.007   4.662
 3712SOL    HW211481   2.047   1.155   4.665
 3713SOL     OW11482   2.482   1.786   5.163
 3713SOL    HW111483   2.390   1.769   5.198
 3713SOL    HW211484   2.510   1.878   5.189
 3714SOL     OW11485   2.468   0.964   3.847
 3714SOL    HW111486   2.475   1.048   3.793
 3714SOL    HW211487   2.514   0.977   3.935
 3715SOL     OW11488   3.456   0.114   5.204
 3715SOL    HW111489   3.438   0.181   5.132
 3715SOL    HW211490   3.453   0.160   5.293
 3716SOL     OW11491   1.984   0.643   4.287
 3716SOL    HW111492   1.939   0.555   4.304
 3716SOL    HW211493   1.983   0.697   4.371
 3717SOL     OW11494   3.704   1.767   4.083
 3717SOL    HW111495   3.758   1.738   4.163
 3717SOL    HW211496   3.734   1.857   4.054
 3718SOL     OW11497   1.889   1.596   3.841
 3718SOL    HW111498   1.870   1.500   3.862
 3718SOL    HW211499   1.856   1.654   3.916
 3719SOL     OW11500   3.551   0.922   4.336
 3719SOL    HW111501   3.646   0.893   4.344
 3719SOL    HW211502   3.543   0.987   4.261
 3720SOL     OW11503   3.503   1.108   4.156
 3720SOL    HW111504   3.589   1.110   4.104
 3720SOL    HW211505   3.517   1.155   4.244
 3721SOL     OW11506   1.975   0.737   5.321
 3721SOL    HW111507   2.063   0.724   5.366
 3721SOL    HW211508   1.962   0.834   5.299
 3722SOL     OW11509   2.475   1.365   4.450
 3722SOL    HW111510   2.426   1.278   4.459
 3722SOL    HW211511   2.452   1.408   4.363
 3723SOL     OW11512   3.155   1.228   5.147
 3723SOL    HW111513   3.192   1.155   5.089
 3723SOL    HW211514   3.207   1.233   5.232
 3724SOL     OW11515   2.671   0.004   4.226
 3724SOL    HW111516   2.711   0.095   4.217
 3724SOL    HW211517   2.571   0.012   4.232
 3725SOL     OW11518   2.059   0.976   4.988
 3725SOL    HW111519   2.148   0.931   4.974
 3725SOL    HW211520   1.986   0.911   4.969
 3726SOL     OW11521   3.387   0.999   3.914
 3726SOL    HW111522   3.324   0.923   3.927
 3726SOL    HW211523   3.435   1.017   4.000
 3727SOL     OW11524   3.049   1.792   5.340
 3727SOL    HW111525   3.073   1.852   5.264
 3727SOL    HW211526   3.056   1.697   5.310
 3728SOL     OW11527   2.179   0.251   5.525
 3728SOL    HW111528   2.250   0.322   5.531
 3728SOL    HW211529   2.091   0.290   5.553
 3729SOL     OW11530   3.328   1.417   4.677
 3729SOL    HW111531   3.269   1.423   4.757
 3729SOL    HW211532   3.313   1.329   4.631
 3730SOL     OW11533   3.529   1.714   4.296
 3730SOL    HW111534   3.488   1.691   4.208
 3730SOL    HW211535   3.511   1.640   4.361
 3731SOL     OW11536   2.460   0.729   3.994
 3731SOL    HW111537   2.484   0.798   3.926
 3731SOL    HW211538   2.382   0.762   4.048
 3732SOL     OW11539   3.143   0.345   4.668
 3732SOL    HW111540   3.057   0.295   4.655
 3732SOL    HW211541   3.205   0.291   4.724
 3733SOL     OW11542   3.438   1.662   4.031
 3733SOL    HW111543   3.527   1.708   4.034
 3733SOL    HW211544   3.417   1.638   3.936
 3734SOL     OW11545   2.669   0.605   5.189
 3734SOL    HW111546   2.622   0.602   5.278
 3734SOL    HW211547   2.618   0.550   5.123
 3735SOL     OW11548   3.256   0.469   5.398
 3735SOL    HW111549   3.236   0.512   5.486
 3735SOL    HW211550   3.334   0.407   5.407
 3736SOL     OW11551   2.835   0.890   5.296
 3736SOL    HW111552   2.881   0.806   5.267
 3736SOL    HW211553   2.779   0.924   5.221
 3737SOL     OW11554   2.853   0.410   4.966
 3737SOL    HW111555   2.776   0.444   5.020
 3737SOL    HW211556   2.819   0.359   4.887
 3738SOL     OW11557   2.903   0.701   4.153
 3738SOL    HW111558   2.929   0.697   4.249
 3738SOL    HW211559   2.818   0.650   4.139
 3739SOL     OW11560   1.938   0.811   4.513
 3739SOL    HW111561   2.037   0.799   4.522
 3739SOL    HW211562   1.914   0.906   4.534
 3740SOL     OW11563   1.992   1.821   5.295
 3740SOL    HW111564   1.982   1.806   5.394
 3740SOL    HW211565   1.906   1.857   5.259
 3741SOL     OW11566   2.727   0.348   3.919
 3741SOL    HW111567   2.786   0.411   3.870
 3741SOL    HW211568   2.746   0.254   3.890
 3742SOL     OW11569   3.581   0.585   5.555
 3742SOL    HW111570   3.555   0.674   5.519
 3742SOL    HW211571   3.579   0.517   5.482
 3743SOL     OW11572   3.224   1.144   4.269
 3743SOL    HW111573   3.307   1.115   4.221
 3743SOL    HW211574   3.175   1.211   4.213
 3744SOL     OW11575   2.412   0.196   4.609
 3744SOL    HW111576   2.407   0.191   4.709
 3744SOL    HW211577   2.414   0.292   4.580
 3745SOL     OW11578   2.870   1.456   4.201
 3745SOL    HW111579   2.824   1.528   4.149
 3745SOL    HW211580   2.866   1.476   4.299
 3746SOL     OW11581   2.213   1.801   4.577
 3746SOL    HW111582   2.263   1.715   4.583
 3746SOL    HW211583   2.278   1.878   4.574
 3747SOL     OW11584   3.657   1.066   4.597
 3747SOL    HW111585   3.595   1.051   4.521
 3747SOL    HW211586   3.605   1.077   4.682
 3748SOL     OW11587   3.089   1.550   5.230
 3748SOL    HW111588   3.095   1.473   5.294
 3748SOL    HW211589   3.037   1.524   5.150
 3749SOL     OW11590   2.183   0.943   3.966
 3749SOL    HW111591   2.265   0.982   3.924
 3749SOL    HW211592   2.156   0.861   3.917
 3750SOL     OW11593   3.320   0.735   4.452
 3750SOL    HW111594   3.315   0.670   4.527
 3750SOL    HW211595   3.400   0.794   4.465
 3751SOL     OW11596   2.323   1.266   5.451
 3751SOL    HW111597   2.273   1.267   5.365
 3751SOL    HW211598   2.260   1.248   5.527
 3752SOL     OW11599   2.973   1.776   3.961
 3752SOL    HW111600   2.913   1.714   4.011
 3752SOL    HW211601   3.004   1.732   3.876
 3753SOL     OW11602   2.064   0.285   5.222
 3753SOL    HW111603   1.984   0.345   5.209
 3753SOL    HW211604   2.054   0.236   5.308
 3754SOL     OW11605   3.494   1.377   3.805
 3754SOL    HW111606   3.462   1.471   3.795
 3754SOL    HW211607   3.418   1.314   3.793
 3755SOL     OW11608   2.326   1.743   4.047
 3755SOL    HW111609   2.359   1.782   4.133
 3755SOL    HW211610   2.402   1.736   3.982
 3756SOL     OW11611   3.262   0.107   4.150
 3756SOL    HW111612   3.238   0.070   4.060
 3756SOL    HW211613   3.361   0.123   4.154
 3757SOL     OW11614   2.111   1.785   4.965
 3757SOL    HW111615   2.168   1.720   5.015
 3757SOL    HW211616   2.095   1.752   4.872
 3758SOL     OW11617   2.802   1.698   4.628
 3758SOL    HW111618   2.882   1.641   4.649
 3758SOL    HW211619   2.753   1.658   4.551
 3759SOL     OW11620   2.244   0.700   4.204
 3759SOL    HW111621   2.289   0.610   4.201
 3759SOL    HW211622   2.150   0.689   4.237
 3760SOL     OW11623   3.409   0.222   5.453
 3760SOL    HW111624   3.404   0.259   5.545
 3760SOL    HW211625   3.337   0.153   5.441
 3761SOL     OW11626   2.476   0.122   3.841
 3761SOL    HW111627   2.574   0.100   3.848
 3761SOL    HW211628   2.445   0.105   3.748
 3762SOL     OW11629   2.643   0.264   5.473
 3762SOL    HW111630   2.710   0.203   5.516
 3762SOL    HW211631   2.570   0.283   5.538
 3763SOL     OW11632   2.750   1.514   4.919
 3763SOL    HW111633   2.727   1.489   4.825
 3763SOL    HW211634   2.811   1.445   4.958
 3764SOL     OW11635   3.213   0.590   5.157
 3764SOL    HW111636   3.241   0.547   5.242
 3764SOL    HW211637   3.238   0.686   5.158
 3765SOL     OW11638   2.665   1.402   4.648
 3765SOL    HW111639   2.755   1.416   4.606
 3765SOL    HW211640   2.594   1.404   4.577
 3766SOL     OW11641   2.784   0.503   4.623
 3766SOL    HW111642   2.759   0.494   4.527
 3766SOL    HW211643   2.832   0.421   4.654
 3767SOL     OW11644   2.401   0.064   4.236
 3767SOL    HW111645   2.320   0.065   4.294
 3767SOL    HW211646   2.404   0.147   4.181
 3768SOL     OW11647   3.296   1.188   3.765
 3768SOL    HW111648   3.328   1.112   3.822
 3768SOL    HW211649   3.204   1.215   3.795
 3769SOL     OW11650   2.159   0.035   3.895
 3769SOL    HW111651   2.208   0.119   3.874
 3769SOL    HW211652   2.221  -0.030   3.940
 3770SOL     OW11653   2.797   0.236   4.204
 3770SOL    HW111654   2.749   0.277   4.126
 3770SOL    HW211655   2.896   0.234   4.185
 3771SOL     OW11656   2.938   0.683   5.188
 3771SOL    HW111657   2.858   0.622   5.191
 3771SOL    HW211658   3.019   0.630   5.164
 3772SOL     OW11659   3.089   1.570   4.517
 3772SOL    HW111660   3.110   1.644   4.452
 3772SOL    HW211661   3.157   1.570   4.590
 3773SOL     OW11662   2.321   1.152   4.465
 3773SOL    HW111663   2.250   1.125   4.530
 3773SOL    HW211664   2.295   1.124   4.372
 3774SOL     OW11665   3.133   1.797   4.315
 3774SOL    HW111666   3.177   1.861   4.251
 3774SOL    HW211667   3.083   1.849   4.385
 3775SOL     OW11668   2.894   0.549   3.740
 3775SOL    HW111669   2.853   0.631   3.701
 3775SOL    HW211670   2.958   0.575   3.813
 3776SOL     OW11671   1.940   0.556   5.110
 3776SOL    HW111672   2.032   0.555   5.069
 3776SOL    HW211673   1.934   0.630   5.177
 3777SOL     OW11674   2.423   0.222   4.871
 3777SOL    HW111675   2.461   0.138   4.908
 3777SOL    HW211676   2.335   0.241   4.915
 3778SOL     OW11677   2.728   0.454   4.366
 3778SOL    HW111678   2.696   0.526   4.304
 3778SOL    HW211679   2.752   0.373   4.313
 3779SOL     OW11680   2.879   0.039   4.477
 3779SOL    HW111681   2.807   0.044   4.408
 3779SOL    HW211682   2.855  -0.030   4.546
 3780SOL     OW11683   3.291   1.173   4.591
 3780SOL    HW111684   3.236   1.089   4.584
 3780SOL    HW211685   3.317   1.202   4.499
 3781SOL     OW11686   3.328   0.590   4.716
 3781SOL    HW111687   3.298   0.495   4.723
 3781SOL    HW211688   3.401   0.606   4.782
 3782SOL     OW11689   3.719   0.833   4.101
 3782SOL    HW111690   3.761   0.769   4.165
 3782SOL    HW211691   3.681   0.782   4.023
 3783SOL     OW11692   2.350   1.385   3.898
 3783SOL    HW111693   2.263   1.370   3.945
 3783SOL    HW211694   2.333   1.411   3.803
 3784SOL     OW11695   3.526   1.280   4.381
 3784SOL    HW111696   3.625   1.288   4.395
 3784SOL    HW211697   3.481   1.364   4.412
 3785SOL     OW11698   3.252   0.575   3.802
 3785SOL    HW111699   3.198   0.554   3.883
 3785SOL    HW211700   3.343   0.534   3.811
 3786SOL     OW11701   2.389   0.256   4.052
 3786SOL    HW111702   2.416   0.197   3.977
 3786SOL    HW211703   2.389   0.351   4.021
 3787SOL     OW11704   3.616   1.223   5.312
 3787SOL    HW111705   3.707   1.184   5.299
 3787SOL    HW211706   3.624   1.319   5.336
 3788SOL     OW11707   2.926   1.347   5.064
 3788SOL    HW111708   2.846   1.324   5.119
 3788SOL    HW211709   3.009   1.321   5.113
 3789SOL     OW11710   3.454   1.629   5.349
 3789SOL    HW111711   3.481   1.663   5.259
 3789SOL    HW211712   3.533   1.591   5.395
 3790SOL     OW11713   2.973   1.195   4.824
 3790SOL    HW111714   2.933   1.239   4.905
 3790SOL    HW211715   2.932   1.232   4.741
 3791SOL     OW11716   3.500   1.099   4.803
 3791SOL    HW111717   3.505   1.180   4.862
 3791SOL    HW211718   3.414   1.101   4.752
 3792SOL     OW11719   2.777   0.089   5.126
 3792SOL    HW111720   2.802   0.069   5.031
 3792SOL    HW211721   2.849   0.145   5.168
 3793SOL     OW11722   2.842   1.116   5.443
 3793SOL    HW111723   2.743   1.122   5.453
 3793SOL    HW211724   2.865   1.036   5.387
 3794SOL     OW11725   2.567   1.050   4.092
 3794SOL    HW111726   2.553   1.057   4.191
 3794SOL    HW211727   2.651   0.999   4.074
 3795SOL     OW11728   2.272   0.813   4.975
 3795SOL    HW111729   2.358   0.825   5.025
 3795SOL    HW211730   2.230   0.726   5.002
 3796SOL     OW11731   3.136   0.386   4.986
 3796SOL    HW111732   3.157   0.460   5.050
 3796SOL    HW211733   3.047   0.403   4.943
 3797SOL     OW11734   1.926   1.564   5.055
 3797SOL    HW111735   1.880   1.646   5.021
 3797SOL    HW211736   2.024   1.583   5.064
 3798SOL     OW11737   2.229   1.100   4.225
 3798SOL    HW111738   2.222   1.183   4.169
 3798SOL    HW211739   2.233   1.020   4.165
 3799SOL     OW11740   2.428   0.537   4.589
 3799SOL    HW111741   2.440   0.603   4.515
 3799SOL    HW211742   2.474   0.571   4.672
 3800SOL     OW11743   3.114   1.348   4.112
 3800SOL    HW111744   3.164   1.425   4.152
 3800SOL    HW211745   3.019   1.350   4.144
 3801SOL     OW11746   3.134   1.445   4.866
 3801SOL    HW111747   3.181   1.458   4.953
 3801SOL    HW211748   3.068   1.371   4.875
 3802SOL     OW11749   3.444   0.639   4.196
 3802SOL    HW111750   3.413   0.700   4.269
 3802SOL    HW211751   3.494   0.691   4.127
 3803SOL     OW11752   2.216   1.510   5.053
 3803SOL    HW111753   2.195   1.466   4.966
 3803SOL    HW211754   2.313   1.536   5.056
 3804SOL     OW11755   2.264   0.751   5.322
 3804SOL    HW111756   2.332   0.806   5.275
 3804SOL    HW211757   2.304   0.663   5.349
 3805SOL     OW11758   3.449   0.779   5.394
 3805SOL    HW111759   3.357   0.817   5.389
 3805SOL    HW211760   3.509   0.826   5.329
 3806SOL     OW11761   2.875   0.105   5.494
 3806SOL    HW111762   2.881   0.190   5.442
 3806SOL    HW211763   2.907   0.029   5.437
 3807SOL     OW11764   2.366   0.050   5.464
 3807SOL    HW111765   2.324  -0.007   5.394
 3807SOL    HW211766   2.300   0.119   5.496
 3808SOL     OW11767   2.435   0.870   4.753
 3808SOL    HW111768   2.479   0.959   4.744
 3808SOL    HW211769   2.372   0.870   4.830
 3809SOL     OW11770   3.222   0.862   4.769
 3809SOL    HW111771   3.147   0.862   4.703
 3809SOL    HW211772   3.259   0.770   4.778
 3810SOL     OW11773   3.071   0.525   3.999
 3810SOL    HW111774   3.084   0.441   4.053
 3810SOL    HW211775   3.042   0.599   4.059
 3811SOL     OW11776   2.169   0.213   4.955
 3811SOL    HW111777   2.146   0.250   5.045
 3811SOL    HW211778   2.139   0.118   4.949
 3812SOL     OW11779   1.899   1.310   5.006
 3812SOL    HW111780   1.952   1.261   5.074
 3812SOL    HW211781   1.921   1.408   5.011
 3813SOL     OW11782   2.594   0.634   4.788
 3813SOL    HW111783   2.653   0.608   4.712
 3813SOL    HW211784   2.566   0.730   4.777
 3814SOL     OW11785   3.590   0.935   5.578
 3814SOL    HW111786   3.544   0.928   5.489
 3814SOL    HW211787   3.528   0.979   5.644
 3815SOL     OW11788   2.169   0.063   4.342
 3815SOL    HW111789   2.158   0.157   4.375
 3815SOL    HW211790   2.164   0.000   4.419
 3816SOL     OW11791   3.484   0.367   4.098
 3816SOL    HW111792   3.486   0.291   4.162
 3816SOL    HW211793   3.436   0.444   4.138
 3817SOL     OW11794   2.885   0.766   4.690
 3817SOL    HW111795   2.900   0.787   4.786
 3817SOL    HW211796   2.855   0.671   4.681
 3818SOL     OW11797   2.842   1.573   5.424
 3818SOL    HW111798   2.822   1.617   5.336
 3818SOL    HW211799   2.881   1.482   5.408
 3819SOL     OW11800   3.721   1.518   5.329
 3819SOL    HW111801   3.735   1.545   5.234
 3819SOL    HW211802   3.804   1.540   5.382
 3820SOL     OW11803   2.212   0.898   5.528
 3820SOL    HW111804   2.288   0.942   5.576
 3820SOL    HW211805   2.247   0.851   5.446
 3821SOL     OW11806   3.402   0.274   3.849
 3821SOL    HW111807   3.341   0.199   3.872
 3821SOL    HW211808   3.424   0.326   3.932
 3822SOL     OW11809   3.165   0.838   3.766
 3822SOL    HW111810   3.199   0.745   3.781
 3822SOL    HW211811   3.183   0.865   3.671
 3823SOL     OW11812   2.930   1.333   4.573
 3823SOL    HW111813   2.937   1.249   4.518
 3823SOL    HW211814   2.992   1.402   4.537
 3824SOL     OW11815   2.181   0.810   4.673
 3824SOL    HW111816   2.274   0.846   4.678
 3824SOL    HW211817   2.175   0.725   4.725
 3825SOL     OW11818   2.201   0.509   4.730
 3825SOL    HW111819   2.149   0.426   4.713
 3825SOL    HW211820   2.278   0.514   4.666
 3826SOL     OW11821   3.000   0.380   5.402
 3826SOL    HW111822   2.955   0.443   5.466
 3826SOL    HW211823   3.093   0.411   5.385
 3827SOL     OW11824   3.022   0.207   5.201
 3827SOL    HW111825   3.022   0.271   5.278
 3827SOL    HW211826   3.050   0.255   5.118
 3828SOL     OW11827   1.870   1.326   3.924
 3828SOL    HW111828   1.777   1.347   3.893
 3828SOL    HW211829   1.880   1.227   3.937
 3829SOL     OW11830   1.950   1.801   4.651
 3829SOL    HW111831   1.908   1.715   4.624
 3829SOL    HW211832   2.044   1.804   4.617
 3830SOL     OW11833   2.366   1.568   4.634
 3830SOL    HW111834   2.432   1.642   4.643
 3830SOL    HW211835   2.410   1.489   4.592
 3831SOL     OW11836   2.864   0.796   4.962
 3831SOL    HW111837   2.905   0.764   5.048
 3831SOL    HW211838   2.768   0.769   4.959
 3832SOL     OW11839   1.902   0.544   4.838
 3832SOL    HW111840   1.987   0.511   4.797
 3832SOL    HW211841   1.915   0.559   4.936
 3833SOL     OW11842   2.051   0.520   5.446
 3833SOL    HW111843   2.110   0.480   5.376
 3833SOL    HW211844   1.993   0.591   5.405
 3834SOL     OW11845   3.231   0.950   5.384
 3834SOL    HW111846   3.270   1.039   5.404
 3834SOL    HW211847   3.241   0.930   5.287
 3835SOL     OW11848   2.677   0.572   4.049
 3835SOL    HW111849   2.684   0.483   4.003
 3835SOL    HW211850   2.583   0.606   4.041
 3836SOL     OW11851   3.519   0.604   4.930
 3836SOL    HW111852   3.481   0.535   4.992
 3836SOL    HW211853   3.601   0.568   4.886
 3837SOL     OW11854   2.114   1.564   5.468
 3837SOL    HW111855   2.084   1.621   5.544
 3837SOL    HW211856   2.107   1.467   5.494
 3838SOL     OW11857   2.533   0.464   4.993
 3838SOL    HW111858   2.499   0.375   4.963
 3838SOL    HW211859   2.559   0.518   4.913
 3839SOL     OW11860   2.792   1.678   5.189
 3839SOL    HW111861   2.768   1.660   5.094
 3839SOL    HW211862   2.822   1.772   5.199
 3840SOL     OW11863   2.335   0.500   3.915
 3840SOL    HW111864   2.396   0.580   3.919
 3840SOL    HW211865   2.240   0.531   3.922
 3841SOL     OW11866   2.021   1.137   5.190
 3841SOL    HW111867   2.043   1.076   5.266
 3841SOL    HW211868   2.031   1.088   5.104
 3842SOL     OW11869   3.209   1.059   4.958
 3842SOL    HW111870   3.233   0.996   4.884
 3842SOL    HW211871   3.119   1.099   4.940
 3843SOL     OW11872   3.164   0.855   4.033
 3843SOL    HW111873   3.078   0.824   4.075
 3843SOL    HW211874   3.160   0.841   3.934
 3844SOL     OW11875   3.621   1.747   4.878
 3844SOL    HW111876   3.682   1.777   4.805
 3844SOL    HW211877   3.583   1.658   4.856
 3845SOL     OW11878   3.114   1.731   4.852
 3845SOL    HW111879   3.198   1.736   4.798
 3845SOL    HW211880   3.091   1.635   4.870
 3846SOL     OW11881   1.945   1.258   4.746
 3846SOL    HW111882   1.940   1.257   4.846
 3846SOL    HW211883   1.862   1.217   4.708
 3847SOL     OW11884   2.550   1.662   5.440
 3847SOL    HW111885   2.494   1.743   5.449
 3847SOL    HW211886   2.602   1.666   5.354
 3848SOL     OW11887   3.588   0.135   4.247
 3848SOL    HW111888   3.661   0.118   4.180
 3848SOL    HW211889   3.557   0.048   4.285
 3849SOL     OW11890   3.250   1.573   4.201
 3849SOL    HW111891   3.317   1.585   4.127
 3849SOL    HW211892   3.210   1.662   4.224
 3850SOL     OW11893   1.992   1.794   5.575
 3850SOL    HW111894   1.951   1.720   5.628
 3850SOL    HW211895   2.056   1.845   5.633
 3851SOL     OW11896   3.142   0.927   4.396
 3851SOL    HW111897   3.202   0.846   4.398
 3851SOL    HW211898   3.182   0.996   4.336
 3852SOL     OW11899   2.692   1.273   5.146
 3852SOL    HW111900   2.687   1.306   5.241
 3852SOL    HW211901   2.606   1.292   5.100
 3853SOL     OW11902   2.534   1.616   3.878
 3853SOL    HW111903   2.543   1.626   3.779
 3853SOL    HW211904   2.494   1.527   3.899
 3854SOL     OW11905   3.512   1.720   5.118
 3854SOL    HW111906   3.565   1.730   5.034
 3854SOL    HW211907   3.485   1.810   5.152
 3855SOL     OW11908   3.703   0.175   4.687
 3855SOL    HW111909   3.742   0.090   4.651
 3855SOL    HW211910   3.605   0.177   4.668
 3856SOL     OW11911   2.125   0.326   4.444
 3856SOL    HW111912   2.046   0.377   4.410
 3856SOL    HW211913   2.116   0.311   4.542
 3857SOL     OW11914   3.056   1.612   3.755
 3857SOL    HW111915   3.062   1.519   3.792
 3857SOL    HW211916   2.997   1.612   3.675
 3858SOL     OW11917   2.684   1.002   5.096
 3858SOL    HW111918   2.724   1.001   5.004
 3858SOL    HW211919   2.694   1.094   5.136
 3859SOL     OW11920   2.778   0.910   4.015
 3859SOL    HW111921   2.841   0.948   3.947
 3859SOL    HW211922   2.818   0.827   4.054
 3860SOL     OW11923   3.366   1.607   3.768
 3860SOL    HW111924   3.274   1.644   3.775
 3860SOL    HW211925   3.404   1.627   3.678
 3861SOL     OW11926   2.234   1.288   5.214
 3861SOL    HW111927   2.221   1.381   5.180
 3861SOL    HW211928   2.150   1.236   5.201
 3862SOL     OW11929   3.476   1.292   5.013
 3862SOL    HW111930   3.536   1.295   5.093
 3862SOL    HW211931   3.401   1.356   5.026
 3863SOL     OW11932   2.901   1.098   4.420
 3863SOL    HW111933   2.831   1.051   4.474
 3863SOL    HW211934   2.960   1.030   4.377
 3864SOL     OW11935   2.876   0.236   4.695
 3864SOL    HW111936   2.868   0.200   4.602
 3864SOL    HW211937   2.874   0.160   4.760
 3865SOL     OW11938   2.452   1.487   4.215
 3865SOL    HW111939   2.494   1.429   4.145
 3865SOL    HW211940   2.408   1.566   4.171
 3866SOL     OW11941   3.571   0.385   5.105
 3866SOL    HW111942   3.644   0.454   5.109
 3866SOL    HW211943   3.599   0.310   5.046
 3867SOL     OW11944   2.117   1.348   4.014
 3867SOL    HW111945   2.021   1.349   3.987
 3867SOL    HW211946   2.129   1.401   4.098
 3868SOL     OW11947   1.967   1.013   5.450
 3868SOL    HW111948   1.890   0.980   5.504
 3868SOL    HW211949   2.052   0.983   5.492
 3869SOL     OW11950   2.534   0.203   5.213
 3869SOL    HW111951   2.624   0.187   5.173
 3869SOL    HW211952   2.542   0.208   5.312
 3870SOL     OW11953   1.937   0.345   3.757
 3870SOL    HW111954   1.845   0.317   3.728
 3870SOL    HW211955   1.968   0.422   3.701
 3871SOL     OW11956   3.302   0.856   5.122
 3871SOL    HW111957   3.245   0.908   5.059
 3871SOL    HW211958   3.398   0.868   5.098
 3872SOL     OW11959   1.934   0.166   4.042
 3872SOL    HW111960   1.917   0.249   3.988
 3872SOL    HW211961   2.024   0.129   4.020
 3873SOL     OW11962   3.045   1.335   3.843
 3873SOL    HW111963   2.946   1.324   3.845
 3873SOL    HW211964   3.079   1.350   3.936
 3874SOL     OW11965   2.475   0.842   5.155
 3874SOL    HW111966   2.531   0.923   5.138
 3874SOL    HW211967   2.534   0.762   5.158
 3875SOL     OW11968   3.355   1.767   4.683
 3875SOL    HW111969   3.388   1.831   4.614
 3875SOL    HW211970   3.421   1.761   4.758
 3876SOL     OW11971   2.578   0.565   5.432
 3876SOL    HW111972   2.597   0.630   5.506
 3876SOL    HW211973   2.638   0.485   5.441
 3877SOL     OW11974   3.312   1.220   5.357
 3877SOL    HW111975   3.303   1.210   5.456
 3877SOL    HW211976   3.408   1.213   5.331
 3878SOL     OW11977   2.252   1.741   5.284
 3878SOL    HW111978   2.161   1.782   5.282
 3878SOL    HW211979   2.245   1.647   5.316
 3879SOL     OW11980   3.536   0.883   4.978
 3879SOL    HW111981   3.509   0.794   4.941
 3879SOL    HW211982   3.537   0.951   4.905
 3880SOL     OW11983   3.087   0.325   4.173
 3880SOL    HW111984   3.152   0.251   4.162
 3880SOL    HW211985   3.107   0.375   4.257
 3881SOL     OW11986   2.456   0.745   4.376
 3881SOL    HW111987   2.506   0.830   4.357
 3881SOL    HW211988   2.368   0.747   4.328
 3882SOL     OW11989   3.639   0.342   5.366
 3882SOL    HW111990   3.622   0.373   5.272
 3882SOL    HW211991   3.555   0.305   5.404
 3883SOL     OW11992   3.592   0.934   5.241
 3883SOL    HW111993   3.630   1.025   5.256
 3883SOL    HW211994   3.584   0.917   5.142
 3884SOL     OW11995   2.721   1.374   3.740
 3884SOL    HW111996   2.675   1.389   3.828
 3884SOL    HW211997   2.765   1.459   3.710
 3885SOL     OW11998   2.523   1.790   4.677
 3885SOL    HW111999   2.477   1.878   4.664
 3885SOL    HW212000   2.622   1.802   4.670
 3886SOL     OW12001   2.721   0.956   4.585
 3886SOL    HW112002   2.775   0.887   4.633
 3886SOL    HW212003   2.689   1.025   4.651
 3887SOL     OW12004   2.945   0.984   3.811
 3887SOL    HW112005   2.922   1.037   3.729
 3887SOL    HW212006   3.026   0.928   3.792
 3888SOL     OW12007   3.723   1.569   4.575
 3888SOL    HW112008   3.652   1.557   4.505
 3888SOL    HW212009   3.724   1.490   4.635
 3889SOL     OW12010   2.083   1.314   5.568
 3889SOL    HW112011   2.018   1.241   5.547
 3889SOL    HW212012   2.087   1.328   5.666
 3890SOL     OW12013   1.941   1.240   4.377
 3890SOL    HW112014   1.940   1.193   4.465
 3890SOL    HW212015   2.023   1.212   4.326
 3891SOL     OW12016   2.534   1.391   5.348
 3891SOL    HW112017   2.456   1.341   5.386
 3891SOL    HW212018   2.531   1.486   5.379
 3892SOL     OW12019   3.686   0.192   4.951
 3892SOL    HW112020   3.682   0.102   4.995
 3892SOL    HW212021   3.689   0.181   4.852
 3893SOL     OW12022   2.290   0.424   4.244
 3893SOL    HW112023   2.320   0.352   4.182
 3893SOL    HW212024   2.251   0.384   4.327
 3894SOL     OW12025   3.567   1.487   4.828
 3894SOL    HW112026   3.474   1.462   4.801
 3894SOL    HW212027   3.593   1.437   4.910
 3895SOL     OW12028   2.179   0.547   5.004
 3895SOL    HW112029   2.217   0.488   5.076
 3895SOL    HW212030   2.219   0.521   4.916
 3896SOL     OW12031   2.674   1.586   4.411
 3896SOL    HW112032   2.706   1.596   4.317
 3896SOL    HW212033   2.595   1.524   4.413
 3897SOL     OW12034   3.286   0.214   4.836
 3897SOL    HW112035   3.338   0.149   4.891
 3897SOL    HW212036   3.237   0.277   4.897
 3898SOL     OW12037   2.863   0.034   4.878
 3898SOL    HW112038   2.800  -0.038   4.847
 3898SOL    HW212039   2.956  -0.002   4.878
 3899SOL     OW12040   2.632   1.330   4.025
 3899SOL    HW112041   2.586   1.243   4.042
 3899SOL    HW212042   2.723   1.327   4.066
 3900SOL     OW12043   2.480   1.567   5.008
 3900SOL    HW112044   2.475   1.649   5.065
 3900SOL    HW212045   2.569   1.564   4.963
 3901SOL     OW12046   3.214   0.052   3.892
 3901SOL    HW112047   3.249   0.011   3.808
 3901SOL    HW212048   3.124   0.014   3.912
 3902SOL     OW12049   3.162   0.453   4.415
 3902SOL    HW112050   3.103   0.533   4.419
 3902SOL    HW212051   3.177   0.418   4.508
 3903SOL     OW12052   3.455   0.221   4.606
 3903SOL    HW112053   3.371   0.220   4.660
 3903SOL    HW212054   3.457   0.304   4.550
 3904SOL     OW12055   1.901   1.077   4.024
 3904SOL    HW112056   2.000   1.066   4.015
 3904SOL    HW212057   1.861   0.991   4.056
 3905SOL     OW12058   2.737   1.646   4.061
 3905SOL    HW112059   2.660   1.611   4.007
 3905SOL    HW212060   2.705   1.717   4.123
 3906SOL     OW12061   2.092   0.628   5.699
 3906SOL    HW112062   1.999   0.626   5.736
 3906SOL    HW212063   2.093   0.589   5.607
 3907SOL     OW12064   2.087   0.275   6.582
 3907SOL    HW112065   2.122   0.258   6.674
 3907SOL    HW212066   1.999   0.230   6.570
 3908SOL     OW12067   1.881   0.368   6.233
 3908SOL    HW112068   1.799   0.411   6.272
 3908SOL    HW212069   1.853   0.295   6.170
 3909SOL     OW12070   2.431   1.275   6.751
 3909SOL    HW112071   2.338   1.268   6.714
 3909SOL    HW212072   2.442   1.364   6.795
 3910SOL     OW12073   3.417   1.511   6.289
 3910SOL    HW112074   3.360   1.495   6.370
 3910SOL    HW212075   3.358   1.521   6.209
 3911SOL     OW12076   2.997   0.703   6.303
 3911SOL    HW112077   3.054   0.781   6.278
 3911SOL    HW212078   2.937   0.729   6.379
 3912SOL     OW12079   3.617   0.607   5.817
 3912SOL    HW112080   3.605   0.594   5.718
 3912SOL    HW212081   3.587   0.526   5.866
 3913SOL     OW12082   2.547   1.012   6.251
 3913SOL    HW112083   2.616   0.996   6.321
 3913SOL    HW212084   2.474   1.069   6.289
 3914SOL     OW12085   2.197   1.435   6.647
 3914SOL    HW112086   2.119   1.404   6.594
 3914SOL    HW212087   2.255   1.493   6.590
 3915SOL     OW12088   3.465   0.447   6.323
 3915SOL    HW112089   3.391   0.493   6.273
 3915SOL    HW212090   3.516   0.515   6.376
 3916SOL     OW12091   2.093   1.713   6.069
 3916SOL    HW112092   2.127   1.790   6.123
 3916SOL    HW212093   2.137   1.713   5.979
 3917SOL     OW12094   2.092   1.434   6.124
 3917SOL    HW112095   2.066   1.530   6.124
 3917SOL    HW212096   2.021   1.380   6.169
 3918SOL     OW12097   2.102   1.091   6.472
 3918SOL    HW112098   2.116   1.007   6.524
 3918SOL    HW212099   2.047   1.155   6.527
 3919SOL     OW12100   2.468   0.964   5.709
 3919SOL    HW112101   2.475   1.048   5.655
 3919SOL    HW212102   2.514   0.977   5.797
 3920SOL     OW12103   1.984   0.643   6.149
 3920SOL    HW112104   1.939   0.555   6.166
 3920SOL    HW212105   1.983   0.697   6.233
 3921SOL     OW12106   3.704   1.767   5.945
 3921SOL    HW112107   3.758   1.738   6.025
 3921SOL    HW212108   3.734   1.857   5.916
 3922SOL     OW12109   1.889   1.596   5.703
 3922SOL    HW112110   1.870   1.500   5.724
 3922SOL    HW212111   1.856   1.654   5.778
 3923SOL     OW12112   3.551   0.922   6.198
 3923SOL    HW112113   3.646   0.893   6.206
 3923SOL    HW212114   3.543   0.987   6.123
 3924SOL     OW12115   3.503   1.108   6.018
 3924SOL    HW112116   3.589   1.110   5.966
 3924SOL    HW212117   3.517   1.155   6.106
 3925SOL     OW12118   2.475   1.365   6.312
 3925SOL    HW112119   2.426   1.278   6.321
 3925SOL    HW212120   2.452   1.408   6.225
 3926SOL     OW12121   2.671   0.004   6.088
 3926SOL    HW112122   2.711   0.095   6.079
 3926SOL    HW212123   2.571   0.012   6.094
 3927SOL     OW12124   3.387   0.999   5.776
 3927SOL    HW112125   3.324   0.923   5.789
 3927SOL    HW212126   3.435   1.017   5.862
 3928SOL     OW12127   3.529   1.714   6.158
 3928SOL    HW112128   3.488   1.691   6.070
 3928SOL    HW212129   3.511   1.640   6.223
 3929SOL     OW12130   2.460   0.729   5.856
 3929SOL    HW112131   2.484   0.798   5.788
 3929SOL    HW212132   2.382   0.762   5.910
 3930SOL     OW12133   3.143   0.345   6.530
 3930SOL    HW112134   3.057   0.295   6.517
 3930SOL    HW212135   3.205   0.291   6.586
 3931SOL     OW12136   3.438   1.662   5.893
 3931SOL    HW112137   3.527   1.708   5.896
 3931SOL    HW212138   3.417   1.638   5.798
 3932SOL     OW12139   2.853   0.410   6.828
 3932SOL    HW112140   2.776   0.444   6.882
 3932SOL    HW212141   2.819   0.359   6.749
 3933SOL     OW12142   2.903   0.701   6.015
 3933SOL    HW112143   2.929   0.697   6.111
 3933SOL    HW212144   2.818   0.650   6.001
 3934SOL     OW12145   1.938   0.811   6.375
 3934SOL    HW112146   2.037   0.799   6.384
 3934SOL    HW212147   1.914   0.906   6.396
 3935SOL     OW12148   2.727   0.348   5.781
 3935SOL    HW112149   2.786   0.411   5.732
 3935SOL    HW212150   2.746   0.254   5.752
 3936SOL     OW12151   3.224   1.144   6.131
 3936SOL    HW112152   3.307   1.115   6.083
 3936SOL    HW212153   3.175   1.211   6.075
 3937SOL     OW12154   2.412   0.196   6.471
 3937SOL    HW112155   2.407   0.191   6.571
 3937SOL    HW212156   2.414   0.292   6.442
 3938SOL     OW12157   2.870   1.456   6.063
 3938SOL    HW112158   2.824   1.528   6.011
 3938SOL    HW212159   2.866   1.476   6.161
 3939SOL     OW12160   2.213   1.801   6.439
 3939SOL    HW112161   2.263   1.715   6.445
 3939SOL    HW212162   2.278   1.878   6.436
 3940SOL     OW12163   2.183   0.943   5.828
 3940SOL    HW112164   2.265   0.982   5.786
 3940SOL    HW212165   2.156   0.861   5.779
 3941SOL     OW12166   3.320   0.735   6.314
 3941SOL    HW112167   3.315   0.670   6.389
 3941SOL    HW212168   3.400   0.794   6.327
 3942SOL     OW12169   2.973   1.776   5.823
 3942SOL    HW112170   2.913   1.714   5.873
 3942SOL    HW212171   3.004   1.732   5.738
 3943SOL     OW12172   3.494   1.377   5.667
 3943SOL    HW112173   3.462   1.471   5.657
 3943SOL    HW212174   3.418   1.314   5.655
 3944SOL     OW12175   2.326   1.743   5.909
 3944SOL    HW112176   2.359   1.782   5.995
 3944SOL    HW212177   2.402   1.736   5.844
 3945SOL     OW12178   3.262   0.107   6.012
 3945SOL    HW112179   3.238   0.070   5.922
 3945SOL    HW212180   3.361   0.123   6.016
 3946SOL     OW12181   2.111   1.785   6.827
 3946SOL    HW112182   2.168   1.720   6.877
 3946SOL    HW212183   2.095   1.752   6.734
 3947SOL     OW12184   2.802   1.698   6.490
 3947SOL    HW112185   2.882   1.641   6.511
 3947SOL    HW212186   2.753   1.658   6.413
 3948SOL     OW12187   2.244   0.700   6.066
 3948SOL    HW112188   2.289   0.610   6.063
 3948SOL    HW212189   2.150   0.689   6.099
 3949SOL     OW12190   2.476   0.122   5.703
 3949SOL    HW112191   2.574   0.100   5.710
 3949SOL    HW212192   2.445   0.105   5.610
 3950SOL     OW12193   2.665   1.402   6.510
 3950SOL    HW112194   2.755   1.416   6.468
 3950SOL    HW212195   2.594   1.404   6.439
 3951SOL     OW12196   2.401   0.064   6.098
 3951SOL    HW112197   2.320   0.065   6.156
 3951SOL    HW212198   2.404   0.147   6.043
 3952SOL     OW12199   3.296   1.188   5.627
 3952SOL    HW112200   3.328   1.112   5.684
 3952SOL    HW212201   3.204   1.215   5.657
 3953SOL     OW12202   2.159   0.035   5.757
 3953SOL    HW112203   2.208   0.119   5.736
 3953SOL    HW212204   2.221  -0.030   5.802
 3954SOL     OW12205   2.797   0.236   6.066
 3954SOL    HW112206   2.749   0.277   5.988
 3954SOL    HW212207   2.896   0.234   6.047
 3955SOL     OW12208   3.089   1.570   6.379
 3955SOL    HW112209   3.110   1.644   6.314
 3955SOL    HW212210   3.157   1.570   6.452
 3956SOL     OW12211   2.321   1.152   6.327
 3956SOL    HW112212   2.250   1.125   6.392
 3956SOL    HW212213   2.295   1.124   6.234
 3957SOL     OW12214   3.133   1.797   6.177
 3957SOL    HW112215   3.177   1.861   6.113
 3957SOL    HW212216   3.083   1.849   6.247
 3958SOL     OW12217   2.894   0.549   5.602
 3958SOL    HW112218   2.853   0.631   5.563
 3958SOL    HW212219   2.958   0.575   5.675
 3959SOL     OW12220   2.423   0.222   6.733
 3959SOL    HW112221   2.461   0.138   6.770
 3959SOL    HW212222   2.335   0.241   6.777
 3960SOL     OW12223   2.728   0.454   6.228
 3960SOL    HW112224   2.696   0.526   6.166
 3960SOL    HW212225   2.752   0.373   6.175
 3961SOL     OW12226   2.879   0.039   6.339
 3961SOL    HW112227   2.807   0.044   6.270
 3961SOL    HW212228   2.855  -0.030   6.408
 3962SOL     OW12229   3.291   1.173   6.453
 3962SOL    HW112230   3.236   1.089   6.446
 3962SOL    HW212231   3.317   1.202   6.361
 3963SOL     OW12232   3.328   0.590   6.578
 3963SOL    HW112233   3.298   0.495   6.585
 3963SOL    HW212234   3.401   0.606   6.644
 3964SOL     OW12235   3.719   0.833   5.963
 3964SOL    HW112236   3.761   0.769   6.027
 3964SOL    HW212237   3.681   0.782   5.885
 3965SOL     OW12238   2.350   1.385   5.760
 3965SOL    HW112239   2.263   1.370   5.807
 3965SOL    HW212240   2.333   1.411   5.665
 3966SOL     OW12241   3.526   1.280   6.243
 3966SOL    HW112242   3.625   1.288   6.257
 3966SOL    HW212243   3.481   1.364   6.274
 3967SOL     OW12244   3.252   0.575   5.664
 3967SOL    HW112245   3.198   0.554   5.745
 3967SOL    HW212246   3.343   0.534   5.673
 3968SOL     OW12247   2.389   0.256   5.914
 3968SOL    HW112248   2.416   0.197   5.839
 3968SOL    HW212249   2.389   0.351   5.883
 3969SOL     OW12250   3.500   1.099   6.665
 3969SOL    HW112251   3.505   1.180   6.724
 3969SOL    HW212252   3.414   1.101   6.614
 3970SOL     OW12253   2.567   1.050   5.954
 3970SOL    HW112254   2.553   1.057   6.053
 3970SOL    HW212255   2.651   0.999   5.936
 3971SOL     OW12256   2.229   1.100   6.087
 3971SOL    HW112257   2.222   1.183   6.031
 3971SOL    HW212258   2.233   1.020   6.027
 3972SOL     OW12259   2.428   0.537   6.451
 3972SOL    HW112260   2.440   0.603   6.377
 3972SOL    HW212261   2.474   0.571   6.534
 3973SOL     OW12262   3.114   1.348   5.974
 3973SOL    HW112263   3.164   1.425   6.014
 3973SOL    HW212264   3.019   1.350   6.006
 3974SOL     OW12265   3.444   0.639   6.058
 3974SOL    HW112266   3.413   0.700   6.131
 3974SOL    HW212267   3.494   0.691   5.989
 3975SOL     OW12268   2.435   0.870   6.615
 3975SOL    HW112269   2.479   0.959   6.606
 3975SOL    HW212270   2.372   0.870   6.692
 3976SOL     OW12271   3.071   0.525   5.861
 3976SOL    HW112272   3.084   0.441   5.915
 3976SOL    HW212273   3.042   0.599   5.921
 3977SOL     OW12274   2.594   0.634   6.650
 3977SOL    HW112275   2.653   0.608   6.574
 3977SOL    HW212276   2.566   0.730   6.639
 3978SOL     OW12277   2.169   0.063   6.204
 3978SOL    HW112278   2.158   0.157   6.237
 3978SOL    HW212279   2.164   0.000   6.281
 3979SOL     OW12280   3.484   0.367   5.960
 3979SOL    HW112281   3.486   0.291   6.024
 3979SOL    HW212282   3.436   0.444   6.000
 3980SOL     OW12283   3.402   0.274   5.711
 3980SOL    HW112284   3.341   0.199   5.734
 3980SOL    HW212285   3.424   0.326   5.794
 3981SOL     OW12286   3.165   0.838   5.628
 3981SOL    HW112287   3.199   0.745   5.643
 3981SOL    HW212288   3.183   0.865   5.533
 3982SOL     OW12289   2.930   1.333   6.435
 3982SOL    HW112290   2.937   1.249   6.380
 3982SOL    HW212291   2.992   1.402   6.399
 3983SOL     OW12292   2.181   0.810   6.535
 3983SOL    HW112293   2.274   0.846   6.540
 3983SOL    HW212294   2.175   0.725   6.587
 3984SOL     OW12295   2.201   0.509   6.592
 3984SOL    HW112296   2.149   0.426   6.575
 3984SOL    HW212297   2.278   0.514   6.528
 3985SOL     OW12298   1.870   1.326   5.786
 3985SOL    HW112299   1.777   1.347   5.755
 3985SOL    HW212300   1.880   1.227   5.799
 3986SOL     OW12301   1.950   1.801   6.513
 3986SOL    HW112302   1.908   1.715   6.486
 3986SOL    HW212303   2.044   1.804   6.479
 3987SOL     OW12304   2.366   1.568   6.496
 3987SOL    HW112305   2.432   1.642   6.505
 3987SOL    HW212306   2.410   1.489   6.454
 3988SOL     OW12307   1.902   0.544   6.700
 3988SOL    HW112308   1.987   0.511   6.659
 3988SOL    HW212309   1.915   0.559   6.798
 3989SOL     OW12310   2.677   0.572   5.911
 3989SOL    HW112311   2.684   0.483   5.865
 3989SOL    HW212312   2.583   0.606   5.903
 3990SOL     OW12313   2.533   0.464   6.855
 3990SOL    HW112314   2.499   0.375   6.825
 3990SOL    HW212315   2.559   0.518   6.775
 3991SOL     OW12316   2.335   0.500   5.777
 3991SOL    HW112317   2.396   0.580   5.781
 3991SOL    HW212318   2.240   0.531   5.784
 3992SOL     OW12319   3.164   0.855   5.895
 3992SOL    HW112320   3.078   0.824   5.937
 3992SOL    HW212321   3.160   0.841   5.796
 3993SOL     OW12322   1.945   1.258   6.608
 3993SOL    HW112323   1.940   1.257   6.708
 3993SOL    HW212324   1.862   1.217   6.570
 3994SOL     OW12325   3.588   0.135   6.109
 3994SOL    HW112326   3.661   0.118   6.042
 3994SOL    HW212327   3.557   0.048   6.147
 3995SOL     OW12328   3.250   1.573   6.063
 3995SOL    HW112329   3.317   1.585   5.989
 3995SOL    HW212330   3.210   1.662   6.086
 3996SOL     OW12331   3.142   0.927   6.258
 3996SOL    HW112332   3.202   0.846   6.260
 3996SOL    HW212333   3.182   0.996   6.198
 3997SOL     OW12334   2.534   1.616   5.740
 3997SOL    HW112335   2.543   1.626   5.641
 3997SOL    HW212336   2.494   1.527   5.761
 3998SOL     OW12337   3.703   0.175   6.549
 3998SOL    HW112338   3.742   0.090   6.513
 3998SOL    HW212339   3.605   0.177   6.530
 3999SOL     OW12340   2.125   0.326   6.306
 3999SOL    HW112341   2.046   0.377   6.272
 3999SOL    HW212342   2.116   0.311   6.404
 4000SOL     OW12343   3.056   1.612   5.617
 4000SOL    HW112344   3.062   1.519   5.654
 4000SOL    HW212345   2.997   1.612   5.537
 4001SOL     OW12346   2.778   0.910   5.877
 4001SOL    HW112347   2.841   0.948   5.809
 4001SOL    HW212348   2.818   0.827   5.916
 4002SOL     OW12349   3.366   1.607   5.630
 4002SOL    HW112350   3.274   1.644   5.637
 4002SOL    HW212351   3.404   1.627   5.540
 4003SOL     OW12352   2.901   1.098   6.282
 4003SOL    HW112353   2.831   1.051   6.336
 4003SOL    HW212354   2.960   1.030   6.239
 4004SOL     OW12355   2.452   1.487   6.077
 4004SOL    HW112356   2.494   1.429   6.007
 4004SOL    HW212357   2.408   1.566   6.033
 4005SOL     OW12358   2.117   1.348   5.876
 4005SOL    HW112359   2.021   1.349   5.849
 4005SOL    HW212360   2.129   1.401   5.960
 4006SOL     OW12361   1.937   0.345   5.619
 4006SOL    HW112362   1.845   0.317   5.590
 4006SOL    HW212363   1.968   0.422   5.563
 4007SOL     OW12364   1.934   0.166   5.904
 4007SOL    HW112365   1.917   0.249   5.850
 4007SOL    HW212366   2.024   0.129   5.882
 4008SOL     OW12367   3.045   1.335   5.705
 4008SOL    HW112368   2.946   1.324   5.707
 4008SOL    HW212369   3.079   1.350   5.798
 4009SOL     OW12370   3.355   1.767   6.545
 4009SOL    HW112371   3.388   1.831   6.476
 4009SOL    HW212372   3.421   1.761   6.620
 4010SOL     OW12373   3.087   0.325   6.035
 4010SOL    HW112374   3.152   0.251   6.024
 4010SOL    HW212375   3.107   0.375   6.119
 4011SOL     OW12376   2.456   0.745   6.238
 4011SOL    HW112377   2.506   0.830   6.219
 4011SOL    HW212378   2.368   0.747   6.190
 4012SOL     OW12379   2.721   1.374   5.602
 4012SOL    HW112380   2.675   1.389   5.690
 4012SOL    HW212381   2.765   1.459   5.572
 4013SOL     OW12382   2.523   1.790   6.539
 4013SOL    HW112383   2.477   1.878   6.526
 4013SOL    HW212384   2.622   1.802   6.532
 4014SOL     OW12385   2.721   0.956   6.447
 4014SOL    HW112386   2.775   0.887   6.495
 4014SOL    HW212387   2.689   1.025   6.513
 4015SOL     OW12388   2.945   0.984   5.673
 4015SOL    HW112389   2.922   1.037   5.591
 4015SOL    HW212390   3.026   0.928   5.654
 4016SOL     OW12391   1.941   1.240   6.239
 4016SOL    HW112392   1.940   1.193   6.327
 4016SOL    HW212393   2.023   1.212   6.188
 4017SOL     OW12394   3.686   0.192   6.813
 4017SOL    HW112395   3.682   0.102   6.857
 4017SOL    HW212396   3.689   0.181   6.714
 4018SOL     OW12397   2.290   0.424   6.106
 4018SOL    HW112398   2.320   0.352   6.044
 4018SOL    HW212399   2.251   0.384   6.189
 4019SOL     OW12400   2.179   0.547   6.866
 4019SOL    HW112401   2.217   0.488   6.938
 4019SOL    HW212402   2.219   0.521   6.778
 4020SOL     OW12403   2.674   1.586   6.273
 4020SOL    HW112404   2.706   1.596   6.179
 4020SOL    HW212405   2.595   1.524   6.275
 4021SOL     OW12406   2.632   1.330   5.887
 4021SOL    HW112407   2.586   1.243   5.904
 4021SOL    HW212408   2.723   1.327   5.928
 4022SOL     OW12409   3.214   0.052   5.754
 4022SOL    HW112410   3.249   0.011   5.670
 4022SOL    HW212411   3.124   0.014   5.774
 4023SOL     OW12412   3.162   0.453   6.277
 4023SOL    HW112413   3.103   0.533   6.281
 4023SOL    HW212414   3.177   0.418   6.370
 4024SOL     OW12415   3.455   0.221   6.468
 4024SOL    HW112416   3.371   0.220   6.522
 4024SOL    HW212417   3.457   0.304   6.412
 4025SOL     OW12418   1.901   1.077   5.886
 4025SOL    HW112419   2.000   1.066   5.877
 4025SOL    HW212420   1.861   0.991   5.918
 4026SOL     OW12421   2.737   1.646   5.923
 4026SOL    HW112422   2.660   1.611   5.869
 4026SOL    HW212423   2.705   1.717   5.985
 4027SOL     OW12424   2.092   2.490   0.113
 4027SOL    HW112425   1.999   2.488   0.150
 4027SOL    HW212426   2.093   2.451   0.021
 4028SOL     OW12427   2.087   2.137   0.996
 4028SOL    HW112428   2.122   2.120   1.088
 4028SOL    HW212429   1.999   2.092   0.984
 4029SOL     OW12430   1.881   2.230   0.647
 4029SOL    HW112431   1.799   2.273   0.686
 4029SOL    HW212432   1.853   2.157   0.584
 4030SOL     OW12433   2.431   3.137   1.165
 4030SOL    HW112434   2.338   3.130   1.128
 4030SOL    HW212435   2.442   3.226   1.209
 4031SOL     OW12436   3.417   3.373   0.703
 4031SOL    HW112437   3.360   3.357   0.784
 4031SOL    HW212438   3.358   3.383   0.623
 4032SOL     OW12439   2.997   2.565   0.717
 4032SOL    HW112440   3.054   2.643   0.692
 4032SOL    HW212441   2.937   2.591   0.793
 4033SOL     OW12442   2.630   3.006   1.023
 4033SOL    HW112443   2.552   3.023   1.083
 4033SOL    HW212444   2.664   3.093   0.987
 4034SOL     OW12445   2.712   2.660   1.823
 4034SOL    HW112446   2.708   2.736   1.888
 4034SOL    HW212447   2.734   2.696   1.732
 4035SOL     OW12448   2.547   2.874   0.665
 4035SOL    HW112449   2.616   2.858   0.735
 4035SOL    HW212450   2.474   2.931   0.703
 4036SOL     OW12451   2.548   3.023   1.803
 4036SOL    HW112452   2.608   3.102   1.817
 4036SOL    HW212453   2.462   3.054   1.762
 4037SOL     OW12454   2.197   3.297   1.061
 4037SOL    HW112455   2.119   3.266   1.008
 4037SOL    HW212456   2.255   3.355   1.004
 4038SOL     OW12457   3.322   3.367   1.339
 4038SOL    HW112458   3.346   3.461   1.365
 4038SOL    HW212459   3.306   3.313   1.421
 4039SOL     OW12460   2.300   2.254   1.499
 4039SOL    HW112461   2.382   2.198   1.508
 4039SOL    HW212462   2.219   2.196   1.503
 4040SOL     OW12463   3.465   2.309   0.737
 4040SOL    HW112464   3.391   2.355   0.687
 4040SOL    HW212465   3.516   2.377   0.790
 4041SOL     OW12466   2.093   3.575   0.483
 4041SOL    HW112467   2.127   3.652   0.537
 4041SOL    HW212468   2.137   3.575   0.393
 4042SOL     OW12469   2.989   3.203   1.690
 4042SOL    HW112470   3.036   3.203   1.778
 4042SOL    HW212471   2.941   3.116   1.679
 4043SOL     OW12472   2.092   3.296   0.538
 4043SOL    HW112473   2.066   3.392   0.538
 4043SOL    HW212474   2.021   3.242   0.583
 4044SOL     OW12475   2.102   2.953   0.886
 4044SOL    HW112476   2.116   2.869   0.938
 4044SOL    HW212477   2.047   3.017   0.941
 4045SOL     OW12478   2.482   3.648   1.439
 4045SOL    HW112479   2.390   3.631   1.474
 4045SOL    HW212480   2.510   3.740   1.465
 4046SOL     OW12481   2.468   2.826   0.123
 4046SOL    HW112482   2.475   2.910   0.069
 4046SOL    HW212483   2.514   2.839   0.211
 4047SOL     OW12484   3.456   1.976   1.480
 4047SOL    HW112485   3.438   2.043   1.408
 4047SOL    HW212486   3.453   2.022   1.569
 4048SOL     OW12487   1.984   2.505   0.563
 4048SOL    HW112488   1.939   2.417   0.580
 4048SOL    HW212489   1.983   2.559   0.647
 4049SOL     OW12490   1.889   3.458   0.117
 4049SOL    HW112491   1.870   3.362   0.138
 4049SOL    HW212492   1.856   3.516   0.192
 4050SOL     OW12493   3.551   2.784   0.612
 4050SOL    HW112494   3.646   2.755   0.620
 4050SOL    HW212495   3.543   2.849   0.537
 4051SOL     OW12496   3.503   2.970   0.432
 4051SOL    HW112497   3.589   2.972   0.380
 4051SOL    HW212498   3.517   3.017   0.520
 4052SOL     OW12499   1.975   2.599   1.597
 4052SOL    HW112500   2.063   2.586   1.642
 4052SOL    HW212501   1.962   2.696   1.575
 4053SOL     OW12502   2.475   3.227   0.726
 4053SOL    HW112503   2.426   3.140   0.735
 4053SOL    HW212504   2.452   3.270   0.639
 4054SOL     OW12505   3.155   3.090   1.423
 4054SOL    HW112506   3.192   3.017   1.365
 4054SOL    HW212507   3.207   3.095   1.508
 4055SOL     OW12508   2.671   1.866   0.502
 4055SOL    HW112509   2.711   1.957   0.493
 4055SOL    HW212510   2.571   1.874   0.508
 4056SOL     OW12511   2.059   2.838   1.264
 4056SOL    HW112512   2.148   2.793   1.250
 4056SOL    HW212513   1.986   2.773   1.245
 4057SOL     OW12514   3.049   3.654   1.616
 4057SOL    HW112515   3.073   3.714   1.540
 4057SOL    HW212516   3.056   3.559   1.586
 4058SOL     OW12517   2.179   2.113   1.801
 4058SOL    HW112518   2.250   2.184   1.807
 4058SOL    HW212519   2.091   2.152   1.829
 4059SOL     OW12520   3.328   3.279   0.953
 4059SOL    HW112521   3.269   3.285   1.033
 4059SOL    HW212522   3.313   3.191   0.907
 4060SOL     OW12523   3.529   3.576   0.572
 4060SOL    HW112524   3.488   3.553   0.484
 4060SOL    HW212525   3.511   3.502   0.637
 4061SOL     OW12526   2.460   2.591   0.270
 4061SOL    HW112527   2.484   2.660   0.202
 4061SOL    HW212528   2.382   2.624   0.324
 4062SOL     OW12529   3.143   2.207   0.944
 4062SOL    HW112530   3.057   2.157   0.931
 4062SOL    HW212531   3.205   2.153   1.000
 4063SOL     OW12532   3.438   3.524   0.307
 4063SOL    HW112533   3.527   3.570   0.310
 4063SOL    HW212534   3.417   3.500   0.212
 4064SOL     OW12535   2.669   2.467   1.465
 4064SOL    HW112536   2.622   2.464   1.554
 4064SOL    HW212537   2.618   2.412   1.399
 4065SOL     OW12538   3.256   2.331   1.674
 4065SOL    HW112539   3.236   2.374   1.762
 4065SOL    HW212540   3.334   2.269   1.683
 4066SOL     OW12541   2.835   2.752   1.572
 4066SOL    HW112542   2.881   2.668   1.543
 4066SOL    HW212543   2.779   2.786   1.497
 4067SOL     OW12544   2.853   2.272   1.242
 4067SOL    HW112545   2.776   2.306   1.296
 4067SOL    HW212546   2.819   2.221   1.163
 4068SOL     OW12547   2.903   2.563   0.429
 4068SOL    HW112548   2.929   2.559   0.525
 4068SOL    HW212549   2.818   2.512   0.415
 4069SOL     OW12550   1.938   2.673   0.789
 4069SOL    HW112551   2.037   2.661   0.798
 4069SOL    HW212552   1.914   2.768   0.810
 4070SOL     OW12553   1.992   3.683   1.571
 4070SOL    HW112554   1.982   3.668   1.670
 4070SOL    HW212555   1.906   3.719   1.535
 4071SOL     OW12556   3.581   2.447   1.831
 4071SOL    HW112557   3.555   2.536   1.795
 4071SOL    HW212558   3.579   2.379   1.758
 4072SOL     OW12559   3.224   3.006   0.545
 4072SOL    HW112560   3.307   2.977   0.497
 4072SOL    HW212561   3.175   3.073   0.489
 4073SOL     OW12562   2.412   2.058   0.885
 4073SOL    HW112563   2.407   2.053   0.985
 4073SOL    HW212564   2.414   2.154   0.856
 4074SOL     OW12565   2.870   3.318   0.477
 4074SOL    HW112566   2.824   3.390   0.425
 4074SOL    HW212567   2.866   3.338   0.575
 4075SOL     OW12568   2.213   3.663   0.853
 4075SOL    HW112569   2.263   3.577   0.859
 4075SOL    HW212570   2.278   3.740   0.850
 4076SOL     OW12571   3.657   2.928   0.873
 4076SOL    HW112572   3.595   2.913   0.797
 4076SOL    HW212573   3.605   2.939   0.958
 4077SOL     OW12574   3.089   3.412   1.506
 4077SOL    HW112575   3.095   3.335   1.570
 4077SOL    HW212576   3.037   3.386   1.426
 4078SOL     OW12577   2.183   2.805   0.242
 4078SOL    HW112578   2.265   2.844   0.200
 4078SOL    HW212579   2.156   2.723   0.193
 4079SOL     OW12580   3.320   2.597   0.728
 4079SOL    HW112581   3.315   2.532   0.803
 4079SOL    HW212582   3.400   2.656   0.741
 4080SOL     OW12583   2.323   3.128   1.727
 4080SOL    HW112584   2.273   3.129   1.641
 4080SOL    HW212585   2.260   3.110   1.803
 4081SOL     OW12586   2.064   2.147   1.498
 4081SOL    HW112587   1.984   2.207   1.485
 4081SOL    HW212588   2.054   2.098   1.584
 4082SOL     OW12589   2.326   3.605   0.323
 4082SOL    HW112590   2.359   3.644   0.409
 4082SOL    HW212591   2.402   3.598   0.258
 4083SOL     OW12592   2.111   3.647   1.241
 4083SOL    HW112593   2.168   3.582   1.291
 4083SOL    HW212594   2.095   3.614   1.148
 4084SOL     OW12595   2.802   3.560   0.904
 4084SOL    HW112596   2.882   3.503   0.925
 4084SOL    HW212597   2.753   3.520   0.827
 4085SOL     OW12598   2.244   2.562   0.480
 4085SOL    HW112599   2.289   2.472   0.477
 4085SOL    HW212600   2.150   2.551   0.513
 4086SOL     OW12601   3.409   2.084   1.729
 4086SOL    HW112602   3.404   2.121   1.821
 4086SOL    HW212603   3.337   2.015   1.717
 4087SOL     OW12604   2.476   1.984   0.117
 4087SOL    HW112605   2.574   1.962   0.124
 4087SOL    HW212606   2.445   1.967   0.024
 4088SOL     OW12607   2.643   2.126   1.749
 4088SOL    HW112608   2.710   2.065   1.792
 4088SOL    HW212609   2.570   2.145   1.814
 4089SOL     OW12610   2.750   3.376   1.195
 4089SOL    HW112611   2.727   3.351   1.101
 4089SOL    HW212612   2.811   3.307   1.234
 4090SOL     OW12613   3.213   2.452   1.433
 4090SOL    HW112614   3.241   2.409   1.518
 4090SOL    HW212615   3.238   2.548   1.434
 4091SOL     OW12616   2.665   3.264   0.924
 4091SOL    HW112617   2.755   3.278   0.882
 4091SOL    HW212618   2.594   3.266   0.853
 4092SOL     OW12619   2.784   2.365   0.899
 4092SOL    HW112620   2.759   2.356   0.803
 4092SOL    HW212621   2.832   2.283   0.930
 4093SOL     OW12622   2.401   1.926   0.512
 4093SOL    HW112623   2.320   1.927   0.570
 4093SOL    HW212624   2.404   2.009   0.457
 4094SOL     OW12625   2.159   1.897   0.171
 4094SOL    HW112626   2.208   1.981   0.150
 4094SOL    HW212627   2.221   1.832   0.216
 4095SOL     OW12628   2.797   2.098   0.480
 4095SOL    HW112629   2.749   2.139   0.402
 4095SOL    HW212630   2.896   2.096   0.461
 4096SOL     OW12631   2.938   2.545   1.464
 4096SOL    HW112632   2.858   2.484   1.467
 4096SOL    HW212633   3.019   2.492   1.440
 4097SOL     OW12634   3.089   3.432   0.793
 4097SOL    HW112635   3.110   3.506   0.728
 4097SOL    HW212636   3.157   3.432   0.866
 4098SOL     OW12637   2.321   3.014   0.741
 4098SOL    HW112638   2.250   2.987   0.806
 4098SOL    HW212639   2.295   2.986   0.648
 4099SOL     OW12640   3.133   3.659   0.591
 4099SOL    HW112641   3.177   3.723   0.527
 4099SOL    HW212642   3.083   3.711   0.661
 4100SOL     OW12643   1.940   2.418   1.386
 4100SOL    HW112644   2.032   2.417   1.345
 4100SOL    HW212645   1.934   2.492   1.453
 4101SOL     OW12646   2.423   2.084   1.147
 4101SOL    HW112647   2.461   2.000   1.184
 4101SOL    HW212648   2.335   2.103   1.191
 4102SOL     OW12649   2.728   2.316   0.642
 4102SOL    HW112650   2.696   2.388   0.580
 4102SOL    HW212651   2.752   2.235   0.589
 4103SOL     OW12652   2.879   1.901   0.753
 4103SOL    HW112653   2.807   1.906   0.684
 4103SOL    HW212654   2.855   1.832   0.822
 4104SOL     OW12655   3.291   3.035   0.867
 4104SOL    HW112656   3.236   2.951   0.860
 4104SOL    HW212657   3.317   3.064   0.775
 4105SOL     OW12658   3.328   2.452   0.992
 4105SOL    HW112659   3.298   2.357   0.999
 4105SOL    HW212660   3.401   2.468   1.058
 4106SOL     OW12661   3.719   2.695   0.377
 4106SOL    HW112662   3.761   2.631   0.441
 4106SOL    HW212663   3.681   2.644   0.299
 4107SOL     OW12664   2.350   3.247   0.174
 4107SOL    HW112665   2.263   3.232   0.221
 4107SOL    HW212666   2.333   3.273   0.079
 4108SOL     OW12667   3.526   3.142   0.657
 4108SOL    HW112668   3.625   3.150   0.671
 4108SOL    HW212669   3.481   3.226   0.688
 4109SOL     OW12670   2.389   2.118   0.328
 4109SOL    HW112671   2.416   2.059   0.253
 4109SOL    HW212672   2.389   2.213   0.297
 4110SOL     OW12673   3.616   3.085   1.588
 4110SOL    HW112674   3.707   3.046   1.575
 4110SOL    HW212675   3.624   3.181   1.612
 4111SOL     OW12676   2.926   3.209   1.340
 4111SOL    HW112677   2.846   3.186   1.395
 4111SOL    HW212678   3.009   3.183   1.389
 4112SOL     OW12679   3.454   3.491   1.625
 4112SOL    HW112680   3.481   3.525   1.535
 4112SOL    HW212681   3.533   3.453   1.671
 4113SOL     OW12682   2.973   3.057   1.100
 4113SOL    HW112683   2.933   3.101   1.181
 4113SOL    HW212684   2.932   3.094   1.017
 4114SOL     OW12685   3.500   2.961   1.079
 4114SOL    HW112686   3.505   3.042   1.138
 4114SOL    HW212687   3.414   2.963   1.028
 4115SOL     OW12688   2.777   1.951   1.402
 4115SOL    HW112689   2.802   1.931   1.307
 4115SOL    HW212690   2.849   2.007   1.444
 4116SOL     OW12691   2.842   2.978   1.719
 4116SOL    HW112692   2.743   2.984   1.729
 4116SOL    HW212693   2.865   2.898   1.663
 4117SOL     OW12694   2.567   2.912   0.368
 4117SOL    HW112695   2.553   2.919   0.467
 4117SOL    HW212696   2.651   2.861   0.350
 4118SOL     OW12697   2.272   2.675   1.251
 4118SOL    HW112698   2.358   2.687   1.301
 4118SOL    HW212699   2.230   2.588   1.278
 4119SOL     OW12700   3.136   2.248   1.262
 4119SOL    HW112701   3.157   2.322   1.326
 4119SOL    HW212702   3.047   2.265   1.219
 4120SOL     OW12703   1.926   3.426   1.331
 4120SOL    HW112704   1.880   3.508   1.297
 4120SOL    HW212705   2.024   3.445   1.340
 4121SOL     OW12706   2.229   2.962   0.501
 4121SOL    HW112707   2.222   3.045   0.445
 4121SOL    HW212708   2.233   2.882   0.441
 4122SOL     OW12709   2.428   2.399   0.865
 4122SOL    HW112710   2.440   2.465   0.791
 4122SOL    HW212711   2.474   2.433   0.948
 4123SOL     OW12712   3.114   3.210   0.388
 4123SOL    HW112713   3.164   3.287   0.428
 4123SOL    HW212714   3.019   3.212   0.420
 4124SOL     OW12715   3.134   3.307   1.142
 4124SOL    HW112716   3.181   3.320   1.229
 4124SOL    HW212717   3.068   3.233   1.151
 4125SOL     OW12718   3.444   2.501   0.472
 4125SOL    HW112719   3.413   2.562   0.545
 4125SOL    HW212720   3.494   2.553   0.403
 4126SOL     OW12721   2.216   3.372   1.329
 4126SOL    HW112722   2.195   3.328   1.242
 4126SOL    HW212723   2.313   3.398   1.332
 4127SOL     OW12724   2.264   2.613   1.598
 4127SOL    HW112725   2.332   2.668   1.551
 4127SOL    HW212726   2.304   2.525   1.625
 4128SOL     OW12727   3.449   2.641   1.670
 4128SOL    HW112728   3.357   2.679   1.665
 4128SOL    HW212729   3.509   2.688   1.605
 4129SOL     OW12730   2.875   1.967   1.770
 4129SOL    HW112731   2.881   2.052   1.718
 4129SOL    HW212732   2.907   1.891   1.713
 4130SOL     OW12733   2.366   1.912   1.740
 4130SOL    HW112734   2.324   1.855   1.670
 4130SOL    HW212735   2.300   1.981   1.772
 4131SOL     OW12736   2.435   2.732   1.029
 4131SOL    HW112737   2.479   2.821   1.020
 4131SOL    HW212738   2.372   2.732   1.106
 4132SOL     OW12739   3.222   2.724   1.045
 4132SOL    HW112740   3.147   2.724   0.979
 4132SOL    HW212741   3.259   2.632   1.054
 4133SOL     OW12742   2.169   2.075   1.231
 4133SOL    HW112743   2.146   2.112   1.321
 4133SOL    HW212744   2.139   1.980   1.225
 4134SOL     OW12745   1.899   3.172   1.282
 4134SOL    HW112746   1.952   3.123   1.350
 4134SOL    HW212747   1.921   3.270   1.287
 4135SOL     OW12748   2.594   2.496   1.064
 4135SOL    HW112749   2.653   2.470   0.988
 4135SOL    HW212750   2.566   2.592   1.053
 4136SOL     OW12751   3.590   2.797   1.854
 4136SOL    HW112752   3.544   2.790   1.765
 4136SOL    HW212753   3.528   2.841   1.920
 4137SOL     OW12754   2.169   1.925   0.618
 4137SOL    HW112755   2.158   2.019   0.651
 4137SOL    HW212756   2.164   1.862   0.695
 4138SOL     OW12757   2.885   2.628   0.966
 4138SOL    HW112758   2.900   2.649   1.062
 4138SOL    HW212759   2.855   2.533   0.957
 4139SOL     OW12760   2.842   3.435   1.700
 4139SOL    HW112761   2.822   3.479   1.612
 4139SOL    HW212762   2.881   3.344   1.684
 4140SOL     OW12763   3.721   3.380   1.605
 4140SOL    HW112764   3.735   3.407   1.510
 4140SOL    HW212765   3.804   3.402   1.658
 4141SOL     OW12766   2.212   2.760   1.804
 4141SOL    HW112767   2.288   2.804   1.852
 4141SOL    HW212768   2.247   2.713   1.722
 4142SOL     OW12769   2.930   3.195   0.849
 4142SOL    HW112770   2.937   3.111   0.794
 4142SOL    HW212771   2.992   3.264   0.813
 4143SOL     OW12772   2.181   2.672   0.949
 4143SOL    HW112773   2.274   2.708   0.954
 4143SOL    HW212774   2.175   2.587   1.001
 4144SOL     OW12775   2.201   2.371   1.006
 4144SOL    HW112776   2.149   2.288   0.989
 4144SOL    HW212777   2.278   2.376   0.942
 4145SOL     OW12778   3.000   2.242   1.678
 4145SOL    HW112779   2.955   2.305   1.742
 4145SOL    HW212780   3.093   2.273   1.661
 4146SOL     OW12781   3.022   2.069   1.477
 4146SOL    HW112782   3.022   2.133   1.554
 4146SOL    HW212783   3.050   2.117   1.394
 4147SOL     OW12784   1.870   3.188   0.200
 4147SOL    HW112785   1.777   3.209   0.169
 4147SOL    HW212786   1.880   3.089   0.213
 4148SOL     OW12787   1.950   3.663   0.927
 4148SOL    HW112788   1.908   3.577   0.900
 4148SOL    HW212789   2.044   3.666   0.893
 4149SOL     OW12790   2.366   3.430   0.910
 4149SOL    HW112791   2.432   3.504   0.919
 4149SOL    HW212792   2.410   3.351   0.868
 4150SOL     OW12793   2.864   2.658   1.238
 4150SOL    HW112794   2.905   2.626   1.324
 4150SOL    HW212795   2.768   2.631   1.235
 4151SOL     OW12796   1.902   2.406   1.114
 4151SOL    HW112797   1.987   2.373   1.073
 4151SOL    HW212798   1.915   2.421   1.212
 4152SOL     OW12799   2.051   2.382   1.722
 4152SOL    HW112800   2.110   2.342   1.652
 4152SOL    HW212801   1.993   2.453   1.681
 4153SOL     OW12802   3.231   2.812   1.660
 4153SOL    HW112803   3.270   2.901   1.680
 4153SOL    HW212804   3.241   2.792   1.563
 4154SOL     OW12805   3.519   2.466   1.206
 4154SOL    HW112806   3.481   2.397   1.268
 4154SOL    HW212807   3.601   2.430   1.162
 4155SOL     OW12808   2.114   3.426   1.744
 4155SOL    HW112809   2.084   3.483   1.820
 4155SOL    HW212810   2.107   3.329   1.770
 4156SOL     OW12811   2.533   2.326   1.269
 4156SOL    HW112812   2.499   2.237   1.239
 4156SOL    HW212813   2.559   2.380   1.189
 4157SOL     OW12814   2.792   3.540   1.465
 4157SOL    HW112815   2.768   3.522   1.370
 4157SOL    HW212816   2.822   3.634   1.475
 4158SOL     OW12817   2.335   2.362   0.191
 4158SOL    HW112818   2.396   2.442   0.195
 4158SOL    HW212819   2.240   2.393   0.198
 4159SOL     OW12820   2.021   2.999   1.466
 4159SOL    HW112821   2.043   2.938   1.542
 4159SOL    HW212822   2.031   2.950   1.380
 4160SOL     OW12823   3.209   2.921   1.234
 4160SOL    HW112824   3.233   2.858   1.160
 4160SOL    HW212825   3.119   2.961   1.216
 4161SOL     OW12826   3.621   3.609   1.154
 4161SOL    HW112827   3.682   3.639   1.081
 4161SOL    HW212828   3.583   3.520   1.132
 4162SOL     OW12829   3.114   3.593   1.128
 4162SOL    HW112830   3.198   3.598   1.074
 4162SOL    HW212831   3.091   3.497   1.146
 4163SOL     OW12832   1.945   3.120   1.022
 4163SOL    HW112833   1.940   3.119   1.122
 4163SOL    HW212834   1.862   3.079   0.984
 4164SOL     OW12835   2.550   3.524   1.716
 4164SOL    HW112836   2.494   3.605   1.725
 4164SOL    HW212837   2.602   3.528   1.630
 4165SOL     OW12838   3.588   1.997   0.523
 4165SOL    HW112839   3.661   1.980   0.456
 4165SOL    HW212840   3.557   1.910   0.561
 4166SOL     OW12841   3.250   3.435   0.477
 4166SOL    HW112842   3.317   3.447   0.403
 4166SOL    HW212843   3.210   3.524   0.500
 4167SOL     OW12844   1.992   3.656   1.851
 4167SOL    HW112845   1.951   3.582   1.904
 4167SOL    HW212846   2.056   3.707   1.909
 4168SOL     OW12847   3.142   2.789   0.672
 4168SOL    HW112848   3.202   2.708   0.674
 4168SOL    HW212849   3.182   2.858   0.612
 4169SOL     OW12850   2.692   3.135   1.422
 4169SOL    HW112851   2.687   3.168   1.517
 4169SOL    HW212852   2.606   3.154   1.376
 4170SOL     OW12853   2.534   3.478   0.154
 4170SOL    HW112854   2.543   3.488   0.055
 4170SOL    HW212855   2.494   3.389   0.175
 4171SOL     OW12856   3.512   3.582   1.394
 4171SOL    HW112857   3.565   3.592   1.310
 4171SOL    HW212858   3.485   3.672   1.428
 4172SOL     OW12859   3.703   2.037   0.963
 4172SOL    HW112860   3.742   1.952   0.927
 4172SOL    HW212861   3.605   2.039   0.944
 4173SOL     OW12862   2.125   2.188   0.720
 4173SOL    HW112863   2.046   2.239   0.686
 4173SOL    HW212864   2.116   2.173   0.818
 4174SOL     OW12865   2.684   2.864   1.372
 4174SOL    HW112866   2.724   2.863   1.280
 4174SOL    HW212867   2.694   2.956   1.412
 4175SOL     OW12868   2.778   2.772   0.291
 4175SOL    HW112869   2.841   2.810   0.223
 4175SOL    HW212870   2.818   2.689   0.330
 4176SOL     OW12871   2.234   3.150   1.490
 4176SOL    HW112872   2.221   3.243   1.456
 4176SOL    HW212873   2.150   3.098   1.477
 4177SOL     OW12874   3.476   3.154   1.289
 4177SOL    HW112875   3.536   3.157   1.369
 4177SOL    HW212876   3.401   3.218   1.302
 4178SOL     OW12877   2.901   2.960   0.696
 4178SOL    HW112878   2.831   2.913   0.750
 4178SOL    HW212879   2.960   2.892   0.653
 4179SOL     OW12880   2.876   2.098   0.971
 4179SOL    HW112881   2.868   2.062   0.878
 4179SOL    HW212882   2.874   2.022   1.036
 4180SOL     OW12883   2.452   3.349   0.491
 4180SOL    HW112884   2.494   3.291   0.421
 4180SOL    HW212885   2.408   3.428   0.447
 4181SOL     OW12886   3.571   2.247   1.381
 4181SOL    HW112887   3.644   2.316   1.385
 4181SOL    HW212888   3.599   2.172   1.322
 4182SOL     OW12889   2.117   3.210   0.290
 4182SOL    HW112890   2.021   3.211   0.263
 4182SOL    HW212891   2.129   3.263   0.374
 4183SOL     OW12892   1.967   2.875   1.726
 4183SOL    HW112893   1.890   2.842   1.780
 4183SOL    HW212894   2.052   2.845   1.768
 4184SOL     OW12895   2.534   2.065   1.489
 4184SOL    HW112896   2.624   2.049   1.449
 4184SOL    HW212897   2.542   2.070   1.588
 4185SOL     OW12898   1.937   2.207   0.033
 4185SOL    HW112899   1.845   2.179   0.004
 4185SOL    HW212900   1.968   2.284  -0.023
 4186SOL     OW12901   3.302   2.718   1.398
 4186SOL    HW112902   3.245   2.770   1.335
 4186SOL    HW212903   3.398   2.730   1.374
 4187SOL     OW12904   1.934   2.028   0.318
 4187SOL    HW112905   1.917   2.111   0.264
 4187SOL    HW212906   2.024   1.991   0.296
 4188SOL     OW12907   2.475   2.704   1.431
 4188SOL    HW112908   2.531   2.785   1.414
 4188SOL    HW212909   2.534   2.624   1.434
 4189SOL     OW12910   3.355   3.629   0.959
 4189SOL    HW112911   3.388   3.693   0.890
 4189SOL    HW212912   3.421   3.623   1.034
 4190SOL     OW12913   2.578   2.427   1.708
 4190SOL    HW112914   2.597   2.492   1.782
 4190SOL    HW212915   2.638   2.347   1.717
 4191SOL     OW12916   3.312   3.082   1.633
 4191SOL    HW112917   3.303   3.072   1.732
 4191SOL    HW212918   3.408   3.075   1.607
 4192SOL     OW12919   2.252   3.603   1.560
 4192SOL    HW112920   2.161   3.644   1.558
 4192SOL    HW212921   2.245   3.509   1.592
 4193SOL     OW12922   3.536   2.745   1.254
 4193SOL    HW112923   3.509   2.656   1.217
 4193SOL    HW212924   3.537   2.813   1.181
 4194SOL     OW12925   2.456   2.607   0.652
 4194SOL    HW112926   2.506   2.692   0.633
 4194SOL    HW212927   2.368   2.609   0.604
 4195SOL     OW12928   3.639   2.204   1.642
 4195SOL    HW112929   3.622   2.235   1.548
 4195SOL    HW212930   3.555   2.167   1.680
 4196SOL     OW12931   3.592   2.796   1.517
 4196SOL    HW112932   3.630   2.887   1.532
 4196SOL    HW212933   3.584   2.779   1.418
 4197SOL     OW12934   2.721   3.236   0.016
 4197SOL    HW112935   2.675   3.251   0.104
 4197SOL    HW212936   2.765   3.321  -0.014
 4198SOL     OW12937   2.523   3.652   0.953
 4198SOL    HW112938   2.477   3.740   0.940
 4198SOL    HW212939   2.622   3.664   0.946
 4199SOL     OW12940   2.721   2.818   0.861
 4199SOL    HW112941   2.775   2.749   0.909
 4199SOL    HW212942   2.689   2.887   0.927
 4200SOL     OW12943   3.723   3.431   0.851
 4200SOL    HW112944   3.652   3.419   0.781
 4200SOL    HW212945   3.724   3.352   0.911
 4201SOL     OW12946   2.083   3.176   1.844
 4201SOL    HW112947   2.018   3.103   1.823
 4201SOL    HW212948   2.087   3.190   1.942
 4202SOL     OW12949   1.941   3.102   0.653
 4202SOL    HW112950   1.940   3.055   0.741
 4202SOL    HW212951   2.023   3.074   0.602
 4203SOL     OW12952   2.534   3.253   1.624
 4203SOL    HW112953   2.456   3.203   1.662
 4203SOL    HW212954   2.531   3.348   1.655
 4204SOL     OW12955   3.686   2.054   1.227
 4204SOL    HW112956   3.682   1.964   1.271
 4204SOL    HW212957   3.689   2.043   1.128
 4205SOL     OW12958   2.290   2.286   0.520
 4205SOL    HW112959   2.320   2.214   0.458
 4205SOL    HW212960   2.251   2.246   0.603
 4206SOL     OW12961   3.567   3.349   1.104
 4206SOL    HW112962   3.474   3.324   1.077
 4206SOL    HW212963   3.593   3.299   1.186
 4207SOL     OW12964   2.179   2.409   1.280
 4207SOL    HW112965   2.217   2.350   1.352
 4207SOL    HW212966   2.219   2.383   1.192
 4208SOL     OW12967   2.674   3.448   0.687
 4208SOL    HW112968   2.706   3.458   0.593
 4208SOL    HW212969   2.595   3.386   0.689
 4209SOL     OW12970   3.286   2.076   1.112
 4209SOL    HW112971   3.338   2.011   1.167
 4209SOL    HW212972   3.237   2.139   1.173
 4210SOL     OW12973   2.863   1.896   1.154
 4210SOL    HW112974   2.800   1.824   1.123
 4210SOL    HW212975   2.956   1.860   1.154
 4211SOL     OW12976   2.632   3.192   0.301
 4211SOL    HW112977   2.586   3.105   0.318
 4211SOL    HW212978   2.723   3.189   0.342
 4212SOL     OW12979   2.480   3.429   1.284
 4212SOL    HW112980   2.475   3.511   1.341
 4212SOL    HW212981   2.569   3.426   1.239
 4213SOL     OW12982   3.162   2.315   0.691
 4213SOL    HW112983   3.103   2.395   0.695
 4213SOL    HW212984   3.177   2.280   0.784
 4214SOL     OW12985   3.455   2.083   0.882
 4214SOL    HW112986   3.371   2.082   0.936
 4214SOL    HW212987   3.457   2.166   0.826
 4215SOL     OW12988   1.901   2.939   0.300
 4215SOL    HW112989   2.000   2.928   0.291
 4215SOL    HW212990   1.861   2.853   0.332
 4216SOL     OW12991   2.737   3.508   0.337
 4216SOL    HW112992   2.660   3.473   0.283
 4216SOL    HW212993   2.705   3.579   0.399
 4217SOL     OW12994   2.092   2.490   1.975
 4217SOL    HW112995   1.999   2.488   2.012
 4217SOL    HW212996   2.093   2.451   1.883
 4218SOL     OW12997   2.087   2.137   2.858
 4218SOL    HW112998   2.122   2.120   2.950
 4218SOL    HW212999   1.999   2.092   2.846
 4219SOL     OW13000   1.881   2.230   2.509
 4219SOL    HW113001   1.799   2.273   2.548
 4219SOL    HW213002   1.853   2.157   2.446
 4220SOL     OW13003   2.431   3.137   3.027
 4220SOL    HW113004   2.338   3.130   2.990
 4220SOL    HW213005   2.442   3.226   3.071
 4221SOL     OW13006   3.417   3.373   2.565
 4221SOL    HW113007   3.360   3.357   2.646
 4221SOL    HW213008   3.358   3.383   2.485
 4222SOL     OW13009   2.997   2.565   2.579
 4222SOL    HW113010   3.054   2.643   2.554
 4222SOL    HW213011   2.937   2.591   2.655
 4223SOL     OW13012   3.617   2.469   2.093
 4223SOL    HW113013   3.605   2.456   1.994
 4223SOL    HW213014   3.587   2.388   2.142
 4224SOL     OW13015   2.630   3.006   2.885
 4224SOL    HW113016   2.552   3.023   2.945
 4224SOL    HW213017   2.664   3.093   2.849
 4225SOL     OW13018   2.712   2.660   3.685
 4225SOL    HW113019   2.708   2.736   3.750
 4225SOL    HW213020   2.734   2.696   3.594
 4226SOL     OW13021   2.547   2.874   2.527
 4226SOL    HW113022   2.616   2.858   2.597
 4226SOL    HW213023   2.474   2.931   2.565
 4227SOL     OW13024   2.548   3.023   3.665
 4227SOL    HW113025   2.608   3.102   3.679
 4227SOL    HW213026   2.462   3.054   3.624
 4228SOL     OW13027   2.197   3.297   2.923
 4228SOL    HW113028   2.119   3.266   2.870
 4228SOL    HW213029   2.255   3.355   2.866
 4229SOL     OW13030   3.322   3.367   3.201
 4229SOL    HW113031   3.346   3.461   3.227
 4229SOL    HW213032   3.306   3.313   3.283
 4230SOL     OW13033   2.300   2.254   3.361
 4230SOL    HW113034   2.382   2.198   3.370
 4230SOL    HW213035   2.219   2.196   3.365
 4231SOL     OW13036   3.465   2.309   2.599
 4231SOL    HW113037   3.391   2.355   2.549
 4231SOL    HW213038   3.516   2.377   2.652
 4232SOL     OW13039   2.093   3.575   2.345
 4232SOL    HW113040   2.127   3.652   2.399
 4232SOL    HW213041   2.137   3.575   2.255
 4233SOL     OW13042   2.989   3.203   3.552
 4233SOL    HW113043   3.036   3.203   3.640
 4233SOL    HW213044   2.941   3.116   3.541
 4234SOL     OW13045   2.092   3.296   2.400
 4234SOL    HW113046   2.066   3.392   2.400
 4234SOL    HW213047   2.021   3.242   2.445
 4235SOL     OW13048   2.102   2.953   2.748
 4235SOL    HW113049   2.116   2.869   2.800
 4235SOL    HW213050   2.047   3.017   2.803
 4236SOL     OW13051   2.482   3.648   3.301
 4236SOL    HW113052   2.390   3.631   3.336
 4236SOL    HW213053   2.510   3.740   3.327
 4237SOL     OW13054   2.468   2.826   1.985
 4237SOL    HW113055   2.475   2.910   1.931
 4237SOL    HW213056   2.514   2.839   2.073
 4238SOL     OW13057   3.456   1.976   3.342
 4238SOL    HW113058   3.438   2.043   3.270
 4238SOL    HW213059   3.453   2.022   3.431
 4239SOL     OW13060   1.984   2.505   2.425
 4239SOL    HW113061   1.939   2.417   2.442
 4239SOL    HW213062   1.983   2.559   2.509
 4240SOL     OW13063   3.704   3.629   2.221
 4240SOL    HW113064   3.758   3.600   2.301
 4240SOL    HW213065   3.734   3.719   2.192
 4241SOL     OW13066   1.889   3.458   1.979
 4241SOL    HW113067   1.870   3.362   2.000
 4241SOL    HW213068   1.856   3.516   2.054
 4242SOL     OW13069   3.551   2.784   2.474
 4242SOL    HW113070   3.646   2.755   2.482
 4242SOL    HW213071   3.543   2.849   2.399
 4243SOL     OW13072   3.503   2.970   2.294
 4243SOL    HW113073   3.589   2.972   2.242
 4243SOL    HW213074   3.517   3.017   2.382
 4244SOL     OW13075   1.975   2.599   3.459
 4244SOL    HW113076   2.063   2.586   3.504
 4244SOL    HW213077   1.962   2.696   3.437
 4245SOL     OW13078   2.475   3.227   2.588
 4245SOL    HW113079   2.426   3.140   2.597
 4245SOL    HW213080   2.452   3.270   2.501
 4246SOL     OW13081   3.155   3.090   3.285
 4246SOL    HW113082   3.192   3.017   3.227
 4246SOL    HW213083   3.207   3.095   3.370
 4247SOL     OW13084   2.671   1.866   2.364
 4247SOL    HW113085   2.711   1.957   2.355
 4247SOL    HW213086   2.571   1.874   2.370
 4248SOL     OW13087   2.059   2.838   3.126
 4248SOL    HW113088   2.148   2.793   3.112
 4248SOL    HW213089   1.986   2.773   3.107
 4249SOL     OW13090   3.387   2.861   2.052
 4249SOL    HW113091   3.324   2.785   2.065
 4249SOL    HW213092   3.435   2.879   2.138
 4250SOL     OW13093   3.049   3.654   3.478
 4250SOL    HW113094   3.073   3.714   3.402
 4250SOL    HW213095   3.056   3.559   3.448
 4251SOL     OW13096   2.179   2.113   3.663
 4251SOL    HW113097   2.250   2.184   3.669
 4251SOL    HW213098   2.091   2.152   3.691
 4252SOL     OW13099   3.328   3.279   2.815
 4252SOL    HW113100   3.269   3.285   2.895
 4252SOL    HW213101   3.313   3.191   2.769
 4253SOL     OW13102   3.529   3.576   2.434
 4253SOL    HW113103   3.488   3.553   2.346
 4253SOL    HW213104   3.511   3.502   2.499
 4254SOL     OW13105   2.460   2.591   2.132
 4254SOL    HW113106   2.484   2.660   2.064
 4254SOL    HW213107   2.382   2.624   2.186
 4255SOL     OW13108   3.143   2.207   2.806
 4255SOL    HW113109   3.057   2.157   2.793
 4255SOL    HW213110   3.205   2.153   2.862
 4256SOL     OW13111   3.438   3.524   2.169
 4256SOL    HW113112   3.527   3.570   2.172
 4256SOL    HW213113   3.417   3.500   2.074
 4257SOL     OW13114   2.669   2.467   3.327
 4257SOL    HW113115   2.622   2.464   3.416
 4257SOL    HW213116   2.618   2.412   3.261
 4258SOL     OW13117   3.256   2.331   3.536
 4258SOL    HW113118   3.236   2.374   3.624
 4258SOL    HW213119   3.334   2.269   3.545
 4259SOL     OW13120   2.835   2.752   3.434
 4259SOL    HW113121   2.881   2.668   3.405
 4259SOL    HW213122   2.779   2.786   3.359
 4260SOL     OW13123   2.853   2.272   3.104
 4260SOL    HW113124   2.776   2.306   3.158
 4260SOL    HW213125   2.819   2.221   3.025
 4261SOL     OW13126   2.903   2.563   2.291
 4261SOL    HW113127   2.929   2.559   2.387
 4261SOL    HW213128   2.818   2.512   2.277
 4262SOL     OW13129   1.938   2.673   2.651
 4262SOL    HW113130   2.037   2.661   2.660
 4262SOL    HW213131   1.914   2.768   2.672
 4263SOL     OW13132   1.992   3.683   3.433
 4263SOL    HW113133   1.982   3.668   3.532
 4263SOL    HW213134   1.906   3.719   3.397
 4264SOL     OW13135   2.727   2.210   2.057
 4264SOL    HW113136   2.786   2.273   2.008
 4264SOL    HW213137   2.746   2.116   2.028
 4265SOL     OW13138   3.581   2.447   3.693
 4265SOL    HW113139   3.555   2.536   3.657
 4265SOL    HW213140   3.579   2.379   3.620
 4266SOL     OW13141   3.224   3.006   2.407
 4266SOL    HW113142   3.307   2.977   2.359
 4266SOL    HW213143   3.175   3.073   2.351
 4267SOL     OW13144   2.412   2.058   2.747
 4267SOL    HW113145   2.407   2.053   2.847
 4267SOL    HW213146   2.414   2.154   2.718
 4268SOL     OW13147   2.870   3.318   2.339
 4268SOL    HW113148   2.824   3.390   2.287
 4268SOL    HW213149   2.866   3.338   2.437
 4269SOL     OW13150   2.213   3.663   2.715
 4269SOL    HW113151   2.263   3.577   2.721
 4269SOL    HW213152   2.278   3.740   2.712
 4270SOL     OW13153   3.657   2.928   2.735
 4270SOL    HW113154   3.595   2.913   2.659
 4270SOL    HW213155   3.605   2.939   2.820
 4271SOL     OW13156   3.089   3.412   3.368
 4271SOL    HW113157   3.095   3.335   3.432
 4271SOL    HW213158   3.037   3.386   3.288
 4272SOL     OW13159   2.183   2.805   2.104
 4272SOL    HW113160   2.265   2.844   2.062
 4272SOL    HW213161   2.156   2.723   2.055
 4273SOL     OW13162   3.320   2.597   2.590
 4273SOL    HW113163   3.315   2.532   2.665
 4273SOL    HW213164   3.400   2.656   2.603
 4274SOL     OW13165   2.323   3.128   3.589
 4274SOL    HW113166   2.273   3.129   3.503
 4274SOL    HW213167   2.260   3.110   3.665
 4275SOL     OW13168   2.973   3.638   2.099
 4275SOL    HW113169   2.913   3.576   2.149
 4275SOL    HW213170   3.004   3.594   2.014
 4276SOL     OW13171   2.064   2.147   3.360
 4276SOL    HW113172   1.984   2.207   3.347
 4276SOL    HW213173   2.054   2.098   3.446
 4277SOL     OW13174   3.494   3.239   1.943
 4277SOL    HW113175   3.462   3.333   1.933
 4277SOL    HW213176   3.418   3.176   1.931
 4278SOL     OW13177   2.326   3.605   2.185
 4278SOL    HW113178   2.359   3.644   2.271
 4278SOL    HW213179   2.402   3.598   2.120
 4279SOL     OW13180   3.262   1.969   2.288
 4279SOL    HW113181   3.238   1.932   2.198
 4279SOL    HW213182   3.361   1.985   2.292
 4280SOL     OW13183   2.111   3.647   3.103
 4280SOL    HW113184   2.168   3.582   3.153
 4280SOL    HW213185   2.095   3.614   3.010
 4281SOL     OW13186   2.802   3.560   2.766
 4281SOL    HW113187   2.882   3.503   2.787
 4281SOL    HW213188   2.753   3.520   2.689
 4282SOL     OW13189   2.244   2.562   2.342
 4282SOL    HW113190   2.289   2.472   2.339
 4282SOL    HW213191   2.150   2.551   2.375
 4283SOL     OW13192   3.409   2.084   3.591
 4283SOL    HW113193   3.404   2.121   3.683
 4283SOL    HW213194   3.337   2.015   3.579
 4284SOL     OW13195   2.476   1.984   1.979
 4284SOL    HW113196   2.574   1.962   1.986
 4284SOL    HW213197   2.445   1.967   1.886
 4285SOL     OW13198   2.643   2.126   3.611
 4285SOL    HW113199   2.710   2.065   3.654
 4285SOL    HW213200   2.570   2.145   3.676
 4286SOL     OW13201   2.750   3.376   3.057
 4286SOL    HW113202   2.727   3.351   2.963
 4286SOL    HW213203   2.811   3.307   3.096
 4287SOL     OW13204   3.213   2.452   3.295
 4287SOL    HW113205   3.241   2.409   3.380
 4287SOL    HW213206   3.238   2.548   3.296
 4288SOL     OW13207   2.665   3.264   2.786
 4288SOL    HW113208   2.755   3.278   2.744
 4288SOL    HW213209   2.594   3.266   2.715
 4289SOL     OW13210   2.784   2.365   2.761
 4289SOL    HW113211   2.759   2.356   2.665
 4289SOL    HW213212   2.832   2.283   2.792
 4290SOL     OW13213   2.401   1.926   2.374
 4290SOL    HW113214   2.320   1.927   2.432
 4290SOL    HW213215   2.404   2.009   2.319
 4291SOL     OW13216   3.296   3.050   1.903
 4291SOL    HW113217   3.328   2.974   1.960
 4291SOL    HW213218   3.204   3.077   1.933
 4292SOL     OW13219   2.159   1.897   2.033
 4292SOL    HW113220   2.208   1.981   2.012
 4292SOL    HW213221   2.221   1.832   2.078
 4293SOL     OW13222   2.797   2.098   2.342
 4293SOL    HW113223   2.749   2.139   2.264
 4293SOL    HW213224   2.896   2.096   2.323
 4294SOL     OW13225   2.938   2.545   3.326
 4294SOL    HW113226   2.858   2.484   3.329
 4294SOL    HW213227   3.019   2.492   3.302
 4295SOL     OW13228   3.089   3.432   2.655
 4295SOL    HW113229   3.110   3.506   2.590
 4295SOL    HW213230   3.157   3.432   2.728
 4296SOL     OW13231   2.321   3.014   2.603
 4296SOL    HW113232   2.250   2.987   2.668
 4296SOL    HW213233   2.295   2.986   2.510
 4297SOL     OW13234   3.133   3.659   2.453
 4297SOL    HW113235   3.177   3.723   2.389
 4297SOL    HW213236   3.083   3.711   2.523
 4298SOL     OW13237   2.894   2.411   1.878
 4298SOL    HW113238   2.853   2.493   1.839
 4298SOL    HW213239   2.958   2.437   1.951
 4299SOL     OW13240   1.940   2.418   3.248
 4299SOL    HW113241   2.032   2.417   3.207
 4299SOL    HW213242   1.934   2.492   3.315
 4300SOL     OW13243   2.423   2.084   3.009
 4300SOL    HW113244   2.461   2.000   3.046
 4300SOL    HW213245   2.335   2.103   3.053
 4301SOL     OW13246   2.728   2.316   2.504
 4301SOL    HW113247   2.696   2.388   2.442
 4301SOL    HW213248   2.752   2.235   2.451
 4302SOL     OW13249   2.879   1.901   2.615
 4302SOL    HW113250   2.807   1.906   2.546
 4302SOL    HW213251   2.855   1.832   2.684
 4303SOL     OW13252   3.291   3.035   2.729
 4303SOL    HW113253   3.236   2.951   2.722
 4303SOL    HW213254   3.317   3.064   2.637
 4304SOL     OW13255   3.328   2.452   2.854
 4304SOL    HW113256   3.298   2.357   2.861
 4304SOL    HW213257   3.401   2.468   2.920
 4305SOL     OW13258   3.719   2.695   2.239
 4305SOL    HW113259   3.761   2.631   2.303
 4305SOL    HW213260   3.681   2.644   2.161
 4306SOL     OW13261   2.350   3.247   2.036
 4306SOL    HW113262   2.263   3.232   2.083
 4306SOL    HW213263   2.333   3.273   1.941
 4307SOL     OW13264   3.526   3.142   2.519
 4307SOL    HW113265   3.625   3.150   2.533
 4307SOL    HW213266   3.481   3.226   2.550
 4308SOL     OW13267   3.252   2.437   1.940
 4308SOL    HW113268   3.198   2.416   2.021
 4308SOL    HW213269   3.343   2.396   1.949
 4309SOL     OW13270   2.389   2.118   2.190
 4309SOL    HW113271   2.416   2.059   2.115
 4309SOL    HW213272   2.389   2.213   2.159
 4310SOL     OW13273   3.616   3.085   3.450
 4310SOL    HW113274   3.707   3.046   3.437
 4310SOL    HW213275   3.624   3.181   3.474
 4311SOL     OW13276   2.926   3.209   3.202
 4311SOL    HW113277   2.846   3.186   3.257
 4311SOL    HW213278   3.009   3.183   3.251
 4312SOL     OW13279   3.454   3.491   3.487
 4312SOL    HW113280   3.481   3.525   3.397
 4312SOL    HW213281   3.533   3.453   3.533
 4313SOL     OW13282   2.973   3.057   2.962
 4313SOL    HW113283   2.933   3.101   3.043
 4313SOL    HW213284   2.932   3.094   2.879
 4314SOL     OW13285   3.500   2.961   2.941
 4314SOL    HW113286   3.505   3.042   3.000
 4314SOL    HW213287   3.414   2.963   2.890
 4315SOL     OW13288   2.777   1.951   3.264
 4315SOL    HW113289   2.802   1.931   3.169
 4315SOL    HW213290   2.849   2.007   3.306
 4316SOL     OW13291   2.842   2.978   3.581
 4316SOL    HW113292   2.743   2.984   3.591
 4316SOL    HW213293   2.865   2.898   3.525
 4317SOL     OW13294   2.567   2.912   2.230
 4317SOL    HW113295   2.553   2.919   2.329
 4317SOL    HW213296   2.651   2.861   2.212
 4318SOL     OW13297   2.272   2.675   3.113
 4318SOL    HW113298   2.358   2.687   3.163
 4318SOL    HW213299   2.230   2.588   3.140
 4319SOL     OW13300   3.136   2.248   3.124
 4319SOL    HW113301   3.157   2.322   3.188
 4319SOL    HW213302   3.047   2.265   3.081
 4320SOL     OW13303   1.926   3.426   3.193
 4320SOL    HW113304   1.880   3.508   3.159
 4320SOL    HW213305   2.024   3.445   3.202
 4321SOL     OW13306   2.229   2.962   2.363
 4321SOL    HW113307   2.222   3.045   2.307
 4321SOL    HW213308   2.233   2.882   2.303
 4322SOL     OW13309   2.428   2.399   2.727
 4322SOL    HW113310   2.440   2.465   2.653
 4322SOL    HW213311   2.474   2.433   2.810
 4323SOL     OW13312   3.114   3.210   2.250
 4323SOL    HW113313   3.164   3.287   2.290
 4323SOL    HW213314   3.019   3.212   2.282
 4324SOL     OW13315   3.134   3.307   3.004
 4324SOL    HW113316   3.181   3.320   3.091
 4324SOL    HW213317   3.068   3.233   3.013
 4325SOL     OW13318   3.444   2.501   2.334
 4325SOL    HW113319   3.413   2.562   2.407
 4325SOL    HW213320   3.494   2.553   2.265
 4326SOL     OW13321   2.216   3.372   3.191
 4326SOL    HW113322   2.195   3.328   3.104
 4326SOL    HW213323   2.313   3.398   3.194
 4327SOL     OW13324   2.264   2.613   3.460
 4327SOL    HW113325   2.332   2.668   3.413
 4327SOL    HW213326   2.304   2.525   3.487
 4328SOL     OW13327   3.449   2.641   3.532
 4328SOL    HW113328   3.357   2.679   3.527
 4328SOL    HW213329   3.509   2.688   3.467
 4329SOL     OW13330   2.875   1.967   3.632
 4329SOL    HW113331   2.881   2.052   3.580
 4329SOL    HW213332   2.907   1.891   3.575
 4330SOL     OW13333   2.366   1.912   3.602
 4330SOL    HW113334   2.324   1.855   3.532
 4330SOL    HW213335   2.300   1.981   3.634
 4331SOL     OW13336   2.435   2.732   2.891
 4331SOL    HW113337   2.479   2.821   2.882
 4331SOL    HW213338   2.372   2.732   2.968
 4332SOL     OW13339   3.222   2.724   2.907
 4332SOL    HW113340   3.147   2.724   2.841
 4332SOL    HW213341   3.259   2.632   2.916
 4333SOL     OW13342   3.071   2.387   2.137
 4333SOL    HW113343   3.084   2.303   2.191
 4333SOL    HW213344   3.042   2.461   2.197
 4334SOL     OW13345   2.169   2.075   3.093
 4334SOL    HW113346   2.146   2.112   3.183
 4334SOL    HW213347   2.139   1.980   3.087
 4335SOL     OW13348   1.899   3.172   3.144
 4335SOL    HW113349   1.952   3.123   3.212
 4335SOL    HW213350   1.921   3.270   3.149
 4336SOL     OW13351   2.594   2.496   2.926
 4336SOL    HW113352   2.653   2.470   2.850
 4336SOL    HW213353   2.566   2.592   2.915
 4337SOL     OW13354   3.590   2.797   3.716
 4337SOL    HW113355   3.544   2.790   3.627
 4337SOL    HW213356   3.528   2.841   3.782
 4338SOL     OW13357   2.169   1.925   2.480
 4338SOL    HW113358   2.158   2.019   2.513
 4338SOL    HW213359   2.164   1.862   2.557
 4339SOL     OW13360   3.484   2.229   2.236
 4339SOL    HW113361   3.486   2.153   2.300
 4339SOL    HW213362   3.436   2.306   2.276
 4340SOL     OW13363   2.885   2.628   2.828
 4340SOL    HW113364   2.900   2.649   2.924
 4340SOL    HW213365   2.855   2.533   2.819
 4341SOL     OW13366   2.842   3.435   3.562
 4341SOL    HW113367   2.822   3.479   3.474
 4341SOL    HW213368   2.881   3.344   3.546
 4342SOL     OW13369   3.721   3.380   3.467
 4342SOL    HW113370   3.735   3.407   3.372
 4342SOL    HW213371   3.804   3.402   3.520
 4343SOL     OW13372   2.212   2.760   3.666
 4343SOL    HW113373   2.288   2.804   3.714
 4343SOL    HW213374   2.247   2.713   3.584
 4344SOL     OW13375   3.402   2.136   1.987
 4344SOL    HW113376   3.341   2.061   2.010
 4344SOL    HW213377   3.424   2.188   2.070
 4345SOL     OW13378   3.165   2.700   1.904
 4345SOL    HW113379   3.199   2.607   1.919
 4345SOL    HW213380   3.183   2.727   1.809
 4346SOL     OW13381   2.930   3.195   2.711
 4346SOL    HW113382   2.937   3.111   2.656
 4346SOL    HW213383   2.992   3.264   2.675
 4347SOL     OW13384   2.181   2.672   2.811
 4347SOL    HW113385   2.274   2.708   2.816
 4347SOL    HW213386   2.175   2.587   2.863
 4348SOL     OW13387   2.201   2.371   2.868
 4348SOL    HW113388   2.149   2.288   2.851
 4348SOL    HW213389   2.278   2.376   2.804
 4349SOL     OW13390   3.000   2.242   3.540
 4349SOL    HW113391   2.955   2.305   3.604
 4349SOL    HW213392   3.093   2.273   3.523
 4350SOL     OW13393   3.022   2.069   3.339
 4350SOL    HW113394   3.022   2.133   3.416
 4350SOL    HW213395   3.050   2.117   3.256
 4351SOL     OW13396   1.870   3.188   2.062
 4351SOL    HW113397   1.777   3.209   2.031
 4351SOL    HW213398   1.880   3.089   2.075
 4352SOL     OW13399   1.950   3.663   2.789
 4352SOL    HW113400   1.908   3.577   2.762
 4352SOL    HW213401   2.044   3.666   2.755
 4353SOL     OW13402   2.366   3.430   2.772
 4353SOL    HW113403   2.432   3.504   2.781
 4353SOL    HW213404   2.410   3.351   2.730
 4354SOL     OW13405   2.864   2.658   3.100
 4354SOL    HW113406   2.905   2.626   3.186
 4354SOL    HW213407   2.768   2.631   3.097
 4355SOL     OW13408   1.902   2.406   2.976
 4355SOL    HW113409   1.987   2.373   2.935
 4355SOL    HW213410   1.915   2.421   3.074
 4356SOL     OW13411   2.051   2.382   3.584
 4356SOL    HW113412   2.110   2.342   3.514
 4356SOL    HW213413   1.993   2.453   3.543
 4357SOL     OW13414   3.231   2.812   3.522
 4357SOL    HW113415   3.270   2.901   3.542
 4357SOL    HW213416   3.241   2.792   3.425
 4358SOL     OW13417   2.677   2.434   2.187
 4358SOL    HW113418   2.684   2.345   2.141
 4358SOL    HW213419   2.583   2.468   2.179
 4359SOL     OW13420   3.519   2.466   3.068
 4359SOL    HW113421   3.481   2.397   3.130
 4359SOL    HW213422   3.601   2.430   3.024
 4360SOL     OW13423   2.114   3.426   3.606
 4360SOL    HW113424   2.084   3.483   3.682
 4360SOL    HW213425   2.107   3.329   3.632
 4361SOL     OW13426   2.533   2.326   3.131
 4361SOL    HW113427   2.499   2.237   3.101
 4361SOL    HW213428   2.559   2.380   3.051
 4362SOL     OW13429   2.792   3.540   3.327
 4362SOL    HW113430   2.768   3.522   3.232
 4362SOL    HW213431   2.822   3.634   3.337
 4363SOL     OW13432   2.335   2.362   2.053
 4363SOL    HW113433   2.396   2.442   2.057
 4363SOL    HW213434   2.240   2.393   2.060
 4364SOL     OW13435   2.021   2.999   3.328
 4364SOL    HW113436   2.043   2.938   3.404
 4364SOL    HW213437   2.031   2.950   3.242
 4365SOL     OW13438   3.209   2.921   3.096
 4365SOL    HW113439   3.233   2.858   3.022
 4365SOL    HW213440   3.119   2.961   3.078
 4366SOL     OW13441   3.164   2.717   2.171
 4366SOL    HW113442   3.078   2.686   2.213
 4366SOL    HW213443   3.160   2.703   2.072
 4367SOL     OW13444   3.621   3.609   3.016
 4367SOL    HW113445   3.682   3.639   2.943
 4367SOL    HW213446   3.583   3.520   2.994
 4368SOL     OW13447   3.114   3.593   2.990
 4368SOL    HW113448   3.198   3.598   2.936
 4368SOL    HW213449   3.091   3.497   3.008
 4369SOL     OW13450   1.945   3.120   2.884
 4369SOL    HW113451   1.940   3.119   2.984
 4369SOL    HW213452   1.862   3.079   2.846
 4370SOL     OW13453   2.550   3.524   3.578
 4370SOL    HW113454   2.494   3.605   3.587
 4370SOL    HW213455   2.602   3.528   3.492
 4371SOL     OW13456   3.588   1.997   2.385
 4371SOL    HW113457   3.661   1.980   2.318
 4371SOL    HW213458   3.557   1.910   2.423
 4372SOL     OW13459   3.250   3.435   2.339
 4372SOL    HW113460   3.317   3.447   2.265
 4372SOL    HW213461   3.210   3.524   2.362
 4373SOL     OW13462   1.992   3.656   3.713
 4373SOL    HW113463   1.951   3.582   3.766
 4373SOL    HW213464   2.056   3.707   3.771
 4374SOL     OW13465   3.142   2.789   2.534
 4374SOL    HW113466   3.202   2.708   2.536
 4374SOL    HW213467   3.182   2.858   2.474
 4375SOL     OW13468   2.692   3.135   3.284
 4375SOL    HW113469   2.687   3.168   3.379
 4375SOL    HW213470   2.606   3.154   3.238
 4376SOL     OW13471   2.534   3.478   2.016
 4376SOL    HW113472   2.543   3.488   1.917
 4376SOL    HW213473   2.494   3.389   2.037
 4377SOL     OW13474   3.512   3.582   3.256
 4377SOL    HW113475   3.565   3.592   3.172
 4377SOL    HW213476   3.485   3.672   3.290
 4378SOL     OW13477   3.703   2.037   2.825
 4378SOL    HW113478   3.742   1.952   2.789
 4378SOL    HW213479   3.605   2.039   2.806
 4379SOL     OW13480   2.125   2.188   2.582
 4379SOL    HW113481   2.046   2.239   2.548
 4379SOL    HW213482   2.116   2.173   2.680
 4380SOL     OW13483   3.056   3.474   1.893
 4380SOL    HW113484   3.062   3.381   1.930
 4380SOL    HW213485   2.997   3.474   1.813
 4381SOL     OW13486   2.684   2.864   3.234
 4381SOL    HW113487   2.724   2.863   3.142
 4381SOL    HW213488   2.694   2.956   3.274
 4382SOL     OW13489   2.778   2.772   2.153
 4382SOL    HW113490   2.841   2.810   2.085
 4382SOL    HW213491   2.818   2.689   2.192
 4383SOL     OW13492   3.366   3.469   1.906
 4383SOL    HW113493   3.274   3.506   1.913
 4383SOL    HW213494   3.404   3.489   1.816
 4384SOL     OW13495   2.234   3.150   3.352
 4384SOL    HW113496   2.221   3.243   3.318
 4384SOL    HW213497   2.150   3.098   3.339
 4385SOL     OW13498   3.476   3.154   3.151
 4385SOL    HW113499   3.536   3.157   3.231
 4385SOL    HW213500   3.401   3.218   3.164
 4386SOL     OW13501   2.901   2.960   2.558
 4386SOL    HW113502   2.831   2.913   2.612
 4386SOL    HW213503   2.960   2.892   2.515
 4387SOL     OW13504   2.876   2.098   2.833
 4387SOL    HW113505   2.868   2.062   2.740
 4387SOL    HW213506   2.874   2.022   2.898
 4388SOL     OW13507   2.452   3.349   2.353
 4388SOL    HW113508   2.494   3.291   2.283
 4388SOL    HW213509   2.408   3.428   2.309
 4389SOL     OW13510   3.571   2.247   3.243
 4389SOL    HW113511   3.644   2.316   3.247
 4389SOL    HW213512   3.599   2.172   3.184
 4390SOL     OW13513   2.117   3.210   2.152
 4390SOL    HW113514   2.021   3.211   2.125
 4390SOL    HW213515   2.129   3.263   2.236
 4391SOL     OW13516   1.967   2.875   3.588
 4391SOL    HW113517   1.890   2.842   3.642
 4391SOL    HW213518   2.052   2.845   3.630
 4392SOL     OW13519   2.534   2.065   3.351
 4392SOL    HW113520   2.624   2.049   3.311
 4392SOL    HW213521   2.542   2.070   3.450
 4393SOL     OW13522   1.937   2.207   1.895
 4393SOL    HW113523   1.845   2.179   1.866
 4393SOL    HW213524   1.968   2.284   1.839
 4394SOL     OW13525   3.302   2.718   3.260
 4394SOL    HW113526   3.245   2.770   3.197
 4394SOL    HW213527   3.398   2.730   3.236
 4395SOL     OW13528   1.934   2.028   2.180
 4395SOL    HW113529   1.917   2.111   2.126
 4395SOL    HW213530   2.024   1.991   2.158
 4396SOL     OW13531   3.045   3.197   1.981
 4396SOL    HW113532   2.946   3.186   1.983
 4396SOL    HW213533   3.079   3.212   2.074
 4397SOL     OW13534   2.475   2.704   3.293
 4397SOL    HW113535   2.531   2.785   3.276
 4397SOL    HW213536   2.534   2.624   3.296
 4398SOL     OW13537   3.355   3.629   2.821
 4398SOL    HW113538   3.388   3.693   2.752
 4398SOL    HW213539   3.421   3.623   2.896
 4399SOL     OW13540   2.578   2.427   3.570
 4399SOL    HW113541   2.597   2.492   3.644
 4399SOL    HW213542   2.638   2.347   3.579
 4400SOL     OW13543   3.312   3.082   3.495
 4400SOL    HW113544   3.303   3.072   3.594
 4400SOL    HW213545   3.408   3.075   3.469
 4401SOL     OW13546   2.252   3.603   3.422
 4401SOL    HW113547   2.161   3.644   3.420
 4401SOL    HW213548   2.245   3.509   3.454
 4402SOL     OW13549   3.536   2.745   3.116
 4402SOL    HW113550   3.509   2.656   3.079
 4402SOL    HW213551   3.537   2.813   3.043
 4403SOL     OW13552   3.087   2.187   2.311
 4403SOL    HW113553   3.152   2.113   2.300
 4403SOL    HW213554   3.107   2.237   2.395
 4404SOL     OW13555   2.456   2.607   2.514
 4404SOL    HW113556   2.506   2.692   2.495
 4404SOL    HW213557   2.368   2.609   2.466
 4405SOL     OW13558   3.639   2.204   3.504
 4405SOL    HW113559   3.622   2.235   3.410
 4405SOL    HW213560   3.555   2.167   3.542
 4406SOL     OW13561   3.592   2.796   3.379
 4406SOL    HW113562   3.630   2.887   3.394
 4406SOL    HW213563   3.584   2.779   3.280
 4407SOL     OW13564   2.721   3.236   1.878
 4407SOL    HW113565   2.675   3.251   1.966
 4407SOL    HW213566   2.765   3.321   1.848
 4408SOL     OW13567   2.523   3.652   2.815
 4408SOL    HW113568   2.477   3.740   2.802
 4408SOL    HW213569   2.622   3.664   2.808
 4409SOL     OW13570   2.721   2.818   2.723
 4409SOL    HW113571   2.775   2.749   2.771
 4409SOL    HW213572   2.689   2.887   2.789
 4410SOL     OW13573   2.945   2.846   1.949
 4410SOL    HW113574   2.922   2.899   1.867
 4410SOL    HW213575   3.026   2.790   1.930
 4411SOL     OW13576   3.723   3.431   2.713
 4411SOL    HW113577   3.652   3.419   2.643
 4411SOL    HW213578   3.724   3.352   2.773
 4412SOL     OW13579   2.083   3.176   3.706
 4412SOL    HW113580   2.018   3.103   3.685
 4412SOL    HW213581   2.087   3.190   3.804
 4413SOL     OW13582   1.941   3.102   2.515
 4413SOL    HW113583   1.940   3.055   2.603
 4413SOL    HW213584   2.023   3.074   2.464
 4414SOL     OW13585   2.534   3.253   3.486
 4414SOL    HW113586   2.456   3.203   3.524
 4414SOL    HW213587   2.531   3.348   3.517
 4415SOL     OW13588   3.686   2.054   3.089
 4415SOL    HW113589   3.682   1.964   3.133
 4415SOL    HW213590   3.689   2.043   2.990
 4416SOL     OW13591   2.290   2.286   2.382
 4416SOL    HW113592   2.320   2.214   2.320
 4416SOL    HW213593   2.251   2.246   2.465
 4417SOL     OW13594   3.567   3.349   2.966
 4417SOL    HW113595   3.474   3.324   2.939
 4417SOL    HW213596   3.593   3.299   3.048
 4418SOL     OW13597   2.179   2.409   3.142
 4418SOL    HW113598   2.217   2.350   3.214
 4418SOL    HW213599   2.219   2.383   3.054
 4419SOL     OW13600   2.674   3.448   2.549
 4419SOL    HW113601   2.706   3.458   2.455
 4419SOL    HW213602   2.595   3.386   2.551
 4420SOL     OW13603   3.286   2.076   2.974
 4420SOL    HW113604   3.338   2.011   3.029
 4420SOL    HW213605   3.237   2.139   3.035
 4421SOL     OW13606   2.863   1.896   3.016
 4421SOL    HW113607   2.800   1.824   2.985
 4421SOL    HW213608   2.956   1.860   3.016
 4422SOL     OW13609   2.632   3.192   2.163
 4422SOL    HW113610   2.586   3.105   2.180
 4422SOL    HW213611   2.723   3.189   2.204
 4423SOL     OW13612   2.480   3.429   3.146
 4423SOL    HW113613   2.475   3.511   3.203
 4423SOL    HW213614   2.569   3.426   3.101
 4424SOL     OW13615   3.214   1.914   2.030
 4424SOL    HW113616   3.249   1.873   1.946
 4424SOL    HW213617   3.124   1.876   2.050
 4425SOL     OW13618   3.162   2.315   2.553
 4425SOL    HW113619   3.103   2.395   2.557
 4425SOL    HW213620   3.177   2.280   2.646
 4426SOL     OW13621   3.455   2.083   2.744
 4426SOL    HW113622   3.371   2.082   2.798
 4426SOL    HW213623   3.457   2.166   2.688
 4427SOL     OW13624   1.901   2.939   2.162
 4427SOL    HW113625   2.000   2.928   2.153
 4427SOL    HW213626   1.861   2.853   2.194
 4428SOL     OW13627   2.737   3.508   2.199
 4428SOL    HW113628   2.660   3.473   2.145
 4428SOL    HW213629   2.705   3.579   2.261
 4429SOL     OW13630   2.092   2.490   3.837
 4429SOL    HW113631   1.999   2.488   3.874
 4429SOL    HW213632   2.093   2.451   3.745
 4430SOL     OW13633   2.087   2.137   4.720
 4430SOL    HW113634   2.122   2.120   4.812
 4430SOL    HW213635   1.999   2.092   4.708
 4431SOL     OW13636   1.881   2.230   4.371
 4431SOL    HW113637   1.799   2.273   4.410
 4431SOL    HW213638   1.853   2.157   4.308
 4432SOL     OW13639   2.431   3.137   4.889
 4432SOL    HW113640   2.338   3.130   4.852
 4432SOL    HW213641   2.442   3.226   4.933
 4433SOL     OW13642   3.417   3.373   4.427
 4433SOL    HW113643   3.360   3.357   4.508
 4433SOL    HW213644   3.358   3.383   4.347
 4434SOL     OW13645   2.997   2.565   4.441
 4434SOL    HW113646   3.054   2.643   4.416
 4434SOL    HW213647   2.937   2.591   4.517
 4435SOL     OW13648   3.617   2.469   3.955
 4435SOL    HW113649   3.605   2.456   3.856
 4435SOL    HW213650   3.587   2.388   4.004
 4436SOL     OW13651   2.630   3.006   4.747
 4436SOL    HW113652   2.552   3.023   4.807
 4436SOL    HW213653   2.664   3.093   4.711
 4437SOL     OW13654   2.712   2.660   5.547
 4437SOL    HW113655   2.708   2.736   5.612
 4437SOL    HW213656   2.734   2.696   5.456
 4438SOL     OW13657   2.547   2.874   4.389
 4438SOL    HW113658   2.616   2.858   4.459
 4438SOL    HW213659   2.474   2.931   4.427
 4439SOL     OW13660   2.548   3.023   5.527
 4439SOL    HW113661   2.608   3.102   5.541
 4439SOL    HW213662   2.462   3.054   5.486
 4440SOL     OW13663   2.197   3.297   4.785
 4440SOL    HW113664   2.119   3.266   4.732
 4440SOL    HW213665   2.255   3.355   4.728
 4441SOL     OW13666   3.322   3.367   5.063
 4441SOL    HW113667   3.346   3.461   5.089
 4441SOL    HW213668   3.306   3.313   5.145
 4442SOL     OW13669   2.300   2.254   5.223
 4442SOL    HW113670   2.382   2.198   5.232
 4442SOL    HW213671   2.219   2.196   5.227
 4443SOL     OW13672   3.465   2.309   4.461
 4443SOL    HW113673   3.391   2.355   4.411
 4443SOL    HW213674   3.516   2.377   4.514
 4444SOL     OW13675   2.093   3.575   4.207
 4444SOL    HW113676   2.127   3.652   4.261
 4444SOL    HW213677   2.137   3.575   4.117
 4445SOL     OW13678   2.989   3.203   5.414
 4445SOL    HW113679   3.036   3.203   5.502
 4445SOL    HW213680   2.941   3.116   5.403
 4446SOL     OW13681   2.092   3.296   4.262
 4446SOL    HW113682   2.066   3.392   4.262
 4446SOL    HW213683   2.021   3.242   4.307
 4447SOL     OW13684   2.102   2.953   4.610
 4447SOL    HW113685   2.116   2.869   4.662
 4447SOL    HW213686   2.047   3.017   4.665
 4448SOL     OW13687   2.482   3.648   5.163
 4448SOL    HW113688   2.390   3.631   5.198
 4448SOL    HW213689   2.510   3.740   5.189
 4449SOL     OW13690   2.468   2.826   3.847
 4449SOL    HW113691   2.475   2.910   3.793
 4449SOL    HW213692   2.514   2.839   3.935
 4450SOL     OW13693   3.456   1.976   5.204
 4450SOL    HW113694   3.438   2.043   5.132
 4450SOL    HW213695   3.453   2.022   5.293
 4451SOL     OW13696   1.984   2.505   4.287
 4451SOL    HW113697   1.939   2.417   4.304
 4451SOL    HW213698   1.983   2.559   4.371
 4452SOL     OW13699   3.704   3.629   4.083
 4452SOL    HW113700   3.758   3.600   4.163
 4452SOL    HW213701   3.734   3.719   4.054
 4453SOL     OW13702   1.889   3.458   3.841
 4453SOL    HW113703   1.870   3.362   3.862
 4453SOL    HW213704   1.856   3.516   3.916
 4454SOL     OW13705   3.551   2.784   4.336
 4454SOL    HW113706   3.646   2.755   4.344
 4454SOL    HW213707   3.543   2.849   4.261
 4455SOL     OW13708   3.503   2.970   4.156
 4455SOL    HW113709   3.589   2.972   4.104
 4455SOL    HW213710   3.517   3.017   4.244
 4456SOL     OW13711   1.975   2.599   5.321
 4456SOL    HW113712   2.063   2.586   5.366
 4456SOL    HW213713   1.962   2.696   5.299
 4457SOL     OW13714   2.475   3.227   4.450
 4457SOL    HW113715   2.426   3.140   4.459
 4457SOL    HW213716   2.452   3.270   4.363
 4458SOL     OW13717   3.155   3.090   5.147
 4458SOL    HW113718   3.192   3.017   5.089
 4458SOL    HW213719   3.207   3.095   5.232
 4459SOL     OW13720   2.671   1.866   4.226
 4459SOL    HW113721   2.711   1.957   4.217
 4459SOL    HW213722   2.571   1.874   4.232
 4460SOL     OW13723   2.059   2.838   4.988
 4460SOL    HW113724   2.148   2.793   4.974
 4460SOL    HW213725   1.986   2.773   4.969
 4461SOL     OW13726   3.387   2.861   3.914
 4461SOL    HW113727   3.324   2.785   3.927
 4461SOL    HW213728   3.435   2.879   4.000
 4462SOL     OW13729   3.049   3.654   5.340
 4462SOL    HW113730   3.073   3.714   5.264
 4462SOL    HW213731   3.056   3.559   5.310
 4463SOL     OW13732   2.179   2.113   5.525
 4463SOL    HW113733   2.250   2.184   5.531
 4463SOL    HW213734   2.091   2.152   5.553
 4464SOL     OW13735   3.328   3.279   4.677
 4464SOL    HW113736   3.269   3.285   4.757
 4464SOL    HW213737   3.313   3.191   4.631
 4465SOL     OW13738   3.529   3.576   4.296
 4465SOL    HW113739   3.488   3.553   4.208
 4465SOL    HW213740   3.511   3.502   4.361
 4466SOL     OW13741   2.460   2.591   3.994
 4466SOL    HW113742   2.484   2.660   3.926
 4466SOL    HW213743   2.382   2.624   4.048
 4467SOL     OW13744   3.143   2.207   4.668
 4467SOL    HW113745   3.057   2.157   4.655
 4467SOL    HW213746   3.205   2.153   4.724
 4468SOL     OW13747   3.438   3.524   4.031
 4468SOL    HW113748   3.527   3.570   4.034
 4468SOL    HW213749   3.417   3.500   3.936
 4469SOL     OW13750   2.669   2.467   5.189
 4469SOL    HW113751   2.622   2.464   5.278
 4469SOL    HW213752   2.618   2.412   5.123
 4470SOL     OW13753   3.256   2.331   5.398
 4470SOL    HW113754   3.236   2.374   5.486
 4470SOL    HW213755   3.334   2.269   5.407
 4471SOL     OW13756   2.835   2.752   5.296
 4471SOL    HW113757   2.881   2.668   5.267
 4471SOL    HW213758   2.779   2.786   5.221
 4472SOL     OW13759   2.853   2.272   4.966
 4472SOL    HW113760   2.776   2.306   5.020
 4472SOL    HW213761   2.819   2.221   4.887
 4473SOL     OW13762   2.903   2.563   4.153
 4473SOL    HW113763   2.929   2.559   4.249
 4473SOL    HW213764   2.818   2.512   4.139
 4474SOL     OW13765   1.938   2.673   4.513
 4474SOL    HW113766   2.037   2.661   4.522
 4474SOL    HW213767   1.914   2.768   4.534
 4475SOL     OW13768   1.992   3.683   5.295
 4475SOL    HW113769   1.982   3.668   5.394
 4475SOL    HW213770   1.906   3.719   5.259
 4476SOL     OW13771   2.727   2.210   3.919
 4476SOL    HW113772   2.786   2.273   3.870
 4476SOL    HW213773   2.746   2.116   3.890
 4477SOL     OW13774   3.581   2.447   5.555
 4477SOL    HW113775   3.555   2.536   5.519
 4477SOL    HW213776   3.579   2.379   5.482
 4478SOL     OW13777   3.224   3.006   4.269
 4478SOL    HW113778   3.307   2.977   4.221
 4478SOL    HW213779   3.175   3.073   4.213
 4479SOL     OW13780   2.412   2.058   4.609
 4479SOL    HW113781   2.407   2.053   4.709
 4479SOL    HW213782   2.414   2.154   4.580
 4480SOL     OW13783   2.870   3.318   4.201
 4480SOL    HW113784   2.824   3.390   4.149
 4480SOL    HW213785   2.866   3.338   4.299
 4481SOL     OW13786   2.213   3.663   4.577
 4481SOL    HW113787   2.263   3.577   4.583
 4481SOL    HW213788   2.278   3.740   4.574
 4482SOL     OW13789   3.657   2.928   4.597
 4482SOL    HW113790   3.595   2.913   4.521
 4482SOL    HW213791   3.605   2.939   4.682
 4483SOL     OW13792   3.089   3.412   5.230
 4483SOL    HW113793   3.095   3.335   5.294
 4483SOL    HW213794   3.037   3.386   5.150
 4484SOL     OW13795   2.183   2.805   3.966
 4484SOL    HW113796   2.265   2.844   3.924
 4484SOL    HW213797   2.156   2.723   3.917
 4485SOL     OW13798   3.320   2.597   4.452
 4485SOL    HW113799   3.315   2.532   4.527
 4485SOL    HW213800   3.400   2.656   4.465
 4486SOL     OW13801   2.323   3.128   5.451
 4486SOL    HW113802   2.273   3.129   5.365
 4486SOL    HW213803   2.260   3.110   5.527
 4487SOL     OW13804   2.973   3.638   3.961
 4487SOL    HW113805   2.913   3.576   4.011
 4487SOL    HW213806   3.004   3.594   3.876
 4488SOL     OW13807   2.064   2.147   5.222
 4488SOL    HW113808   1.984   2.207   5.209
 4488SOL    HW213809   2.054   2.098   5.308
 4489SOL     OW13810   3.494   3.239   3.805
 4489SOL    HW113811   3.462   3.333   3.795
 4489SOL    HW213812   3.418   3.176   3.793
 4490SOL     OW13813   2.326   3.605   4.047
 4490SOL    HW113814   2.359   3.644   4.133
 4490SOL    HW213815   2.402   3.598   3.982
 4491SOL     OW13816   3.262   1.969   4.150
 4491SOL    HW113817   3.238   1.932   4.060
 4491SOL    HW213818   3.361   1.985   4.154
 4492SOL     OW13819   2.111   3.647   4.965
 4492SOL    HW113820   2.168   3.582   5.015
 4492SOL    HW213821   2.095   3.614   4.872
 4493SOL     OW13822   2.802   3.560   4.628
 4493SOL    HW113823   2.882   3.503   4.649
 4493SOL    HW213824   2.753   3.520   4.551
 4494SOL     OW13825   2.244   2.562   4.204
 4494SOL    HW113826   2.289   2.472   4.201
 4494SOL    HW213827   2.150   2.551   4.237
 4495SOL     OW13828   3.409   2.084   5.453
 4495SOL    HW113829   3.404   2.121   5.545
 4495SOL    HW213830   3.337   2.015   5.441
 4496SOL     OW13831   2.476   1.984   3.841
 4496SOL    HW113832   2.574   1.962   3.848
 4496SOL    HW213833   2.445   1.967   3.748
 4497SOL     OW13834   2.643   2.126   5.473
 4497SOL    HW113835   2.710   2.065   5.516
 4497SOL    HW213836   2.570   2.145   5.538
 4498SOL     OW13837   2.750   3.376   4.919
 4498SOL    HW113838   2.727   3.351   4.825
 4498SOL    HW213839   2.811   3.307   4.958
 4499SOL     OW13840   3.213   2.452   5.157
 4499SOL    HW113841   3.241   2.409   5.242
 4499SOL    HW213842   3.238   2.548   5.158
 4500SOL     OW13843   2.665   3.264   4.648
 4500SOL    HW113844   2.755   3.278   4.606
 4500SOL    HW213845   2.594   3.266   4.577
 4501SOL     OW13846   2.784   2.365   4.623
 4501SOL    HW113847   2.759   2.356   4.527
 4501SOL    HW213848   2.832   2.283   4.654
 4502SOL     OW13849   2.401   1.926   4.236
 4502SOL    HW113850   2.320   1.927   4.294
 4502SOL    HW213851   2.404   2.009   4.181
 4503SOL     OW13852   3.296   3.050   3.765
 4503SOL    HW113853   3.328   2.974   3.822
 4503SOL    HW213854   3.204   3.077   3.795
 4504SOL     OW13855   2.159   1.897   3.895
 4504SOL    HW113856   2.208   1.981   3.874
 4504SOL    HW213857   2.221   1.832   3.940
 4505SOL     OW13858   2.797   2.098   4.204
 4505SOL    HW113859   2.749   2.139   4.126
 4505SOL    HW213860   2.896   2.096   4.185
 4506SOL     OW13861   2.938   2.545   5.188
 4506SOL    HW113862   2.858   2.484   5.191
 4506SOL    HW213863   3.019   2.492   5.164
 4507SOL     OW13864   3.089   3.432   4.517
 4507SOL    HW113865   3.110   3.506   4.452
 4507SOL    HW213866   3.157   3.432   4.590
 4508SOL     OW13867   2.321   3.014   4.465
 4508SOL    HW113868   2.250   2.987   4.530
 4508SOL    HW213869   2.295   2.986   4.372
 4509SOL     OW13870   3.133   3.659   4.315
 4509SOL    HW113871   3.177   3.723   4.251
 4509SOL    HW213872   3.083   3.711   4.385
 4510SOL     OW13873   2.894   2.411   3.740
 4510SOL    HW113874   2.853   2.493   3.701
 4510SOL    HW213875   2.958   2.437   3.813
 4511SOL     OW13876   1.940   2.418   5.110
 4511SOL    HW113877   2.032   2.417   5.069
 4511SOL    HW213878   1.934   2.492   5.177
 4512SOL     OW13879   2.423   2.084   4.871
 4512SOL    HW113880   2.461   2.000   4.908
 4512SOL    HW213881   2.335   2.103   4.915
 4513SOL     OW13882   2.728   2.316   4.366
 4513SOL    HW113883   2.696   2.388   4.304
 4513SOL    HW213884   2.752   2.235   4.313
 4514SOL     OW13885   2.879   1.901   4.477
 4514SOL    HW113886   2.807   1.906   4.408
 4514SOL    HW213887   2.855   1.832   4.546
 4515SOL     OW13888   3.291   3.035   4.591
 4515SOL    HW113889   3.236   2.951   4.584
 4515SOL    HW213890   3.317   3.064   4.499
 4516SOL     OW13891   3.328   2.452   4.716
 4516SOL    HW113892   3.298   2.357   4.723
 4516SOL    HW213893   3.401   2.468   4.782
 4517SOL     OW13894   3.719   2.695   4.101
 4517SOL    HW113895   3.761   2.631   4.165
 4517SOL    HW213896   3.681   2.644   4.023
 4518SOL     OW13897   2.350   3.247   3.898
 4518SOL    HW113898   2.263   3.232   3.945
 4518SOL    HW213899   2.333   3.273   3.803
 4519SOL     OW13900   3.526   3.142   4.381
 4519SOL    HW113901   3.625   3.150   4.395
 4519SOL    HW213902   3.481   3.226   4.412
 4520SOL     OW13903   3.252   2.437   3.802
 4520SOL    HW113904   3.198   2.416   3.883
 4520SOL    HW213905   3.343   2.396   3.811
 4521SOL     OW13906   2.389   2.118   4.052
 4521SOL    HW113907   2.416   2.059   3.977
 4521SOL    HW213908   2.389   2.213   4.021
 4522SOL     OW13909   3.616   3.085   5.312
 4522SOL    HW113910   3.707   3.046   5.299
 4522SOL    HW213911   3.624   3.181   5.336
 4523SOL     OW13912   2.926   3.209   5.064
 4523SOL    HW113913   2.846   3.186   5.119
 4523SOL    HW213914   3.009   3.183   5.113
 4524SOL     OW13915   3.454   3.491   5.349
 4524SOL    HW113916   3.481   3.525   5.259
 4524SOL    HW213917   3.533   3.453   5.395
 4525SOL     OW13918   2.973   3.057   4.824
 4525SOL    HW113919   2.933   3.101   4.905
 4525SOL    HW213920   2.932   3.094   4.741
 4526SOL     OW13921   3.500   2.961   4.803
 4526SOL    HW113922   3.505   3.042   4.862
 4526SOL    HW213923   3.414   2.963   4.752
 4527SOL     OW13924   2.777   1.951   5.126
 4527SOL    HW113925   2.802   1.931   5.031
 4527SOL    HW213926   2.849   2.007   5.168
 4528SOL     OW13927   2.842   2.978   5.443
 4528SOL    HW113928   2.743   2.984   5.453
 4528SOL    HW213929   2.865   2.898   5.387
 4529SOL     OW13930   2.567   2.912   4.092
 4529SOL    HW113931   2.553   2.919   4.191
 4529SOL    HW213932   2.651   2.861   4.074
 4530SOL     OW13933   2.272   2.675   4.975
 4530SOL    HW113934   2.358   2.687   5.025
 4530SOL    HW213935   2.230   2.588   5.002
 4531SOL     OW13936   3.136   2.248   4.986
 4531SOL    HW113937   3.157   2.322   5.050
 4531SOL    HW213938   3.047   2.265   4.943
 4532SOL     OW13939   1.926   3.426   5.055
 4532SOL    HW113940   1.880   3.508   5.021
 4532SOL    HW213941   2.024   3.445   5.064
 4533SOL     OW13942   2.229   2.962   4.225
 4533SOL    HW113943   2.222   3.045   4.169
 4533SOL    HW213944   2.233   2.882   4.165
 4534SOL     OW13945   2.428   2.399   4.589
 4534SOL    HW113946   2.440   2.465   4.515
 4534SOL    HW213947   2.474   2.433   4.672
 4535SOL     OW13948   3.114   3.210   4.112
 4535SOL    HW113949   3.164   3.287   4.152
 4535SOL    HW213950   3.019   3.212   4.144
 4536SOL     OW13951   3.134   3.307   4.866
 4536SOL    HW113952   3.181   3.320   4.953
 4536SOL    HW213953   3.068   3.233   4.875
 4537SOL     OW13954   3.444   2.501   4.196
 4537SOL    HW113955   3.413   2.562   4.269
 4537SOL    HW213956   3.494   2.553   4.127
 4538SOL     OW13957   2.216   3.372   5.053
 4538SOL    HW113958   2.195   3.328   4.966
 4538SOL    HW213959   2.313   3.398   5.056
 4539SOL     OW13960   2.264   2.613   5.322
 4539SOL    HW113961   2.332   2.668   5.275
 4539SOL    HW213962   2.304   2.525   5.349
 4540SOL     OW13963   3.449   2.641   5.394
 4540SOL    HW113964   3.357   2.679   5.389
 4540SOL    HW213965   3.509   2.688   5.329
 4541SOL     OW13966   2.875   1.967   5.494
 4541SOL    HW113967   2.881   2.052   5.442
 4541SOL    HW213968   2.907   1.891   5.437
 4542SOL     OW13969   2.366   1.912   5.464
 4542SOL    HW113970   2.324   1.855   5.394
 4542SOL    HW213971   2.300   1.981   5.496
 4543SOL     OW13972   2.435   2.732   4.753
 4543SOL    HW113973   2.479   2.821   4.744
 4543SOL    HW213974   2.372   2.732   4.830
 4544SOL     OW13975   3.222   2.724   4.769
 4544SOL    HW113976   3.147   2.724   4.703
 4544SOL    HW213977   3.259   2.632   4.778
 4545SOL     OW13978   3.071   2.387   3.999
 4545SOL    HW113979   3.084   2.303   4.053
 4545SOL    HW213980   3.042   2.461   4.059
 4546SOL     OW13981   2.169   2.075   4.955
 4546SOL    HW113982   2.146   2.112   5.045
 4546SOL    HW213983   2.139   1.980   4.949
 4547SOL     OW13984   1.899   3.172   5.006
 4547SOL    HW113985   1.952   3.123   5.074
 4547SOL    HW213986   1.921   3.270   5.011
 4548SOL     OW13987   2.594   2.496   4.788
 4548SOL    HW113988   2.653   2.470   4.712
 4548SOL    HW213989   2.566   2.592   4.777
 4549SOL     OW13990   3.590   2.797   5.578
 4549SOL    HW113991   3.544   2.790   5.489
 4549SOL    HW213992   3.528   2.841   5.644
 4550SOL     OW13993   2.169   1.925   4.342
 4550SOL    HW113994   2.158   2.019   4.375
 4550SOL    HW213995   2.164   1.862   4.419
 4551SOL     OW13996   3.484   2.229   4.098
 4551SOL    HW113997   3.486   2.153   4.162
 4551SOL    HW213998   3.436   2.306   4.138
 4552SOL     OW13999   2.885   2.628   4.690
 4552SOL    HW114000   2.900   2.649   4.786
 4552SOL    HW214001   2.855   2.533   4.681
 4553SOL     OW14002   2.842   3.435   5.424
 4553SOL    HW114003   2.822   3.479   5.336
 4553SOL    HW214004   2.881   3.344   5.408
 4554SOL     OW14005   3.721   3.380   5.329
 4554SOL    HW114006   3.735   3.407   5.234
 4554SOL    HW214007   3.804   3.402   5.382
 4555SOL     OW14008   2.212   2.760   5.528
 4555SOL    HW114009   2.288   2.804   5.576
 4555SOL    HW214010   2.247   2.713   5.446
 4556SOL     OW14011   3.402   2.136   3.849
 4556SOL    HW114012   3.341   2.061   3.872
 4556SOL    HW214013   3.424   2.188   3.932
 4557SOL     OW14014   3.165   2.700   3.766
 4557SOL    HW114015   3.199   2.607   3.781
 4557SOL    HW214016   3.183   2.727   3.671
 4558SOL     OW14017   2.930   3.195   4.573
 4558SOL    HW114018   2.937   3.111   4.518
 4558SOL    HW214019   2.992   3.264   4.537
 4559SOL     OW14020   2.181   2.672   4.673
 4559SOL    HW114021   2.274   2.708   4.678
 4559SOL    HW214022   2.175   2.587   4.725
 4560SOL     OW14023   2.201   2.371   4.730
 4560SOL    HW114024   2.149   2.288   4.713
 4560SOL    HW214025   2.278   2.376   4.666
 4561SOL     OW14026   3.000   2.242   5.402
 4561SOL    HW114027   2.955   2.305   5.466
 4561SOL    HW214028   3.093   2.273   5.385
 4562SOL     OW14029   3.022   2.069   5.201
 4562SOL    HW114030   3.022   2.133   5.278
 4562SOL    HW214031   3.050   2.117   5.118
 4563SOL     OW14032   1.870   3.188   3.924
 4563SOL    HW114033   1.777   3.209   3.893
 4563SOL    HW214034   1.880   3.089   3.937
 4564SOL     OW14035   1.950   3.663   4.651
 4564SOL    HW114036   1.908   3.577   4.624
 4564SOL    HW214037   2.044   3.666   4.617
 4565SOL     OW14038   2.366   3.430   4.634
 4565SOL    HW114039   2.432   3.504   4.643
 4565SOL    HW214040   2.410   3.351   4.592
 4566SOL     OW14041   2.864   2.658   4.962
 4566SOL    HW114042   2.905   2.626   5.048
 4566SOL    HW214043   2.768   2.631   4.959
 4567SOL     OW14044   1.902   2.406   4.838
 4567SOL    HW114045   1.987   2.373   4.797
 4567SOL    HW214046   1.915   2.421   4.936
 4568SOL     OW14047   2.051   2.382   5.446
 4568SOL    HW114048   2.110   2.342   5.376
 4568SOL    HW214049   1.993   2.453   5.405
 4569SOL     OW14050   3.231   2.812   5.384
 4569SOL    HW114051   3.270   2.901   5.404
 4569SOL    HW214052   3.241   2.792   5.287
 4570SOL     OW14053   2.677   2.434   4.049
 4570SOL    HW114054   2.684   2.345   4.003
 4570SOL    HW214055   2.583   2.468   4.041
 4571SOL     OW14056   3.519   2.466   4.930
 4571SOL    HW114057   3.481   2.397   4.992
 4571SOL    HW214058   3.601   2.430   4.886
 4572SOL     OW14059   2.114   3.426   5.468
 4572SOL    HW114060   2.084   3.483   5.544
 4572SOL    HW214061   2.107   3.329   5.494
 4573SOL     OW14062   2.533   2.326   4.993
 4573SOL    HW114063   2.499   2.237   4.963
 4573SOL    HW214064   2.559   2.380   4.913
 4574SOL     OW14065   2.792   3.540   5.189
 4574SOL    HW114066   2.768   3.522   5.094
 4574SOL    HW214067   2.822   3.634   5.199
 4575SOL     OW14068   2.335   2.362   3.915
 4575SOL    HW114069   2.396   2.442   3.919
 4575SOL    HW214070   2.240   2.393   3.922
 4576SOL     OW14071   2.021   2.999   5.190
 4576SOL    HW114072   2.043   2.938   5.266
 4576SOL    HW214073   2.031   2.950   5.104
 4577SOL     OW14074   3.209   2.921   4.958
 4577SOL    HW114075   3.233   2.858   4.884
 4577SOL    HW214076   3.119   2.961   4.940
 4578SOL     OW14077   3.164   2.717   4.033
 4578SOL    HW114078   3.078   2.686   4.075
 4578SOL    HW214079   3.160   2.703   3.934
 4579SOL     OW14080   3.621   3.609   4.878
 4579SOL    HW114081   3.682   3.639   4.805
 4579SOL    HW214082   3.583   3.520   4.856
 4580SOL     OW14083   3.114   3.593   4.852
 4580SOL    HW114084   3.198   3.598   4.798
 4580SOL    HW214085   3.091   3.497   4.870
 4581SOL     OW14086   1.945   3.120   4.746
 4581SOL    HW114087   1.940   3.119   4.846
 4581SOL    HW214088   1.862   3.079   4.708
 4582SOL     OW14089   2.550   3.524   5.440
 4582SOL    HW114090   2.494   3.605   5.449
 4582SOL    HW214091   2.602   3.528   5.354
 4583SOL     OW14092   3.588   1.997   4.247
 4583SOL    HW114093   3.661   1.980   4.180
 4583SOL    HW214094   3.557   1.910   4.285
 4584SOL     OW14095   3.250   3.435   4.201
 4584SOL    HW114096   3.317   3.447   4.127
 4584SOL    HW214097   3.210   3.524   4.224
 4585SOL     OW14098   1.992   3.656   5.575
 4585SOL    HW114099   1.951   3.582   5.628
 4585SOL    HW214100   2.056   3.707   5.633
 4586SOL     OW14101   3.142   2.789   4.396
 4586SOL    HW114102   3.202   2.708   4.398
 4586SOL    HW214103   3.182   2.858   4.336
 4587SOL     OW14104   2.692   3.135   5.146
 4587SOL    HW114105   2.687   3.168   5.241
 4587SOL    HW214106   2.606   3.154   5.100
 4588SOL     OW14107   2.534   3.478   3.878
 4588SOL    HW114108   2.543   3.488   3.779
 4588SOL    HW214109   2.494   3.389   3.899
 4589SOL     OW14110   3.512   3.582   5.118
 4589SOL    HW114111   3.565   3.592   5.034
 4589SOL    HW214112   3.485   3.672   5.152
 4590SOL     OW14113   3.703   2.037   4.687
 4590SOL    HW114114   3.742   1.952   4.651
 4590SOL    HW214115   3.605   2.039   4.668
 4591SOL     OW14116   2.125   2.188   4.444
 4591SOL    HW114117   2.046   2.239   4.410
 4591SOL    HW214118   2.116   2.173   4.542
 4592SOL     OW14119   3.056   3.474   3.755
 4592SOL    HW114120   3.062   3.381   3.792
 4592SOL    HW214121   2.997   3.474   3.675
 4593SOL     OW14122   2.684   2.864   5.096
 4593SOL    HW114123   2.724   2.863   5.004
 4593SOL    HW214124   2.694   2.956   5.136
 4594SOL     OW14125   2.778   2.772   4.015
 4594SOL    HW114126   2.841   2.810   3.947
 4594SOL    HW214127   2.818   2.689   4.054
 4595SOL     OW14128   3.366   3.469   3.768
 4595SOL    HW114129   3.274   3.506   3.775
 4595SOL    HW214130   3.404   3.489   3.678
 4596SOL     OW14131   2.234   3.150   5.214
 4596SOL    HW114132   2.221   3.243   5.180
 4596SOL    HW214133   2.150   3.098   5.201
 4597SOL     OW14134   3.476   3.154   5.013
 4597SOL    HW114135   3.536   3.157   5.093
 4597SOL    HW214136   3.401   3.218   5.026
 4598SOL     OW14137   2.901   2.960   4.420
 4598SOL    HW114138   2.831   2.913   4.474
 4598SOL    HW214139   2.960   2.892   4.377
 4599SOL     OW14140   2.876   2.098   4.695
 4599SOL    HW114141   2.868   2.062   4.602
 4599SOL    HW214142   2.874   2.022   4.760
 4600SOL     OW14143   2.452   3.349   4.215
 4600SOL    HW114144   2.494   3.291   4.145
 4600SOL    HW214145   2.408   3.428   4.171
 4601SOL     OW14146   3.571   2.247   5.105
 4601SOL    HW114147   3.644   2.316   5.109
 4601SOL    HW214148   3.599   2.172   5.046
 4602SOL     OW14149   2.117   3.210   4.014
 4602SOL    HW114150   2.021   3.211   3.987
 4602SOL    HW214151   2.129   3.263   4.098
 4603SOL     OW14152   1.967   2.875   5.450
 4603SOL    HW114153   1.890   2.842   5.504
 4603SOL    HW214154   2.052   2.845   5.492
 4604SOL     OW14155   2.534   2.065   5.213
 4604SOL    HW114156   2.624   2.049   5.173
 4604SOL    HW214157   2.542   2.070   5.312
 4605SOL     OW14158   1.937   2.207   3.757
 4605SOL    HW114159   1.845   2.179   3.728
 4605SOL    HW214160   1.968   2.284   3.701
 4606SOL     OW14161   3.302   2.718   5.122
 4606SOL    HW114162   3.245   2.770   5.059
 4606SOL    HW214163   3.398   2.730   5.098
 4607SOL     OW14164   1.934   2.028   4.042
 4607SOL    HW114165   1.917   2.111   3.988
 4607SOL    HW214166   2.024   1.991   4.020
 4608SOL     OW14167   3.045   3.197   3.843
 4608SOL    HW114168   2.946   3.186   3.845
 4608SOL    HW214169   3.079   3.212   3.936
 4609SOL     OW14170   2.475   2.704   5.155
 4609SOL    HW114171   2.531   2.785   5.138
 4609SOL    HW214172   2.534   2.624   5.158
 4610SOL     OW14173   3.355   3.629   4.683
 4610SOL    HW114174   3.388   3.693   4.614
 4610SOL    HW214175   3.421   3.623   4.758
 4611SOL     OW14176   2.578   2.427   5.432
 4611SOL    HW114177   2.597   2.492   5.506
 4611SOL    HW214178   2.638   2.347   5.441
 4612SOL     OW14179   3.312   3.082   5.357
 4612SOL    HW114180   3.303   3.072   5.456
 4612SOL    HW214181   3.408   3.075   5.331
 4613SOL     OW14182   2.252   3.603   5.284
 4613SOL    HW114183   2.161   3.644   5.282
 4613SOL    HW214184   2.245   3.509   5.316
 4614SOL     OW14185   3.536   2.745   4.978
 4614SOL    HW114186   3.509   2.656   4.941
 4614SOL    HW214187   3.537   2.813   4.905
 4615SOL     OW14188   3.087   2.187   4.173
 4615SOL    HW114189   3.152   2.113   4.162
 4615SOL    HW214190   3.107   2.237   4.257
 4616SOL     OW14191   2.456   2.607   4.376
 4616SOL    HW114192   2.506   2.692   4.357
 4616SOL    HW214193   2.368   2.609   4.328
 4617SOL     OW14194   3.639   2.204   5.366
 4617SOL    HW114195   3.622   2.235   5.272
 4617SOL    HW214196   3.555   2.167   5.404
 4618SOL     OW14197   3.592   2.796   5.241
 4618SOL    HW114198   3.630   2.887   5.256
 4618SOL    HW214199   3.584   2.779   5.142
 4619SOL     OW14200   2.721   3.236   3.740
 4619SOL    HW114201   2.675   3.251   3.828
 4619SOL    HW214202   2.765   3.321   3.710
 4620SOL     OW14203   2.523   3.652   4.677
 4620SOL    HW114204   2.477   3.740   4.664
 4620SOL    HW214205   2.622   3.664   4.670
 4621SOL     OW14206   2.721   2.818   4.585
 4621SOL    HW114207   2.775   2.749   4.633
 4621SOL    HW214208   2.689   2.887   4.651
 4622SOL     OW14209   2.945   2.846   3.811
 4622SOL    HW114210   2.922   2.899   3.729
 4622SOL    HW214211   3.026   2.790   3.792
 4623SOL     OW14212   3.723   3.431   4.575
 4623SOL    HW114213   3.652   3.419   4.505
 4623SOL    HW214214   3.724   3.352   4.635
 4624SOL     OW14215   2.083   3.176   5.568
 4624SOL    HW114216   2.018   3.103   5.547
 4624SOL    HW214217   2.087   3.190   5.666
 4625SOL     OW14218   1.941   3.102   4.377
 4625SOL    HW114219   1.940   3.055   4.465
 4625SOL    HW214220   2.023   3.074   4.326
 4626SOL     OW14221   2.534   3.253   5.348
 4626SOL    HW114222   2.456   3.203   5.386
 4626SOL    HW214223   2.531   3.348   5.379
 4627SOL     OW14224   3.686   2.054   4.951
 4627SOL    HW114225   3.682   1.964   4.995
 4627SOL    HW214226   3.689   2.043   4.852
 4628SOL     OW14227   2.290   2.286   4.244
 4628SOL    HW114228   2.320   2.214   4.182
 4628SOL    HW214229   2.251   2.246   4.327
 4629SOL     OW14230   3.567   3.349   4.828
 4629SOL    HW114231   3.474   3.324   4.801
 4629SOL    HW214232   3.593   3.299   4.910
 4630SOL     OW14233   2.179   2.409   5.004
 4630SOL    HW114234   2.217   2.350   5.076
 4630SOL    HW214235   2.219   2.383   4.916
 4631SOL     OW14236   2.674   3.448   4.411
 4631SOL    HW114237   2.706   3.458   4.317
 4631SOL    HW214238   2.595   3.386   4.413
 4632SOL     OW14239   3.286   2.076   4.836
 4632SOL    HW114240   3.338   2.011   4.891
 4632SOL    HW214241   3.237   2.139   4.897
 4633SOL     OW14242   2.863   1.896   4.878
 4633SOL    HW114243   2.800   1.824   4.847
 4633SOL    HW214244   2.956   1.860   4.878
 4634SOL     OW14245   2.632   3.192   4.025
 4634SOL    HW114246   2.586   3.105   4.042
 4634SOL    HW214247   2.723   3.189   4.066
 4635SOL     OW14248   2.480   3.429   5.008
 4635SOL    HW114249   2.475   3.511   5.065
 4635SOL    HW214250   2.569   3.426   4.963
 4636SOL     OW14251   3.214   1.914   3.892
 4636SOL    HW114252   3.249   1.873   3.808
 4636SOL    HW214253   3.124   1.876   3.912
 4637SOL     OW14254   3.162   2.315   4.415
 4637SOL    HW114255   3.103   2.395   4.419
 4637SOL    HW214256   3.177   2.280   4.508
 4638SOL     OW14257   3.455   2.083   4.606
 4638SOL    HW114258   3.371   2.082   4.660
 4638SOL    HW214259   3.457   2.166   4.550
 4639SOL     OW14260   1.901   2.939   4.024
 4639SOL    HW114261   2.000   2.928   4.015
 4639SOL    HW214262   1.861   2.853   4.056
 4640SOL     OW14263   2.737   3.508   4.061
 4640SOL    HW114264   2.660   3.473   4.007
 4640SOL    HW214265   2.705   3.579   4.123
 4641SOL     OW14266   2.092   2.490   5.699
 4641SOL    HW114267   1.999   2.488   5.736
 4641SOL    HW214268   2.093   2.451   5.607
 4642SOL     OW14269   2.087   2.137   6.582
 4642SOL    HW114270   2.122   2.120   6.674
 4642SOL    HW214271   1.999   2.092   6.570
 4643SOL     OW14272   1.881   2.230   6.233
 4643SOL    HW114273   1.799   2.273   6.272
 4643SOL    HW214274   1.853   2.157   6.170
 4644SOL     OW14275   2.431   3.137   6.751
 4644SOL    HW114276   2.338   3.130   6.714
 4644SOL    HW214277   2.442   3.226   6.795
 4645SOL     OW14278   3.417   3.373   6.289
 4645SOL    HW114279   3.360   3.357   6.370
 4645SOL    HW214280   3.358   3.383   6.209
 4646SOL     OW14281   2.997   2.565   6.303
 4646SOL    HW114282   3.054   2.643   6.278
 4646SOL    HW214283   2.937   2.591   6.379
 4647SOL     OW14284   3.617   2.469   5.817
 4647SOL    HW114285   3.605   2.456   5.718
 4647SOL    HW214286   3.587   2.388   5.866
 4648SOL     OW14287   2.547   2.874   6.251
 4648SOL    HW114288   2.616   2.858   6.321
 4648SOL    HW214289   2.474   2.931   6.289
 4649SOL     OW14290   2.197   3.297   6.647
 4649SOL    HW114291   2.119   3.266   6.594
 4649SOL    HW214292   2.255   3.355   6.590
 4650SOL     OW14293   3.465   2.309   6.323
 4650SOL    HW114294   3.391   2.355   6.273
 4650SOL    HW214295   3.516   2.377   6.376
 4651SOL     OW14296   2.093   3.575   6.069
 4651SOL    HW114297   2.127   3.652   6.123
 4651SOL    HW214298   2.137   3.575   5.979
 4652SOL     OW14299   2.092   3.296   6.124
 4652SOL    HW114300   2.066   3.392   6.124
 4652SOL    HW214301   2.021   3.242   6.169
 4653SOL     OW14302   2.102   2.953   6.472
 4653SOL    HW114303   2.116   2.869   6.524
 4653SOL    HW214304   2.047   3.017   6.527
 4654SOL     OW14305   2.468   2.826   5.709
 4654SOL    HW114306   2.475   2.910   5.655
 4654SOL    HW214307   2.514   2.839   5.797
 4655SOL     OW14308   1.984   2.505   6.149
 4655SOL    HW114309   1.939   2.417   6.166
 4655SOL    HW214310   1.983   2.559   6.233
 4656SOL     OW14311   3.704   3.629   5.945
 4656SOL    HW114312   3.758   3.600   6.025
 4656SOL    HW214313   3.734   3.719   5.916
 4657SOL     OW14314   1.889   3.458   5.703
 4657SOL    HW114315   1.870   3.362   5.724
 4657SOL    HW214316   1.856   3.516   5.778
 4658SOL     OW14317   3.551   2.784   6.198
 4658SOL    HW114318   3.646   2.755   6.206
 4658SOL    HW214319   3.543   2.849   6.123
 4659SOL     OW14320   3.503   2.970   6.018
 4659SOL    HW114321   3.589   2.972   5.966
 4659SOL    HW214322   3.517   3.017   6.106
 4660SOL     OW14323   2.475   3.227   6.312
 4660SOL    HW114324   2.426   3.140   6.321
 4660SOL    HW214325   2.452   3.270   6.225
 4661SOL     OW14326   2.671   1.866   6.088
 4661SOL    HW114327   2.711   1.957   6.079
 4661SOL    HW214328   2.571   1.874   6.094
 4662SOL     OW14329   3.387   2.861   5.776
 4662SOL    HW114330   3.324   2.785   5.789
 4662SOL    HW214331   3.435   2.879   5.862
 4663SOL     OW14332   3.529   3.576   6.158
 4663SOL    HW114333   3.488   3.553   6.070
 4663SOL    HW214334   3.511   3.502   6.223
 4664SOL     OW14335   2.460   2.591   5.856
 4664SOL    HW114336   2.484   2.660   5.788
 4664SOL    HW214337   2.382   2.624   5.910
 4665SOL     OW14338   3.143   2.207   6.530
 4665SOL    HW114339   3.057   2.157   6.517
 4665SOL    HW214340   3.205   2.153   6.586
 4666SOL     OW14341   3.438   3.524   5.893
 4666SOL    HW114342   3.527   3.570   5.896
 4666SOL    HW214343   3.417   3.500   5.798
 4667SOL     OW14344   2.853   2.272   6.828
 4667SOL    HW114345   2.776   2.306   6.882
 4667SOL    HW214346   2.819   2.221   6.749
 4668SOL     OW14347   2.903   2.563   6.015
 4668SOL    HW114348   2.929   2.559   6.111
 4668SOL    HW214349   2.818   2.512   6.001
 4669SOL     OW14350   1.938   2.673   6.375
 4669SOL    HW114351   2.037   2.661   6.384
 4669SOL    HW214352   1.914   2.768   6.396
 4670SOL     OW14353   2.727   2.210   5.781
 4670SOL    HW114354   2.786   2.273   5.732
 4670SOL    HW214355   2.746   2.116   5.752
 4671SOL     OW14356   3.224   3.006   6.131
 4671SOL    HW114357   3.307   2.977   6.083
 4671SOL    HW214358   3.175   3.073   6.075
 4672SOL     OW14359   2.412   2.058   6.471
 4672SOL    HW114360   2.407   2.053   6.571
 4672SOL    HW214361   2.414   2.154   6.442
 4673SOL     OW14362   2.870   3.318   6.063
 4673SOL    HW114363   2.824   3.390   6.011
 4673SOL    HW214364   2.866   3.338   6.161
 4674SOL     OW14365   2.213   3.663   6.439
 4674SOL    HW114366   2.263   3.577   6.445
 4674SOL    HW214367   2.278   3.740   6.436
 4675SOL     OW14368   2.183   2.805   5.828
 4675SOL    HW114369   2.265   2.844   5.786
 4675SOL    HW214370   2.156   2.723   5.779
 4676SOL     OW14371   3.320   2.597   6.314
 4676SOL    HW114372   3.315   2.532   6.389
 4676SOL    HW214373   3.400   2.656   6.327
 4677SOL     OW14374   2.973   3.638   5.823
 4677SOL    HW114375   2.913   3.576   5.873
 4677SOL    HW214376   3.004   3.594   5.738
 4678SOL     OW14377   3.494   3.239   5.667
 4678SOL    HW114378   3.462   3.333   5.657
 4678SOL    HW214379   3.418   3.176   5.655
 4679SOL     OW14380   2.326   3.605   5.909
 4679SOL    HW114381   2.359   3.644   5.995
 4679SOL    HW214382   2.402   3.598   5.844
 4680SOL     OW14383   3.262   1.969   6.012
 4680SOL    HW114384   3.238   1.932   5.922
 4680SOL    HW214385   3.361   1.985   6.016
 4681SOL     OW14386   2.111   3.647   6.827
 4681SOL    HW114387   2.168   3.582   6.877
 4681SOL    HW214388   2.095   3.614   6.734
 4682SOL     OW14389   2.802   3.560   6.490
 4682SOL    HW114390   2.882   3.503   6.511
 4682SOL    HW214391   2.753   3.520   6.413
 4683SOL     OW14392   2.244   2.562   6.066
 4683SOL    HW114393   2.289   2.472   6.063
 4683SOL    HW214394   2.150   2.551   6.099
 4684SOL     OW14395   2.476   1.984   5.703
 4684SOL    HW114396   2.574   1.962   5.710
 4684SOL    HW214397   2.445   1.967   5.610
 4685SOL     OW14398   2.665   3.264   6.510
 4685SOL    HW114399   2.755   3.278   6.468
 4685SOL    HW214400   2.594   3.266   6.439
 4686SOL     OW14401   2.401   1.926   6.098
 4686SOL    HW114402   2.320   1.927   6.156
 4686SOL    HW214403   2.404   2.009   6.043
 4687SOL     OW14404   3.296   3.050   5.627
 4687SOL    HW114405   3.328   2.974   5.684
 4687SOL    HW214406   3.204   3.077   5.657
 4688SOL     OW14407   2.159   1.897   5.757
 4688SOL    HW114408   2.208   1.981   5.736
 4688SOL    HW214409   2.221   1.832   5.802
 4689SOL     OW14410   2.797   2.098   6.066
 4689SOL    HW114411   2.749   2.139   5.988
 4689SOL    HW214412   2.896   2.096   6.047
 4690SOL     OW14413   3.089   3.432   6.379
 4690SOL    HW114414   3.110   3.506   6.314
 4690SOL    HW214415   3.157   3.432   6.452
 4691SOL     OW14416   2.321   3.014   6.327
 4691SOL    HW114417   2.250   2.987   6.392
 4691SOL    HW214418   2.295   2.986   6.234
 4692SOL     OW14419   3.133   3.659   6.177
 4692SOL    HW114420   3.177   3.723   6.113
 4692SOL    HW214421   3.083   3.711   6.247
 4693SOL     OW14422   2.894   2.411   5.602
 4693SOL    HW114423   2.853   2.493   5.563
 4693SOL    HW214424   2.958   2.437   5.675
 4694SOL     OW14425   2.423   2.084   6.733
 4694SOL    HW114426   2.461   2.000   6.770
 4694SOL    HW214427   2.335   2.103   6.777
 4695SOL     OW14428   2.728   2.316   6.228
 4695SOL    HW114429   2.696   2.388   6.166
 4695SOL    HW214430   2.752   2.235   6.175
 4696SOL     OW14431   2.879   1.901   6.339
 4696SOL    HW114432   2.807   1.906   6.270
 4696SOL    HW214433   2.855   1.832   6.408
 4697SOL     OW14434   3.291   3.035   6.453
 4697SOL    HW114435   3.236   2.951   6.446
 4697SOL    HW214436   3.317   3.064   6.361
 4698SOL     OW14437   3.328   2.452   6.578
 4698SOL    HW114438   3.298   2.357   6.585
 4698SOL    HW214439   3.401   2.468   6.644
 4699SOL     OW14440   3.719   2.695   5.963
 4699SOL    HW114441   3.761   2.631   6.027
 4699SOL    HW214442   3.681   2.644   5.885
 4700SOL     OW14443   2.350   3.247   5.760
 4700SOL    HW114444   2.263   3.232   5.807
 4700SOL    HW214445   2.333   3.273   5.665
 4701SOL     OW14446   3.526   3.142   6.243
 4701SOL    HW114447   3.625   3.150   6.257
 4701SOL    HW214448   3.481   3.226   6.274
 4702SOL     OW14449   3.252   2.437   5.664
 4702SOL    HW114450   3.198   2.416   5.745
 4702SOL    HW214451   3.343   2.396   5.673
 4703SOL     OW14452   2.389   2.118   5.914
 4703SOL    HW114453   2.416   2.059   5.839
 4703SOL    HW214454   2.389   2.213   5.883
 4704SOL     OW14455   3.500   2.961   6.665
 4704SOL    HW114456   3.505   3.042   6.724
 4704SOL    HW214457   3.414   2.963   6.614
 4705SOL     OW14458   2.567   2.912   5.954
 4705SOL    HW114459   2.553   2.919   6.053
 4705SOL    HW214460   2.651   2.861   5.936
 4706SOL     OW14461   2.229   2.962   6.087
 4706SOL    HW114462   2.222   3.045   6.031
 4706SOL    HW214463   2.233   2.882   6.027
 4707SOL     OW14464   2.428   2.399   6.451
 4707SOL    HW114465   2.440   2.465   6.377
 4707SOL    HW214466   2.474   2.433   6.534
 4708SOL     OW14467   3.114   3.210   5.974
 4708SOL    HW114468   3.164   3.287   6.014
 4708SOL    HW214469   3.019   3.212   6.006
 4709SOL     OW14470   3.444   2.501   6.058
 4709SOL    HW114471   3.413   2.562   6.131
 4709SOL    HW214472   3.494   2.553   5.989
 4710SOL     OW14473   2.435   2.732   6.615
 4710SOL    HW114474   2.479   2.821   6.606
 4710SOL    HW214475   2.372   2.732   6.692
 4711SOL     OW14476   3.071   2.387   5.861
 4711SOL    HW114477   3.084   2.303   5.915
 4711SOL    HW214478   3.042   2.461   5.921
 4712SOL     OW14479   2.594   2.496   6.650
 4712SOL    HW114480   2.653   2.470   6.574
 4712SOL    HW214481   2.566   2.592   6.639
 4713SOL     OW14482   2.169   1.925   6.204
 4713SOL    HW114483   2.158   2.019   6.237
 4713SOL    HW214484   2.164   1.862   6.281
 4714SOL     OW14485   3.484   2.229   5.960
 4714SOL    HW114486   3.486   2.153   6.024
 4714SOL    HW214487   3.436   2.306   6.000
 4715SOL     OW14488   3.402   2.136   5.711
 4715SOL    HW114489   3.341   2.061   5.734
 4715SOL    HW214490   3.424   2.188   5.794
 4716SOL     OW14491   3.165   2.700   5.628
 4716SOL    HW114492   3.199   2.607   5.643
 4716SOL    HW214493   3.183   2.727   5.533
 4717SOL     OW14494   2.930   3.195   6.435
 4717SOL    HW114495   2.937   3.111   6.380
 4717SOL    HW214496   2.992   3.264   6.399
 4718SOL     OW14497   2.181   2.672   6.535
 4718SOL    HW114498   2.274   2.708   6.540
 4718SOL    HW214499   2.175   2.587   6.587
 4719SOL     OW14500   2.201   2.371   6.592
 4719SOL    HW114501   2.149   2.288   6.575
 4719SOL    HW214502   2.278   2.376   6.528
 4720SOL     OW14503   1.870   3.188   5.786
 4720SOL    HW114504   1.777   3.209   5.755
 4720SOL    HW214505   1.880   3.089   5.799
 4721SOL     OW14506   1.950   3.663   6.513
 4721SOL    HW114507   1.908   3.577   6.486
 4721SOL    HW214508   2.044   3.666   6.479
 4722SOL     OW14509   2.366   3.430   6.496
 4722SOL    HW114510   2.432   3.504   6.505
 4722SOL    HW214511   2.410   3.351   6.454
 4723SOL     OW14512   1.902   2.406   6.700
 4723SOL    HW114513   1.987   2.373   6.659
 4723SOL    HW214514   1.915   2.421   6.798
 4724SOL     OW14515   2.677   2.434   5.911
 4724SOL    HW114516   2.684   2.345   5.865
 4724SOL    HW214517   2.583   2.468   5.903
 4725SOL     OW14518   2.533   2.326   6.855
 4725SOL    HW114519   2.499   2.237   6.825
 4725SOL    HW214520   2.559   2.380   6.775
 4726SOL     OW14521   2.335   2.362   5.777
 4726SOL    HW114522   2.396   2.442   5.781
 4726SOL    HW214523   2.240   2.393   5.784
 4727SOL     OW14524   3.164   2.717   5.895
 4727SOL    HW114525   3.078   2.686   5.937
 4727SOL    HW214526   3.160   2.703   5.796
 4728SOL     OW14527   1.945   3.120   6.608
 4728SOL    HW114528   1.940   3.119   6.708
 4728SOL    HW214529   1.862   3.079   6.570
 4729SOL     OW14530   3.588   1.997   6.109
 4729SOL    HW114531   3.661   1.980   6.042
 4729SOL    HW214532   3.557   1.910   6.147
 4730SOL     OW14533   3.250   3.435   6.063
 4730SOL    HW114534   3.317   3.447   5.989
 4730SOL    HW214535   3.210   3.524   6.086
 4731SOL     OW14536   3.142   2.789   6.258
 4731SOL    HW114537   3.202   2.708   6.260
 4731SOL    HW214538   3.182   2.858   6.198
 4732SOL     OW14539   2.534   3.478   5.740
 4732SOL    HW114540   2.543   3.488   5.641
 4732SOL    HW214541   2.494   3.389   5.761
 4733SOL     OW14542   3.703   2.037   6.549
 4733SOL    HW114543   3.742   1.952   6.513
 4733SOL    HW214544   3.605   2.039   6.530
 4734SOL     OW14545   2.125   2.188   6.306
 4734SOL    HW114546   2.046   2.239   6.272
 4734SOL    HW214547   2.116   2.173   6.404
 4735SOL     OW14548   3.056   3.474   5.617
 4735SOL    HW114549   3.062   3.381   5.654
 4735SOL    HW214550   2.997   3.474   5.537
 4736SOL     OW14551   2.778   2.772   5.877
 4736SOL    HW114552   2.841   2.810   5.809
 4736SOL    HW214553   2.818   2.689   5.916
 4737SOL     OW14554   3.366   3.469   5.630
 4737SOL    HW114555   3.274   3.506   5.637
 4737SOL    HW214556   3.404   3.489   5.540
 4738SOL     OW14557   2.901   2.960   6.282
 4738SOL    HW114558   2.831   2.913   6.336
 4738SOL    HW214559   2.960   2.892   6.239
 4739SOL     OW14560   2.452   3.349   6.077
 4739SOL    HW114561   2.494   3.291   6.007
 4739SOL    HW214562   2.408   3.428   6.033
 4740SOL     OW14563   2.117   3.210   5.876
 4740SOL    HW114564   2.021   3.211   5.849
 4740SOL    HW214565   2.129   3.263   5.960
 4741SOL     OW14566   1.937   2.207   5.619
 4741SOL    HW114567   1.845   2.179   5.590
 4741SOL    HW214568   1.968   2.284   5.563
 4742SOL     OW14569   1.934   2.028   5.904
 4742SOL    HW114570   1.917   2.111   5.850
 4742SOL    HW214571   2.024   1.991   5.882
 4743SOL     OW14572   3.045   3.197   5.705
 4743SOL    HW114573   2.946   3.186   5.707
 4743SOL    HW214574   3.079   3.212   5.798
 4744SOL     OW14575   3.355   3.629   6.545
 4744SOL    HW114576   3.388   3.693   6.476
 4744SOL    HW214577   3.421   3.623   6.620
 4745SOL     OW14578   3.087   2.187   6.035
 4745SOL    HW114579   3.152   2.113   6.024
 4745SOL    HW214580   3.107   2.237   6.119
 4746SOL     OW14581   2.456   2.607   6.238
 4746SOL    HW114582   2.506   2.692   6.219
 4746SOL    HW214583   2.368   2.609   6.190
 4747SOL     OW14584   2.721   3.236   5.602
 4747SOL    HW114585   2.675   3.251   5.690
 4747SOL    HW214586   2.765   3.321   5.572
 4748SOL     OW14587   2.523   3.652   6.539
 4748SOL    HW114588   2.477   3.740   6.526
 4748SOL    HW214589   2.622   3.664   6.532
 4749SOL     OW14590   2.721   2.818   6.447
 4749SOL    HW114591   2.775   2.749   6.495
 4749SOL    HW214592   2.689   2.887   6.513
 4750SOL     OW14593   2.945   2.846   5.673
 4750SOL    HW114594   2.922   2.899   5.591
 4750SOL    HW214595   3.026   2.790   5.654
 4751SOL     OW14596   1.941   3.102   6.239
 4751SOL    HW114597   1.940   3.055   6.327
 4751SOL    HW214598   2.023   3.074   6.188
 4752SOL     OW14599   3.686   2.054   6.813
 4752SOL    HW114600   3.682   1.964   6.857
 4752SOL    HW214601   3.689   2.043   6.714
 4753SOL     OW14602   2.290   2.286   6.106
 4753SOL    HW114603   2.320   2.214   6.044
 4753SOL    HW214604   2.251   2.246   6.189
 4754SOL     OW14605   2.179   2.409   6.866
 4754SOL    HW114606   2.217   2.350   6.938
 4754SOL    HW214607   2.219   2.383   6.778
 4755SOL     OW14608   2.674   3.448   6.273
 4755SOL    HW114609   2.706   3.458   6.179
 4755SOL    HW214610   2.595   3.386   6.275
 4756SOL     OW14611   2.632   3.192   5.887
 4756SOL    HW114612   2.586   3.105   5.904
 4756SOL    HW214613   2.723   3.189   5.928
 4757SOL     OW14614   3.214   1.914   5.754
 4757SOL    HW114615   3.249   1.873   5.670
 4757SOL    HW214616   3.124   1.876   5.774
 4758SOL     OW14617   3.162   2.315   6.277
 4758SOL    HW114618   3.103   2.395   6.281
 4758SOL    HW214619   3.177   2.280   6.370
 4759SOL     OW14620   3.455   2.083   6.468
 4759SOL    HW114621   3.371   2.082   6.522
 4759SOL    HW214622   3.457   2.166   6.412
 4760SOL     OW14623   1.901   2.939   5.886
 4760SOL    HW114624   2.000   2.928   5.877
 4760SOL    HW214625   1.861   2.853   5.918
 4761SOL     OW14626   2.737   3.508   5.923
 4761SOL    HW114627   2.660   3.473   5.869
 4761SOL    HW214628   2.705   3.579   5.985
 4762SOL     OW14629   2.092   4.352   0.113
 4762SOL    HW114630   1.999   4.350   0.150
 4762SOL    HW214631   2.093   4.313   0.021
 4763SOL     OW14632   2.087   3.999   0.996
 4763SOL    HW114633   2.122   3.982   1.088
 4763SOL    HW214634   1.999   3.954   0.984
 4764SOL     OW14635   1.881   4.092   0.647
 4764SOL    HW114636   1.799   4.135   0.686
 4764SOL    HW214637   1.853   4.019   0.584
 4765SOL     OW14638   2.431   4.999   1.165
 4765SOL    HW114639   2.338   4.992   1.128
 4765SOL    HW214640   2.442   5.088   1.209
 4766SOL     OW14641   3.417   5.235   0.703
 4766SOL    HW114642   3.360   5.219   0.784
 4766SOL    HW214643   3.358   5.245   0.623
 4767SOL     OW14644   2.997   4.427   0.717
 4767SOL    HW114645   3.054   4.505   0.692
 4767SOL    HW214646   2.937   4.453   0.793
 4768SOL     OW14647   3.617   4.331   0.231
 4768SOL    HW114648   3.605   4.318   0.132
 4768SOL    HW214649   3.587   4.250   0.280
 4769SOL     OW14650   2.630   4.868   1.023
 4769SOL    HW114651   2.552   4.885   1.083
 4769SOL    HW214652   2.664   4.955   0.987
 4770SOL     OW14653   2.712   4.522   1.823
 4770SOL    HW114654   2.708   4.598   1.888
 4770SOL    HW214655   2.734   4.558   1.732
 4771SOL     OW14656   2.547   4.736   0.665
 4771SOL    HW114657   2.616   4.720   0.735
 4771SOL    HW214658   2.474   4.793   0.703
 4772SOL     OW14659   2.548   4.885   1.803
 4772SOL    HW114660   2.608   4.964   1.817
 4772SOL    HW214661   2.462   4.916   1.762
 4773SOL     OW14662   2.197   5.159   1.061
 4773SOL    HW114663   2.119   5.128   1.008
 4773SOL    HW214664   2.255   5.217   1.004
 4774SOL     OW14665   3.322   5.229   1.339
 4774SOL    HW114666   3.346   5.323   1.365
 4774SOL    HW214667   3.306   5.175   1.421
 4775SOL     OW14668   2.300   4.116   1.499
 4775SOL    HW114669   2.382   4.060   1.508
 4775SOL    HW214670   2.219   4.058   1.503
 4776SOL     OW14671   3.465   4.171   0.737
 4776SOL    HW114672   3.391   4.217   0.687
 4776SOL    HW214673   3.516   4.239   0.790
 4777SOL     OW14674   2.093   5.437   0.483
 4777SOL    HW114675   2.127   5.514   0.537
 4777SOL    HW214676   2.137   5.437   0.393
 4778SOL     OW14677   2.989   5.065   1.690
 4778SOL    HW114678   3.036   5.065   1.778
 4778SOL    HW214679   2.941   4.978   1.679
 4779SOL     OW14680   2.092   5.158   0.538
 4779SOL    HW114681   2.066   5.254   0.538
 4779SOL    HW214682   2.021   5.104   0.583
 4780SOL     OW14683   2.102   4.815   0.886
 4780SOL    HW114684   2.116   4.731   0.938
 4780SOL    HW214685   2.047   4.879   0.941
 4781SOL     OW14686   2.482   5.510   1.439
 4781SOL    HW114687   2.390   5.493   1.474
 4781SOL    HW214688   2.510   5.602   1.465
 4782SOL     OW14689   2.468   4.688   0.123
 4782SOL    HW114690   2.475   4.772   0.069
 4782SOL    HW214691   2.514   4.701   0.211
 4783SOL     OW14692   3.456   3.838   1.480
 4783SOL    HW114693   3.438   3.905   1.408
 4783SOL    HW214694   3.453   3.884   1.569
 4784SOL     OW14695   1.984   4.367   0.563
 4784SOL    HW114696   1.939   4.279   0.580
 4784SOL    HW214697   1.983   4.421   0.647
 4785SOL     OW14698   3.704   5.491   0.359
 4785SOL    HW114699   3.758   5.462   0.439
 4785SOL    HW214700   3.734   5.581   0.330
 4786SOL     OW14701   1.889   5.320   0.117
 4786SOL    HW114702   1.870   5.224   0.138
 4786SOL    HW214703   1.856   5.378   0.192
 4787SOL     OW14704   3.551   4.646   0.612
 4787SOL    HW114705   3.646   4.617   0.620
 4787SOL    HW214706   3.543   4.711   0.537
 4788SOL     OW14707   3.503   4.832   0.432
 4788SOL    HW114708   3.589   4.834   0.380
 4788SOL    HW214709   3.517   4.879   0.520
 4789SOL     OW14710   1.975   4.461   1.597
 4789SOL    HW114711   2.063   4.448   1.642
 4789SOL    HW214712   1.962   4.558   1.575
 4790SOL     OW14713   2.475   5.089   0.726
 4790SOL    HW114714   2.426   5.002   0.735
 4790SOL    HW214715   2.452   5.132   0.639
 4791SOL     OW14716   3.155   4.952   1.423
 4791SOL    HW114717   3.192   4.879   1.365
 4791SOL    HW214718   3.207   4.957   1.508
 4792SOL     OW14719   2.671   3.728   0.502
 4792SOL    HW114720   2.711   3.819   0.493
 4792SOL    HW214721   2.571   3.736   0.508
 4793SOL     OW14722   2.059   4.700   1.264
 4793SOL    HW114723   2.148   4.655   1.250
 4793SOL    HW214724   1.986   4.635   1.245
 4794SOL     OW14725   3.387   4.723   0.190
 4794SOL    HW114726   3.324   4.647   0.203
 4794SOL    HW214727   3.435   4.741   0.276
 4795SOL     OW14728   3.049   5.516   1.616
 4795SOL    HW114729   3.073   5.576   1.540
 4795SOL    HW214730   3.056   5.421   1.586
 4796SOL     OW14731   2.179   3.975   1.801
 4796SOL    HW114732   2.250   4.046   1.807
 4796SOL    HW214733   2.091   4.014   1.829
 4797SOL     OW14734   3.328   5.141   0.953
 4797SOL    HW114735   3.269   5.147   1.033
 4797SOL    HW214736   3.313   5.053   0.907
 4798SOL     OW14737   3.529   5.438   0.572
 4798SOL    HW114738   3.488   5.415   0.484
 4798SOL    HW214739   3.511   5.364   0.637
 4799SOL     OW14740   2.460   4.453   0.270
 4799SOL    HW114741   2.484   4.522   0.202
 4799SOL    HW214742   2.382   4.486   0.324
 4800SOL     OW14743   3.143   4.069   0.944
 4800SOL    HW114744   3.057   4.019   0.931
 4800SOL    HW214745   3.205   4.015   1.000
 4801SOL     OW14746   3.438   5.386   0.307
 4801SOL    HW114747   3.527   5.432   0.310
 4801SOL    HW214748   3.417   5.362   0.212
 4802SOL     OW14749   2.669   4.329   1.465
 4802SOL    HW114750   2.622   4.326   1.554
 4802SOL    HW214751   2.618   4.274   1.399
 4803SOL     OW14752   3.256   4.193   1.674
 4803SOL    HW114753   3.236   4.236   1.762
 4803SOL    HW214754   3.334   4.131   1.683
 4804SOL     OW14755   2.835   4.614   1.572
 4804SOL    HW114756   2.881   4.530   1.543
 4804SOL    HW214757   2.779   4.648   1.497
 4805SOL     OW14758   2.853   4.134   1.242
 4805SOL    HW114759   2.776   4.168   1.296
 4805SOL    HW214760   2.819   4.083   1.163
 4806SOL     OW14761   2.903   4.425   0.429
 4806SOL    HW114762   2.929   4.421   0.525
 4806SOL    HW214763   2.818   4.374   0.415
 4807SOL     OW14764   1.938   4.535   0.789
 4807SOL    HW114765   2.037   4.523   0.798
 4807SOL    HW214766   1.914   4.630   0.810
 4808SOL     OW14767   1.992   5.545   1.571
 4808SOL    HW114768   1.982   5.530   1.670
 4808SOL    HW214769   1.906   5.581   1.535
 4809SOL     OW14770   2.727   4.072   0.195
 4809SOL    HW114771   2.786   4.135   0.146
 4809SOL    HW214772   2.746   3.978   0.166
 4810SOL     OW14773   3.581   4.309   1.831
 4810SOL    HW114774   3.555   4.398   1.795
 4810SOL    HW214775   3.579   4.241   1.758
 4811SOL     OW14776   3.224   4.868   0.545
 4811SOL    HW114777   3.307   4.839   0.497
 4811SOL    HW214778   3.175   4.935   0.489
 4812SOL     OW14779   2.412   3.920   0.885
 4812SOL    HW114780   2.407   3.915   0.985
 4812SOL    HW214781   2.414   4.016   0.856
 4813SOL     OW14782   2.870   5.180   0.477
 4813SOL    HW114783   2.824   5.252   0.425
 4813SOL    HW214784   2.866   5.200   0.575
 4814SOL     OW14785   2.213   5.525   0.853
 4814SOL    HW114786   2.263   5.439   0.859
 4814SOL    HW214787   2.278   5.602   0.850
 4815SOL     OW14788   3.657   4.790   0.873
 4815SOL    HW114789   3.595   4.775   0.797
 4815SOL    HW214790   3.605   4.801   0.958
 4816SOL     OW14791   3.089   5.274   1.506
 4816SOL    HW114792   3.095   5.197   1.570
 4816SOL    HW214793   3.037   5.248   1.426
 4817SOL     OW14794   2.183   4.667   0.242
 4817SOL    HW114795   2.265   4.706   0.200
 4817SOL    HW214796   2.156   4.585   0.193
 4818SOL     OW14797   3.320   4.459   0.728
 4818SOL    HW114798   3.315   4.394   0.803
 4818SOL    HW214799   3.400   4.518   0.741
 4819SOL     OW14800   2.323   4.990   1.727
 4819SOL    HW114801   2.273   4.991   1.641
 4819SOL    HW214802   2.260   4.972   1.803
 4820SOL     OW14803   2.973   5.500   0.237
 4820SOL    HW114804   2.913   5.438   0.287
 4820SOL    HW214805   3.004   5.456   0.152
 4821SOL     OW14806   2.064   4.009   1.498
 4821SOL    HW114807   1.984   4.069   1.485
 4821SOL    HW214808   2.054   3.960   1.584
 4822SOL     OW14809   3.494   5.101   0.081
 4822SOL    HW114810   3.462   5.195   0.071
 4822SOL    HW214811   3.418   5.038   0.069
 4823SOL     OW14812   2.326   5.467   0.323
 4823SOL    HW114813   2.359   5.506   0.409
 4823SOL    HW214814   2.402   5.460   0.258
 4824SOL     OW14815   2.111   5.509   1.241
 4824SOL    HW114816   2.168   5.444   1.291
 4824SOL    HW214817   2.095   5.476   1.148
 4825SOL     OW14818   2.802   5.422   0.904
 4825SOL    HW114819   2.882   5.365   0.925
 4825SOL    HW214820   2.753   5.382   0.827
 4826SOL     OW14821   2.244   4.424   0.480
 4826SOL    HW114822   2.289   4.334   0.477
 4826SOL    HW214823   2.150   4.413   0.513
 4827SOL     OW14824   3.409   3.946   1.729
 4827SOL    HW114825   3.404   3.983   1.821
 4827SOL    HW214826   3.337   3.877   1.717
 4828SOL     OW14827   2.476   3.846   0.117
 4828SOL    HW114828   2.574   3.824   0.124
 4828SOL    HW214829   2.445   3.829   0.024
 4829SOL     OW14830   2.643   3.988   1.749
 4829SOL    HW114831   2.710   3.927   1.792
 4829SOL    HW214832   2.570   4.007   1.814
 4830SOL     OW14833   2.750   5.238   1.195
 4830SOL    HW114834   2.727   5.213   1.101
 4830SOL    HW214835   2.811   5.169   1.234
 4831SOL     OW14836   3.213   4.314   1.433
 4831SOL    HW114837   3.241   4.271   1.518
 4831SOL    HW214838   3.238   4.410   1.434
 4832SOL     OW14839   2.665   5.126   0.924
 4832SOL    HW114840   2.755   5.140   0.882
 4832SOL    HW214841   2.594   5.128   0.853
 4833SOL     OW14842   2.784   4.227   0.899
 4833SOL    HW114843   2.759   4.218   0.803
 4833SOL    HW214844   2.832   4.145   0.930
 4834SOL     OW14845   2.401   3.788   0.512
 4834SOL    HW114846   2.320   3.789   0.570
 4834SOL    HW214847   2.404   3.871   0.457
 4835SOL     OW14848   3.296   4.912   0.041
 4835SOL    HW114849   3.328   4.836   0.098
 4835SOL    HW214850   3.204   4.939   0.071
 4836SOL     OW14851   2.159   3.759   0.171
 4836SOL    HW114852   2.208   3.843   0.150
 4836SOL    HW214853   2.221   3.694   0.216
 4837SOL     OW14854   2.797   3.960   0.480
 4837SOL    HW114855   2.749   4.001   0.402
 4837SOL    HW214856   2.896   3.958   0.461
 4838SOL     OW14857   2.938   4.407   1.464
 4838SOL    HW114858   2.858   4.346   1.467
 4838SOL    HW214859   3.019   4.354   1.440
 4839SOL     OW14860   3.089   5.294   0.793
 4839SOL    HW114861   3.110   5.368   0.728
 4839SOL    HW214862   3.157   5.294   0.866
 4840SOL     OW14863   2.321   4.876   0.741
 4840SOL    HW114864   2.250   4.849   0.806
 4840SOL    HW214865   2.295   4.848   0.648
 4841SOL     OW14866   3.133   5.521   0.591
 4841SOL    HW114867   3.177   5.585   0.527
 4841SOL    HW214868   3.083   5.573   0.661
 4842SOL     OW14869   2.894   4.273   0.016
 4842SOL    HW114870   2.853   4.355  -0.023
 4842SOL    HW214871   2.958   4.299   0.089
 4843SOL     OW14872   1.940   4.280   1.386
 4843SOL    HW114873   2.032   4.279   1.345
 4843SOL    HW214874   1.934   4.354   1.453
 4844SOL     OW14875   2.423   3.946   1.147
 4844SOL    HW114876   2.461   3.862   1.184
 4844SOL    HW214877   2.335   3.965   1.191
 4845SOL     OW14878   2.728   4.178   0.642
 4845SOL    HW114879   2.696   4.250   0.580
 4845SOL    HW214880   2.752   4.097   0.589
 4846SOL     OW14881   2.879   3.763   0.753
 4846SOL    HW114882   2.807   3.768   0.684
 4846SOL    HW214883   2.855   3.694   0.822
 4847SOL     OW14884   3.291   4.897   0.867
 4847SOL    HW114885   3.236   4.813   0.860
 4847SOL    HW214886   3.317   4.926   0.775
 4848SOL     OW14887   3.328   4.314   0.992
 4848SOL    HW114888   3.298   4.219   0.999
 4848SOL    HW214889   3.401   4.330   1.058
 4849SOL     OW14890   3.719   4.557   0.377
 4849SOL    HW114891   3.761   4.493   0.441
 4849SOL    HW214892   3.681   4.506   0.299
 4850SOL     OW14893   2.350   5.109   0.174
 4850SOL    HW114894   2.263   5.094   0.221
 4850SOL    HW214895   2.333   5.135   0.079
 4851SOL     OW14896   3.526   5.004   0.657
 4851SOL    HW114897   3.625   5.012   0.671
 4851SOL    HW214898   3.481   5.088   0.688
 4852SOL     OW14899   3.252   4.299   0.078
 4852SOL    HW114900   3.198   4.278   0.159
 4852SOL    HW214901   3.343   4.258   0.087
 4853SOL     OW14902   2.389   3.980   0.328
 4853SOL    HW114903   2.416   3.921   0.253
 4853SOL    HW214904   2.389   4.075   0.297
 4854SOL     OW14905   3.616   4.947   1.588
 4854SOL    HW114906   3.707   4.908   1.575
 4854SOL    HW214907   3.624   5.043   1.612
 4855SOL     OW14908   2.926   5.071   1.340
 4855SOL    HW114909   2.846   5.048   1.395
 4855SOL    HW214910   3.009   5.045   1.389
 4856SOL     OW14911   3.454   5.353   1.625
 4856SOL    HW114912   3.481   5.387   1.535
 4856SOL    HW214913   3.533   5.315   1.671
 4857SOL     OW14914   2.973   4.919   1.100
 4857SOL    HW114915   2.933   4.963   1.181
 4857SOL    HW214916   2.932   4.956   1.017
 4858SOL     OW14917   3.500   4.823   1.079
 4858SOL    HW114918   3.505   4.904   1.138
 4858SOL    HW214919   3.414   4.825   1.028
 4859SOL     OW14920   2.777   3.813   1.402
 4859SOL    HW114921   2.802   3.793   1.307
 4859SOL    HW214922   2.849   3.869   1.444
 4860SOL     OW14923   2.842   4.840   1.719
 4860SOL    HW114924   2.743   4.846   1.729
 4860SOL    HW214925   2.865   4.760   1.663
 4861SOL     OW14926   2.567   4.774   0.368
 4861SOL    HW114927   2.553   4.781   0.467
 4861SOL    HW214928   2.651   4.723   0.350
 4862SOL     OW14929   2.272   4.537   1.251
 4862SOL    HW114930   2.358   4.549   1.301
 4862SOL    HW214931   2.230   4.450   1.278
 4863SOL     OW14932   3.136   4.110   1.262
 4863SOL    HW114933   3.157   4.184   1.326
 4863SOL    HW214934   3.047   4.127   1.219
 4864SOL     OW14935   1.926   5.288   1.331
 4864SOL    HW114936   1.880   5.370   1.297
 4864SOL    HW214937   2.024   5.307   1.340
 4865SOL     OW14938   2.229   4.824   0.501
 4865SOL    HW114939   2.222   4.907   0.445
 4865SOL    HW214940   2.233   4.744   0.441
 4866SOL     OW14941   2.428   4.261   0.865
 4866SOL    HW114942   2.440   4.327   0.791
 4866SOL    HW214943   2.474   4.295   0.948
 4867SOL     OW14944   3.114   5.072   0.388
 4867SOL    HW114945   3.164   5.149   0.428
 4867SOL    HW214946   3.019   5.074   0.420
 4868SOL     OW14947   3.134   5.169   1.142
 4868SOL    HW114948   3.181   5.182   1.229
 4868SOL    HW214949   3.068   5.095   1.151
 4869SOL     OW14950   3.444   4.363   0.472
 4869SOL    HW114951   3.413   4.424   0.545
 4869SOL    HW214952   3.494   4.415   0.403
 4870SOL     OW14953   2.216   5.234   1.329
 4870SOL    HW114954   2.195   5.190   1.242
 4870SOL    HW214955   2.313   5.260   1.332
 4871SOL     OW14956   2.264   4.475   1.598
 4871SOL    HW114957   2.332   4.530   1.551
 4871SOL    HW214958   2.304   4.387   1.625
 4872SOL     OW14959   3.449   4.503   1.670
 4872SOL    HW114960   3.357   4.541   1.665
 4872SOL    HW214961   3.509   4.550   1.605
 4873SOL     OW14962   2.875   3.829   1.770
 4873SOL    HW114963   2.881   3.914   1.718
 4873SOL    HW214964   2.907   3.753   1.713
 4874SOL     OW14965   2.366   3.774   1.740
 4874SOL    HW114966   2.324   3.717   1.670
 4874SOL    HW214967   2.300   3.843   1.772
 4875SOL     OW14968   2.435   4.594   1.029
 4875SOL    HW114969   2.479   4.683   1.020
 4875SOL    HW214970   2.372   4.594   1.106
 4876SOL     OW14971   3.222   4.586   1.045
 4876SOL    HW114972   3.147   4.586   0.979
 4876SOL    HW214973   3.259   4.494   1.054
 4877SOL     OW14974   3.071   4.249   0.275
 4877SOL    HW114975   3.084   4.165   0.329
 4877SOL    HW214976   3.042   4.323   0.335
 4878SOL     OW14977   2.169   3.937   1.231
 4878SOL    HW114978   2.146   3.974   1.321
 4878SOL    HW214979   2.139   3.842   1.225
 4879SOL     OW14980   1.899   5.034   1.282
 4879SOL    HW114981   1.952   4.985   1.350
 4879SOL    HW214982   1.921   5.132   1.287
 4880SOL     OW14983   2.594   4.358   1.064
 4880SOL    HW114984   2.653   4.332   0.988
 4880SOL    HW214985   2.566   4.454   1.053
 4881SOL     OW14986   3.590   4.659   1.854
 4881SOL    HW114987   3.544   4.652   1.765
 4881SOL    HW214988   3.528   4.703   1.920
 4882SOL     OW14989   2.169   3.787   0.618
 4882SOL    HW114990   2.158   3.881   0.651
 4882SOL    HW214991   2.164   3.724   0.695
 4883SOL     OW14992   3.484   4.091   0.374
 4883SOL    HW114993   3.486   4.015   0.438
 4883SOL    HW214994   3.436   4.168   0.414
 4884SOL     OW14995   2.885   4.490   0.966
 4884SOL    HW114996   2.900   4.511   1.062
 4884SOL    HW214997   2.855   4.395   0.957
 4885SOL     OW14998   2.842   5.297   1.700
 4885SOL    HW114999   2.822   5.341   1.612
 4885SOL    HW215000   2.881   5.206   1.684
 4886SOL     OW15001   3.721   5.242   1.605
 4886SOL    HW115002   3.735   5.269   1.510
 4886SOL    HW215003   3.804   5.264   1.658
 4887SOL     OW15004   2.212   4.622   1.804
 4887SOL    HW115005   2.288   4.666   1.852
 4887SOL    HW215006   2.247   4.575   1.722
 4888SOL     OW15007   3.165   4.562   0.042
 4888SOL    HW115008   3.199   4.469   0.057
 4888SOL    HW215009   3.183   4.589  -0.053
 4889SOL     OW15010   2.930   5.057   0.849
 4889SOL    HW115011   2.937   4.973   0.794
 4889SOL    HW215012   2.992   5.126   0.813
 4890SOL     OW15013   2.181   4.534   0.949
 4890SOL    HW115014   2.274   4.570   0.954
 4890SOL    HW215015   2.175   4.449   1.001
 4891SOL     OW15016   2.201   4.233   1.006
 4891SOL    HW115017   2.149   4.150   0.989
 4891SOL    HW215018   2.278   4.238   0.942
 4892SOL     OW15019   3.000   4.104   1.678
 4892SOL    HW115020   2.955   4.167   1.742
 4892SOL    HW215021   3.093   4.135   1.661
 4893SOL     OW15022   3.022   3.931   1.477
 4893SOL    HW115023   3.022   3.995   1.554
 4893SOL    HW215024   3.050   3.979   1.394
 4894SOL     OW15025   1.870   5.050   0.200
 4894SOL    HW115026   1.777   5.071   0.169
 4894SOL    HW215027   1.880   4.951   0.213
 4895SOL     OW15028   1.950   5.525   0.927
 4895SOL    HW115029   1.908   5.439   0.900
 4895SOL    HW215030   2.044   5.528   0.893
 4896SOL     OW15031   2.366   5.292   0.910
 4896SOL    HW115032   2.432   5.366   0.919
 4896SOL    HW215033   2.410   5.213   0.868
 4897SOL     OW15034   2.864   4.520   1.238
 4897SOL    HW115035   2.905   4.488   1.324
 4897SOL    HW215036   2.768   4.493   1.235
 4898SOL     OW15037   1.902   4.268   1.114
 4898SOL    HW115038   1.987   4.235   1.073
 4898SOL    HW215039   1.915   4.283   1.212
 4899SOL     OW15040   2.051   4.244   1.722
 4899SOL    HW115041   2.110   4.204   1.652
 4899SOL    HW215042   1.993   4.315   1.681
 4900SOL     OW15043   3.231   4.674   1.660
 4900SOL    HW115044   3.270   4.763   1.680
 4900SOL    HW215045   3.241   4.654   1.563
 4901SOL     OW15046   2.677   4.296   0.325
 4901SOL    HW115047   2.684   4.207   0.279
 4901SOL    HW215048   2.583   4.330   0.317
 4902SOL     OW15049   3.519   4.328   1.206
 4902SOL    HW115050   3.481   4.259   1.268
 4902SOL    HW215051   3.601   4.292   1.162
 4903SOL     OW15052   2.114   5.288   1.744
 4903SOL    HW115053   2.084   5.345   1.820
 4903SOL    HW215054   2.107   5.191   1.770
 4904SOL     OW15055   2.533   4.188   1.269
 4904SOL    HW115056   2.499   4.099   1.239
 4904SOL    HW215057   2.559   4.242   1.189
 4905SOL     OW15058   2.792   5.402   1.465
 4905SOL    HW115059   2.768   5.384   1.370
 4905SOL    HW215060   2.822   5.496   1.475
 4906SOL     OW15061   2.335   4.224   0.191
 4906SOL    HW115062   2.396   4.304   0.195
 4906SOL    HW215063   2.240   4.255   0.198
 4907SOL     OW15064   2.021   4.861   1.466
 4907SOL    HW115065   2.043   4.800   1.542
 4907SOL    HW215066   2.031   4.812   1.380
 4908SOL     OW15067   3.209   4.783   1.234
 4908SOL    HW115068   3.233   4.720   1.160
 4908SOL    HW215069   3.119   4.823   1.216
 4909SOL     OW15070   3.164   4.579   0.309
 4909SOL    HW115071   3.078   4.548   0.351
 4909SOL    HW215072   3.160   4.565   0.210
 4910SOL     OW15073   3.621   5.471   1.154
 4910SOL    HW115074   3.682   5.501   1.081
 4910SOL    HW215075   3.583   5.382   1.132
 4911SOL     OW15076   3.114   5.455   1.128
 4911SOL    HW115077   3.198   5.460   1.074
 4911SOL    HW215078   3.091   5.359   1.146
 4912SOL     OW15079   1.945   4.982   1.022
 4912SOL    HW115080   1.940   4.981   1.122
 4912SOL    HW215081   1.862   4.941   0.984
 4913SOL     OW15082   2.550   5.386   1.716
 4913SOL    HW115083   2.494   5.467   1.725
 4913SOL    HW215084   2.602   5.390   1.630
 4914SOL     OW15085   3.588   3.859   0.523
 4914SOL    HW115086   3.661   3.842   0.456
 4914SOL    HW215087   3.557   3.772   0.561
 4915SOL     OW15088   3.250   5.297   0.477
 4915SOL    HW115089   3.317   5.309   0.403
 4915SOL    HW215090   3.210   5.386   0.500
 4916SOL     OW15091   1.992   5.518   1.851
 4916SOL    HW115092   1.951   5.444   1.904
 4916SOL    HW215093   2.056   5.569   1.909
 4917SOL     OW15094   3.142   4.651   0.672
 4917SOL    HW115095   3.202   4.570   0.674
 4917SOL    HW215096   3.182   4.720   0.612
 4918SOL     OW15097   2.692   4.997   1.422
 4918SOL    HW115098   2.687   5.030   1.517
 4918SOL    HW215099   2.606   5.016   1.376
 4919SOL     OW15100   2.534   5.340   0.154
 4919SOL    HW115101   2.543   5.350   0.055
 4919SOL    HW215102   2.494   5.251   0.175
 4920SOL     OW15103   3.512   5.444   1.394
 4920SOL    HW115104   3.565   5.454   1.310
 4920SOL    HW215105   3.485   5.534   1.428
 4921SOL     OW15106   3.703   3.899   0.963
 4921SOL    HW115107   3.742   3.814   0.927
 4921SOL    HW215108   3.605   3.901   0.944
 4922SOL     OW15109   2.125   4.050   0.720
 4922SOL    HW115110   2.046   4.101   0.686
 4922SOL    HW215111   2.116   4.035   0.818
 4923SOL     OW15112   3.056   5.336   0.031
 4923SOL    HW115113   3.062   5.243   0.068
 4923SOL    HW215114   2.997   5.336  -0.049
 4924SOL     OW15115   2.684   4.726   1.372
 4924SOL    HW115116   2.724   4.725   1.280
 4924SOL    HW215117   2.694   4.818   1.412
 4925SOL     OW15118   2.778   4.634   0.291
 4925SOL    HW115119   2.841   4.672   0.223
 4925SOL    HW215120   2.818   4.551   0.330
 4926SOL     OW15121   3.366   5.331   0.044
 4926SOL    HW115122   3.274   5.368   0.051
 4926SOL    HW215123   3.404   5.351  -0.046
 4927SOL     OW15124   2.234   5.012   1.490
 4927SOL    HW115125   2.221   5.105   1.456
 4927SOL    HW215126   2.150   4.960   1.477
 4928SOL     OW15127   3.476   5.016   1.289
 4928SOL    HW115128   3.536   5.019   1.369
 4928SOL    HW215129   3.401   5.080   1.302
 4929SOL     OW15130   2.901   4.822   0.696
 4929SOL    HW115131   2.831   4.775   0.750
 4929SOL    HW215132   2.960   4.754   0.653
 4930SOL     OW15133   2.876   3.960   0.971
 4930SOL    HW115134   2.868   3.924   0.878
 4930SOL    HW215135   2.874   3.884   1.036
 4931SOL     OW15136   2.452   5.211   0.491
 4931SOL    HW115137   2.494   5.153   0.421
 4931SOL    HW215138   2.408   5.290   0.447
 4932SOL     OW15139   3.571   4.109   1.381
 4932SOL    HW115140   3.644   4.178   1.385
 4932SOL    HW215141   3.599   4.034   1.322
 4933SOL     OW15142   2.117   5.072   0.290
 4933SOL    HW115143   2.021   5.073   0.263
 4933SOL    HW215144   2.129   5.125   0.374
 4934SOL     OW15145   1.967   4.737   1.726
 4934SOL    HW115146   1.890   4.704   1.780
 4934SOL    HW215147   2.052   4.707   1.768
 4935SOL     OW15148   2.534   3.927   1.489
 4935SOL    HW115149   2.624   3.911   1.449
 4935SOL    HW215150   2.542   3.932   1.588
 4936SOL     OW15151   1.937   4.069   0.033
 4936SOL    HW115152   1.845   4.041   0.004
 4936SOL    HW215153   1.968   4.146  -0.023
 4937SOL     OW15154   3.302   4.580   1.398
 4937SOL    HW115155   3.245   4.632   1.335
 4937SOL    HW215156   3.398   4.592   1.374
 4938SOL     OW15157   1.934   3.890   0.318
 4938SOL    HW115158   1.917   3.973   0.264
 4938SOL    HW215159   2.024   3.853   0.296
 4939SOL     OW15160   3.045   5.059   0.119
 4939SOL    HW115161   2.946   5.048   0.121
 4939SOL    HW215162   3.079   5.074   0.212
 4940SOL     OW15163   2.475   4.566   1.431
 4940SOL    HW115164   2.531   4.647   1.414
 4940SOL    HW215165   2.534   4.486   1.434
 4941SOL     OW15166   3.355   5.491   0.959
 4941SOL    HW115167   3.388   5.555   0.890
 4941SOL    HW215168   3.421   5.485   1.034
 4942SOL     OW15169   2.578   4.289   1.708
 4942SOL    HW115170   2.597   4.354   1.782
 4942SOL    HW215171   2.638   4.209   1.717
 4943SOL     OW15172   3.312   4.944   1.633
 4943SOL    HW115173   3.303   4.934   1.732
 4943SOL    HW215174   3.408   4.937   1.607
 4944SOL     OW15175   2.252   5.465   1.560
 4944SOL    HW115176   2.161   5.506   1.558
 4944SOL    HW215177   2.245   5.371   1.592
 4945SOL     OW15178   3.536   4.607   1.254
 4945SOL    HW115179   3.509   4.518   1.217
 4945SOL    HW215180   3.537   4.675   1.181
 4946SOL     OW15181   3.087   4.049   0.449
 4946SOL    HW115182   3.152   3.975   0.438
 4946SOL    HW215183   3.107   4.099   0.533
 4947SOL     OW15184   2.456   4.469   0.652
 4947SOL    HW115185   2.506   4.554   0.633
 4947SOL    HW215186   2.368   4.471   0.604
 4948SOL     OW15187   3.639   4.066   1.642
 4948SOL    HW115188   3.622   4.097   1.548
 4948SOL    HW215189   3.555   4.029   1.680
 4949SOL     OW15190   3.592   4.658   1.517
 4949SOL    HW115191   3.630   4.749   1.532
 4949SOL    HW215192   3.584   4.641   1.418
 4950SOL     OW15193   2.721   5.098   0.016
 4950SOL    HW115194   2.675   5.113   0.104
 4950SOL    HW215195   2.765   5.183  -0.014
 4951SOL     OW15196   2.523   5.514   0.953
 4951SOL    HW115197   2.477   5.602   0.940
 4951SOL    HW215198   2.622   5.526   0.946
 4952SOL     OW15199   2.721   4.680   0.861
 4952SOL    HW115200   2.775   4.611   0.909
 4952SOL    HW215201   2.689   4.749   0.927
 4953SOL     OW15202   2.945   4.708   0.087
 4953SOL    HW115203   2.922   4.761   0.005
 4953SOL    HW215204   3.026   4.652   0.068
 4954SOL     OW15205   3.723   5.293   0.851
 4954SOL    HW115206   3.652   5.281   0.781
 4954SOL    HW215207   3.724   5.214   0.911
 4955SOL     OW15208   2.083   5.038   1.844
 4955SOL    HW115209   2.018   4.965   1.823
 4955SOL    HW215210   2.087   5.052   1.942
 4956SOL     OW15211   1.941   4.964   0.653
 4956SOL    HW115212   1.940   4.917   0.741
 4956SOL    HW215213   2.023   4.936   0.602
 4957SOL     OW15214   2.534   5.115   1.624
 4957SOL    HW115215   2.456   5.065   1.662
 4957SOL    HW215216   2.531   5.210   1.655
 4958SOL     OW15217   3.686   3.916   1.227
 4958SOL    HW115218   3.682   3.826   1.271
 4958SOL    HW215219   3.689   3.905   1.128
 4959SOL     OW15220   2.290   4.148   0.520
 4959SOL    HW115221   2.320   4.076   0.458
 4959SOL    HW215222   2.251   4.108   0.603
 4960SOL     OW15223   3.567   5.211   1.104
 4960SOL    HW115224   3.474   5.186   1.077
 4960SOL    HW215225   3.593   5.161   1.186
 4961SOL     OW15226   2.179   4.271   1.280
 4961SOL    HW115227   2.217   4.212   1.352
 4961SOL    HW215228   2.219   4.245   1.192
 4962SOL     OW15229   2.674   5.310   0.687
 4962SOL    HW115230   2.706   5.320   0.593
 4962SOL    HW215231   2.595   5.248   0.689
 4963SOL     OW15232   3.286   3.938   1.112
 4963SOL    HW115233   3.338   3.873   1.167
 4963SOL    HW215234   3.237   4.001   1.173
 4964SOL     OW15235   2.863   3.758   1.154
 4964SOL    HW115236   2.800   3.686   1.123
 4964SOL    HW215237   2.956   3.722   1.154
 4965SOL     OW15238   2.632   5.054   0.301
 4965SOL    HW115239   2.586   4.967   0.318
 4965SOL    HW215240   2.723   5.051   0.342
 4966SOL     OW15241   2.480   5.291   1.284
 4966SOL    HW115242   2.475   5.373   1.341
 4966SOL    HW215243   2.569   5.288   1.239
 4967SOL     OW15244   3.162   4.177   0.691
 4967SOL    HW115245   3.103   4.257   0.695
 4967SOL    HW215246   3.177   4.142   0.784
 4968SOL     OW15247   3.455   3.945   0.882
 4968SOL    HW115248   3.371   3.944   0.936
 4968SOL    HW215249   3.457   4.028   0.826
 4969SOL     OW15250   1.901   4.801   0.300
 4969SOL    HW115251   2.000   4.790   0.291
 4969SOL    HW215252   1.861   4.715   0.332
 4970SOL     OW15253   2.737   5.370   0.337
 4970SOL    HW115254   2.660   5.335   0.283
 4970SOL    HW215255   2.705   5.441   0.399
 4971SOL     OW15256   2.092   4.352   1.975
 4971SOL    HW115257   1.999   4.350   2.012
 4971SOL    HW215258   2.093   4.313   1.883
 4972SOL     OW15259   2.087   3.999   2.858
 4972SOL    HW115260   2.122   3.982   2.950
 4972SOL    HW215261   1.999   3.954   2.846
 4973SOL     OW15262   1.881   4.092   2.509
 4973SOL    HW115263   1.799   4.135   2.548
 4973SOL    HW215264   1.853   4.019   2.446
 4974SOL     OW15265   2.431   4.999   3.027
 4974SOL    HW115266   2.338   4.992   2.990
 4974SOL    HW215267   2.442   5.088   3.071
 4975SOL     OW15268   3.417   5.235   2.565
 4975SOL    HW115269   3.360   5.219   2.646
 4975SOL    HW215270   3.358   5.245   2.485
 4976SOL     OW15271   2.997   4.427   2.579
 4976SOL    HW115272   3.054   4.505   2.554
 4976SOL    HW215273   2.937   4.453   2.655
 4977SOL     OW15274   3.617   4.331   2.093
 4977SOL    HW115275   3.605   4.318   1.994
 4977SOL    HW215276   3.587   4.250   2.142
 4978SOL     OW15277   2.630   4.868   2.885
 4978SOL    HW115278   2.552   4.885   2.945
 4978SOL    HW215279   2.664   4.955   2.849
 4979SOL     OW15280   2.712   4.522   3.685
 4979SOL    HW115281   2.708   4.598   3.750
 4979SOL    HW215282   2.734   4.558   3.594
 4980SOL     OW15283   2.547   4.736   2.527
 4980SOL    HW115284   2.616   4.720   2.597
 4980SOL    HW215285   2.474   4.793   2.565
 4981SOL     OW15286   2.548   4.885   3.665
 4981SOL    HW115287   2.608   4.964   3.679
 4981SOL    HW215288   2.462   4.916   3.624
 4982SOL     OW15289   2.197   5.159   2.923
 4982SOL    HW115290   2.119   5.128   2.870
 4982SOL    HW215291   2.255   5.217   2.866
 4983SOL     OW15292   2.300   4.116   3.361
 4983SOL    HW115293   2.382   4.060   3.370
 4983SOL    HW215294   2.219   4.058   3.365
 4984SOL     OW15295   3.465   4.171   2.599
 4984SOL    HW115296   3.391   4.217   2.549
 4984SOL    HW215297   3.516   4.239   2.652
 4985SOL     OW15298   2.093   5.437   2.345
 4985SOL    HW115299   2.127   5.514   2.399
 4985SOL    HW215300   2.137   5.437   2.255
 4986SOL     OW15301   2.989   5.065   3.552
 4986SOL    HW115302   3.036   5.065   3.640
 4986SOL    HW215303   2.941   4.978   3.541
 4987SOL     OW15304   2.092   5.158   2.400
 4987SOL    HW115305   2.066   5.254   2.400
 4987SOL    HW215306   2.021   5.104   2.445
 4988SOL     OW15307   2.102   4.815   2.748
 4988SOL    HW115308   2.116   4.731   2.800
 4988SOL    HW215309   2.047   4.879   2.803
 4989SOL     OW15310   2.482   5.510   3.301
 4989SOL    HW115311   2.390   5.493   3.336
 4989SOL    HW215312   2.510   5.602   3.327
 4990SOL     OW15313   2.468   4.688   1.985
 4990SOL    HW115314   2.475   4.772   1.931
 4990SOL    HW215315   2.514   4.701   2.073
 4991SOL     OW15316   3.456   3.838   3.342
 4991SOL    HW115317   3.438   3.905   3.270
 4991SOL    HW215318   3.453   3.884   3.431
 4992SOL     OW15319   1.984   4.367   2.425
 4992SOL    HW115320   1.939   4.279   2.442
 4992SOL    HW215321   1.983   4.421   2.509
 4993SOL     OW15322   3.704   5.491   2.221
 4993SOL    HW115323   3.758   5.462   2.301
 4993SOL    HW215324   3.734   5.581   2.192
 4994SOL     OW15325   1.889   5.320   1.979
 4994SOL    HW115326   1.870   5.224   2.000
 4994SOL    HW215327   1.856   5.378   2.054
 4995SOL     OW15328   3.551   4.646   2.474
 4995SOL    HW115329   3.646   4.617   2.482
 4995SOL    HW215330   3.543   4.711   2.399
 4996SOL     OW15331   3.503   4.832   2.294
 4996SOL    HW115332   3.589   4.834   2.242
 4996SOL    HW215333   3.517   4.879   2.382
 4997SOL     OW15334   1.975   4.461   3.459
 4997SOL    HW115335   2.063   4.448   3.504
 4997SOL    HW215336   1.962   4.558   3.437
 4998SOL     OW15337   2.475   5.089   2.588
 4998SOL    HW115338   2.426   5.002   2.597
 4998SOL    HW215339   2.452   5.132   2.501
 4999SOL     OW15340   3.155   4.952   3.285
 4999SOL    HW115341   3.192   4.879   3.227
 4999SOL    HW215342   3.207   4.957   3.370
 5000SOL     OW15343   2.671   3.728   2.364
 5000SOL    HW115344   2.711   3.819   2.355
 5000SOL    HW215345   2.571   3.736   2.370
 5001SOL     OW15346   2.059   4.700   3.126
 5001SOL    HW115347   2.148   4.655   3.112
 5001SOL    HW215348   1.986   4.635   3.107
 5002SOL     OW15349   3.387   4.723   2.052
 5002SOL    HW115350   3.324   4.647   2.065
 5002SOL    HW215351   3.435   4.741   2.138
 5003SOL     OW15352   3.049   5.516   3.478
 5003SOL    HW115353   3.073   5.576   3.402
 5003SOL    HW215354   3.056   5.421   3.448
 5004SOL     OW15355   2.179   3.975   3.663
 5004SOL    HW115356   2.250   4.046   3.669
 5004SOL    HW215357   2.091   4.014   3.691
 5005SOL     OW15358   3.328   5.141   2.815
 5005SOL    HW115359   3.269   5.147   2.895
 5005SOL    HW215360   3.313   5.053   2.769
 5006SOL     OW15361   3.529   5.438   2.434
 5006SOL    HW115362   3.488   5.415   2.346
 5006SOL    HW215363   3.511   5.364   2.499
 5007SOL     OW15364   2.460   4.453   2.132
 5007SOL    HW115365   2.484   4.522   2.064
 5007SOL    HW215366   2.382   4.486   2.186
 5008SOL     OW15367   3.143   4.069   2.806
 5008SOL    HW115368   3.057   4.019   2.793
 5008SOL    HW215369   3.205   4.015   2.862
 5009SOL     OW15370   3.438   5.386   2.169
 5009SOL    HW115371   3.527   5.432   2.172
 5009SOL    HW215372   3.417   5.362   2.074
 5010SOL     OW15373   2.669   4.329   3.327
 5010SOL    HW115374   2.622   4.326   3.416
 5010SOL    HW215375   2.618   4.274   3.261
 5011SOL     OW15376   3.256   4.193   3.536
 5011SOL    HW115377   3.236   4.236   3.624
 5011SOL    HW215378   3.334   4.131   3.545
 5012SOL     OW15379   2.835   4.614   3.434
 5012SOL    HW115380   2.881   4.530   3.405
 5012SOL    HW215381   2.779   4.648   3.359
 5013SOL     OW15382   2.853   4.134   3.104
 5013SOL    HW115383   2.776   4.168   3.158
 5013SOL    HW215384   2.819   4.083   3.025
 5014SOL     OW15385   2.903   4.425   2.291
 5014SOL    HW115386   2.929   4.421   2.387
 5014SOL    HW215387   2.818   4.374   2.277
 5015SOL     OW15388   1.938   4.535   2.651
 5015SOL    HW115389   2.037   4.523   2.660
 5015SOL    HW215390   1.914   4.630   2.672
 5016SOL     OW15391   1.992   5.545   3.433
 5016SOL    HW115392   1.982   5.530   3.532
 5016SOL    HW215393   1.906   5.581   3.397
 5017SOL     OW15394   2.727   4.072   2.057
 5017SOL    HW115395   2.786   4.135   2.008
 5017SOL    HW215396   2.746   3.978   2.028
 5018SOL     OW15397   3.581   4.309   3.693
 5018SOL    HW115398   3.555   4.398   3.657
 5018SOL    HW215399   3.579   4.241   3.620
 5019SOL     OW15400   3.224   4.868   2.407
 5019SOL    HW115401   3.307   4.839   2.359
 5019SOL    HW215402   3.175   4.935   2.351
 5020SOL     OW15403   2.412   3.920   2.747
 5020SOL    HW115404   2.407   3.915   2.847
 5020SOL    HW215405   2.414   4.016   2.718
 5021SOL     OW15406   2.870   5.180   2.339
 5021SOL    HW115407   2.824   5.252   2.287
 5021SOL    HW215408   2.866   5.200   2.437
 5022SOL     OW15409   2.213   5.525   2.715
 5022SOL    HW115410   2.263   5.439   2.721
 5022SOL    HW215411   2.278   5.602   2.712
 5023SOL     OW15412   3.657   4.790   2.735
 5023SOL    HW115413   3.595   4.775   2.659
 5023SOL    HW215414   3.605   4.801   2.820
 5024SOL     OW15415   3.089   5.274   3.368
 5024SOL    HW115416   3.095   5.197   3.432
 5024SOL    HW215417   3.037   5.248   3.288
 5025SOL     OW15418   2.183   4.667   2.104
 5025SOL    HW115419   2.265   4.706   2.062
 5025SOL    HW215420   2.156   4.585   2.055
 5026SOL     OW15421   3.320   4.459   2.590
 5026SOL    HW115422   3.315   4.394   2.665
 5026SOL    HW215423   3.400   4.518   2.603
 5027SOL     OW15424   2.323   4.990   3.589
 5027SOL    HW115425   2.273   4.991   3.503
 5027SOL    HW215426   2.260   4.972   3.665
 5028SOL     OW15427   2.973   5.500   2.099
 5028SOL    HW115428   2.913   5.438   2.149
 5028SOL    HW215429   3.004   5.456   2.014
 5029SOL     OW15430   2.064   4.009   3.360
 5029SOL    HW115431   1.984   4.069   3.347
 5029SOL    HW215432   2.054   3.960   3.446
 5030SOL     OW15433   3.494   5.101   1.943
 5030SOL    HW115434   3.462   5.195   1.933
 5030SOL    HW215435   3.418   5.038   1.931
 5031SOL     OW15436   2.326   5.467   2.185
 5031SOL    HW115437   2.359   5.506   2.271
 5031SOL    HW215438   2.402   5.460   2.120
 5032SOL     OW15439   3.262   3.831   2.288
 5032SOL    HW115440   3.238   3.794   2.198
 5032SOL    HW215441   3.361   3.847   2.292
 5033SOL     OW15442   2.111   5.509   3.103
 5033SOL    HW115443   2.168   5.444   3.153
 5033SOL    HW215444   2.095   5.476   3.010
 5034SOL     OW15445   2.802   5.422   2.766
 5034SOL    HW115446   2.882   5.365   2.787
 5034SOL    HW215447   2.753   5.382   2.689
 5035SOL     OW15448   2.244   4.424   2.342
 5035SOL    HW115449   2.289   4.334   2.339
 5035SOL    HW215450   2.150   4.413   2.375
 5036SOL     OW15451   3.409   3.946   3.591
 5036SOL    HW115452   3.404   3.983   3.683
 5036SOL    HW215453   3.337   3.877   3.579
 5037SOL     OW15454   2.476   3.846   1.979
 5037SOL    HW115455   2.574   3.824   1.986
 5037SOL    HW215456   2.445   3.829   1.886
 5038SOL     OW15457   2.643   3.988   3.611
 5038SOL    HW115458   2.710   3.927   3.654
 5038SOL    HW215459   2.570   4.007   3.676
 5039SOL     OW15460   2.750   5.238   3.057
 5039SOL    HW115461   2.727   5.213   2.963
 5039SOL    HW215462   2.811   5.169   3.096
 5040SOL     OW15463   3.213   4.314   3.295
 5040SOL    HW115464   3.241   4.271   3.380
 5040SOL    HW215465   3.238   4.410   3.296
 5041SOL     OW15466   2.665   5.126   2.786
 5041SOL    HW115467   2.755   5.140   2.744
 5041SOL    HW215468   2.594   5.128   2.715
 5042SOL     OW15469   2.784   4.227   2.761
 5042SOL    HW115470   2.759   4.218   2.665
 5042SOL    HW215471   2.832   4.145   2.792
 5043SOL     OW15472   2.401   3.788   2.374
 5043SOL    HW115473   2.320   3.789   2.432
 5043SOL    HW215474   2.404   3.871   2.319
 5044SOL     OW15475   3.296   4.912   1.903
 5044SOL    HW115476   3.328   4.836   1.960
 5044SOL    HW215477   3.204   4.939   1.933
 5045SOL     OW15478   2.159   3.759   2.033
 5045SOL    HW115479   2.208   3.843   2.012
 5045SOL    HW215480   2.221   3.694   2.078
 5046SOL     OW15481   2.797   3.960   2.342
 5046SOL    HW115482   2.749   4.001   2.264
 5046SOL    HW215483   2.896   3.958   2.323
 5047SOL     OW15484   2.938   4.407   3.326
 5047SOL    HW115485   2.858   4.346   3.329
 5047SOL    HW215486   3.019   4.354   3.302
 5048SOL     OW15487   3.089   5.294   2.655
 5048SOL    HW115488   3.110   5.368   2.590
 5048SOL    HW215489   3.157   5.294   2.728
 5049SOL     OW15490   2.321   4.876   2.603
 5049SOL    HW115491   2.250   4.849   2.668
 5049SOL    HW215492   2.295   4.848   2.510
 5050SOL     OW15493   3.133   5.521   2.453
 5050SOL    HW115494   3.177   5.585   2.389
 5050SOL    HW215495   3.083   5.573   2.523
 5051SOL     OW15496   2.894   4.273   1.878
 5051SOL    HW115497   2.853   4.355   1.839
 5051SOL    HW215498   2.958   4.299   1.951
 5052SOL     OW15499   1.940   4.280   3.248
 5052SOL    HW115500   2.032   4.279   3.207
 5052SOL    HW215501   1.934   4.354   3.315
 5053SOL     OW15502   2.423   3.946   3.009
 5053SOL    HW115503   2.461   3.862   3.046
 5053SOL    HW215504   2.335   3.965   3.053
 5054SOL     OW15505   2.728   4.178   2.504
 5054SOL    HW115506   2.696   4.250   2.442
 5054SOL    HW215507   2.752   4.097   2.451
 5055SOL     OW15508   2.879   3.763   2.615
 5055SOL    HW115509   2.807   3.768   2.546
 5055SOL    HW215510   2.855   3.694   2.684
 5056SOL     OW15511   3.291   4.897   2.729
 5056SOL    HW115512   3.236   4.813   2.722
 5056SOL    HW215513   3.317   4.926   2.637
 5057SOL     OW15514   3.328   4.314   2.854
 5057SOL    HW115515   3.298   4.219   2.861
 5057SOL    HW215516   3.401   4.330   2.920
 5058SOL     OW15517   3.719   4.557   2.239
 5058SOL    HW115518   3.761   4.493   2.303
 5058SOL    HW215519   3.681   4.506   2.161
 5059SOL     OW15520   2.350   5.109   2.036
 5059SOL    HW115521   2.263   5.094   2.083
 5059SOL    HW215522   2.333   5.135   1.941
 5060SOL     OW15523   3.526   5.004   2.519
 5060SOL    HW115524   3.625   5.012   2.533
 5060SOL    HW215525   3.481   5.088   2.550
 5061SOL     OW15526   3.252   4.299   1.940
 5061SOL    HW115527   3.198   4.278   2.021
 5061SOL    HW215528   3.343   4.258   1.949
 5062SOL     OW15529   2.389   3.980   2.190
 5062SOL    HW115530   2.416   3.921   2.115
 5062SOL    HW215531   2.389   4.075   2.159
 5063SOL     OW15532   3.616   4.947   3.450
 5063SOL    HW115533   3.707   4.908   3.437
 5063SOL    HW215534   3.624   5.043   3.474
 5064SOL     OW15535   2.926   5.071   3.202
 5064SOL    HW115536   2.846   5.048   3.257
 5064SOL    HW215537   3.009   5.045   3.251
 5065SOL     OW15538   2.973   4.919   2.962
 5065SOL    HW115539   2.933   4.963   3.043
 5065SOL    HW215540   2.932   4.956   2.879
 5066SOL     OW15541   3.500   4.823   2.941
 5066SOL    HW115542   3.505   4.904   3.000
 5066SOL    HW215543   3.414   4.825   2.890
 5067SOL     OW15544   2.777   3.813   3.264
 5067SOL    HW115545   2.802   3.793   3.169
 5067SOL    HW215546   2.849   3.869   3.306
 5068SOL     OW15547   2.842   4.840   3.581
 5068SOL    HW115548   2.743   4.846   3.591
 5068SOL    HW215549   2.865   4.760   3.525
 5069SOL     OW15550   2.567   4.774   2.230
 5069SOL    HW115551   2.553   4.781   2.329
 5069SOL    HW215552   2.651   4.723   2.212
 5070SOL     OW15553   2.272   4.537   3.113
 5070SOL    HW115554   2.358   4.549   3.163
 5070SOL    HW215555   2.230   4.450   3.140
 5071SOL     OW15556   3.136   4.110   3.124
 5071SOL    HW115557   3.157   4.184   3.188
 5071SOL    HW215558   3.047   4.127   3.081
 5072SOL     OW15559   1.926   5.288   3.193
 5072SOL    HW115560   1.880   5.370   3.159
 5072SOL    HW215561   2.024   5.307   3.202
 5073SOL     OW15562   2.229   4.824   2.363
 5073SOL    HW115563   2.222   4.907   2.307
 5073SOL    HW215564   2.233   4.744   2.303
 5074SOL     OW15565   2.428   4.261   2.727
 5074SOL    HW115566   2.440   4.327   2.653
 5074SOL    HW215567   2.474   4.295   2.810
 5075SOL     OW15568   3.114   5.072   2.250
 5075SOL    HW115569   3.164   5.149   2.290
 5075SOL    HW215570   3.019   5.074   2.282
 5076SOL     OW15571   3.134   5.169   3.004
 5076SOL    HW115572   3.181   5.182   3.091
 5076SOL    HW215573   3.068   5.095   3.013
 5077SOL     OW15574   3.444   4.363   2.334
 5077SOL    HW115575   3.413   4.424   2.407
 5077SOL    HW215576   3.494   4.415   2.265
 5078SOL     OW15577   2.216   5.234   3.191
 5078SOL    HW115578   2.195   5.190   3.104
 5078SOL    HW215579   2.313   5.260   3.194
 5079SOL     OW15580   2.264   4.475   3.460
 5079SOL    HW115581   2.332   4.530   3.413
 5079SOL    HW215582   2.304   4.387   3.487
 5080SOL     OW15583   3.449   4.503   3.532
 5080SOL    HW115584   3.357   4.541   3.527
 5080SOL    HW215585   3.509   4.550   3.467
 5081SOL     OW15586   2.875   3.829   3.632
 5081SOL    HW115587   2.881   3.914   3.580
 5081SOL    HW215588   2.907   3.753   3.575
 5082SOL     OW15589   2.366   3.774   3.602
 5082SOL    HW115590   2.324   3.717   3.532
 5082SOL    HW215591   2.300   3.843   3.634
 5083SOL     OW15592   2.435   4.594   2.891
 5083SOL    HW115593   2.479   4.683   2.882
 5083SOL    HW215594   2.372   4.594   2.968
 5084SOL     OW15595   3.222   4.586   2.907
 5084SOL    HW115596   3.147   4.586   2.841
 5084SOL    HW215597   3.259   4.494   2.916
 5085SOL     OW15598   3.071   4.249   2.137
 5085SOL    HW115599   3.084   4.165   2.191
 5085SOL    HW215600   3.042   4.323   2.197
 5086SOL     OW15601   2.169   3.937   3.093
 5086SOL    HW115602   2.146   3.974   3.183
 5086SOL    HW215603   2.139   3.842   3.087
 5087SOL     OW15604   1.899   5.034   3.144
 5087SOL    HW115605   1.952   4.985   3.212
 5087SOL    HW215606   1.921   5.132   3.149
 5088SOL     OW15607   2.594   4.358   2.926
 5088SOL    HW115608   2.653   4.332   2.850
 5088SOL    HW215609   2.566   4.454   2.915
 5089SOL     OW15610   3.590   4.659   3.716
 5089SOL    HW115611   3.544   4.652   3.627
 5089SOL    HW215612   3.528   4.703   3.782
 5090SOL     OW15613   2.169   3.787   2.480
 5090SOL    HW115614   2.158   3.881   2.513
 5090SOL    HW215615   2.164   3.724   2.557
 5091SOL     OW15616   3.484   4.091   2.236
 5091SOL    HW115617   3.486   4.015   2.300
 5091SOL    HW215618   3.436   4.168   2.276
 5092SOL     OW15619   2.885   4.490   2.828
 5092SOL    HW115620   2.900   4.511   2.924
 5092SOL    HW215621   2.855   4.395   2.819
 5093SOL     OW15622   2.842   5.297   3.562
 5093SOL    HW115623   2.822   5.341   3.474
 5093SOL    HW215624   2.881   5.206   3.546
 5094SOL     OW15625   2.212   4.622   3.666
 5094SOL    HW115626   2.288   4.666   3.714
 5094SOL    HW215627   2.247   4.575   3.584
 5095SOL     OW15628   3.402   3.998   1.987
 5095SOL    HW115629   3.341   3.923   2.010
 5095SOL    HW215630   3.424   4.050   2.070
 5096SOL     OW15631   3.165   4.562   1.904
 5096SOL    HW115632   3.199   4.469   1.919
 5096SOL    HW215633   3.183   4.589   1.809
 5097SOL     OW15634   2.930   5.057   2.711
 5097SOL    HW115635   2.937   4.973   2.656
 5097SOL    HW215636   2.992   5.126   2.675
 5098SOL     OW15637   2.181   4.534   2.811
 5098SOL    HW115638   2.274   4.570   2.816
 5098SOL    HW215639   2.175   4.449   2.863
 5099SOL     OW15640   2.201   4.233   2.868
 5099SOL    HW115641   2.149   4.150   2.851
 5099SOL    HW215642   2.278   4.238   2.804
 5100SOL     OW15643   3.000   4.104   3.540
 5100SOL    HW115644   2.955   4.167   3.604
 5100SOL    HW215645   3.093   4.135   3.523
 5101SOL     OW15646   3.022   3.931   3.339
 5101SOL    HW115647   3.022   3.995   3.416
 5101SOL    HW215648   3.050   3.979   3.256
 5102SOL     OW15649   1.870   5.050   2.062
 5102SOL    HW115650   1.777   5.071   2.031
 5102SOL    HW215651   1.880   4.951   2.075
 5103SOL     OW15652   1.950   5.525   2.789
 5103SOL    HW115653   1.908   5.439   2.762
 5103SOL    HW215654   2.044   5.528   2.755
 5104SOL     OW15655   2.366   5.292   2.772
 5104SOL    HW115656   2.432   5.366   2.781
 5104SOL    HW215657   2.410   5.213   2.730
 5105SOL     OW15658   2.864   4.520   3.100
 5105SOL    HW115659   2.905   4.488   3.186
 5105SOL    HW215660   2.768   4.493   3.097
 5106SOL     OW15661   1.902   4.268   2.976
 5106SOL    HW115662   1.987   4.235   2.935
 5106SOL    HW215663   1.915   4.283   3.074
 5107SOL     OW15664   2.051   4.244   3.584
 5107SOL    HW115665   2.110   4.204   3.514
 5107SOL    HW215666   1.993   4.315   3.543
 5108SOL     OW15667   3.231   4.674   3.522
 5108SOL    HW115668   3.270   4.763   3.542
 5108SOL    HW215669   3.241   4.654   3.425
 5109SOL     OW15670   2.677   4.296   2.187
 5109SOL    HW115671   2.684   4.207   2.141
 5109SOL    HW215672   2.583   4.330   2.179
 5110SOL     OW15673   3.519   4.328   3.068
 5110SOL    HW115674   3.481   4.259   3.130
 5110SOL    HW215675   3.601   4.292   3.024
 5111SOL     OW15676   2.114   5.288   3.606
 5111SOL    HW115677   2.084   5.345   3.682
 5111SOL    HW215678   2.107   5.191   3.632
 5112SOL     OW15679   2.533   4.188   3.131
 5112SOL    HW115680   2.499   4.099   3.101
 5112SOL    HW215681   2.559   4.242   3.051
 5113SOL     OW15682   2.792   5.402   3.327
 5113SOL    HW115683   2.768   5.384   3.232
 5113SOL    HW215684   2.822   5.496   3.337
 5114SOL     OW15685   2.335   4.224   2.053
 5114SOL    HW115686   2.396   4.304   2.057
 5114SOL    HW215687   2.240   4.255   2.060
 5115SOL     OW15688   2.021   4.861   3.328
 5115SOL    HW115689   2.043   4.800   3.404
 5115SOL    HW215690   2.031   4.812   3.242
 5116SOL     OW15691   3.209   4.783   3.096
 5116SOL    HW115692   3.233   4.720   3.022
 5116SOL    HW215693   3.119   4.823   3.078
 5117SOL     OW15694   3.164   4.579   2.171
 5117SOL    HW115695   3.078   4.548   2.213
 5117SOL    HW215696   3.160   4.565   2.072
 5118SOL     OW15697   3.114   5.455   2.990
 5118SOL    HW115698   3.198   5.460   2.936
 5118SOL    HW215699   3.091   5.359   3.008
 5119SOL     OW15700   1.945   4.982   2.884
 5119SOL    HW115701   1.940   4.981   2.984
 5119SOL    HW215702   1.862   4.941   2.846
 5120SOL     OW15703   2.550   5.386   3.578
 5120SOL    HW115704   2.494   5.467   3.587
 5120SOL    HW215705   2.602   5.390   3.492
 5121SOL     OW15706   3.588   3.859   2.385
 5121SOL    HW115707   3.661   3.842   2.318
 5121SOL    HW215708   3.557   3.772   2.423
 5122SOL     OW15709   3.250   5.297   2.339
 5122SOL    HW115710   3.317   5.309   2.265
 5122SOL    HW215711   3.210   5.386   2.362
 5123SOL     OW15712   1.992   5.518   3.713
 5123SOL    HW115713   1.951   5.444   3.766
 5123SOL    HW215714   2.056   5.569   3.771
 5124SOL     OW15715   3.142   4.651   2.534
 5124SOL    HW115716   3.202   4.570   2.536
 5124SOL    HW215717   3.182   4.720   2.474
 5125SOL     OW15718   2.692   4.997   3.284
 5125SOL    HW115719   2.687   5.030   3.379
 5125SOL    HW215720   2.606   5.016   3.238
 5126SOL     OW15721   2.534   5.340   2.016
 5126SOL    HW115722   2.543   5.350   1.917
 5126SOL    HW215723   2.494   5.251   2.037
 5127SOL     OW15724   3.703   3.899   2.825
 5127SOL    HW115725   3.742   3.814   2.789
 5127SOL    HW215726   3.605   3.901   2.806
 5128SOL     OW15727   2.125   4.050   2.582
 5128SOL    HW115728   2.046   4.101   2.548
 5128SOL    HW215729   2.116   4.035   2.680
 5129SOL     OW15730   3.056   5.336   1.893
 5129SOL    HW115731   3.062   5.243   1.930
 5129SOL    HW215732   2.997   5.336   1.813
 5130SOL     OW15733   2.684   4.726   3.234
 5130SOL    HW115734   2.724   4.725   3.142
 5130SOL    HW215735   2.694   4.818   3.274
 5131SOL     OW15736   2.778   4.634   2.153
 5131SOL    HW115737   2.841   4.672   2.085
 5131SOL    HW215738   2.818   4.551   2.192
 5132SOL     OW15739   3.366   5.331   1.906
 5132SOL    HW115740   3.274   5.368   1.913
 5132SOL    HW215741   3.404   5.351   1.816
 5133SOL     OW15742   2.234   5.012   3.352
 5133SOL    HW115743   2.221   5.105   3.318
 5133SOL    HW215744   2.150   4.960   3.339
 5134SOL     OW15745   3.476   5.016   3.151
 5134SOL    HW115746   3.536   5.019   3.231
 5134SOL    HW215747   3.401   5.080   3.164
 5135SOL     OW15748   2.901   4.822   2.558
 5135SOL    HW115749   2.831   4.775   2.612
 5135SOL    HW215750   2.960   4.754   2.515
 5136SOL     OW15751   2.876   3.960   2.833
 5136SOL    HW115752   2.868   3.924   2.740
 5136SOL    HW215753   2.874   3.884   2.898
 5137SOL     OW15754   2.452   5.211   2.353
 5137SOL    HW115755   2.494   5.153   2.283
 5137SOL    HW215756   2.408   5.290   2.309
 5138SOL     OW15757   3.571   4.109   3.243
 5138SOL    HW115758   3.644   4.178   3.247
 5138SOL    HW215759   3.599   4.034   3.184
 5139SOL     OW15760   2.117   5.072   2.152
 5139SOL    HW115761   2.021   5.073   2.125
 5139SOL    HW215762   2.129   5.125   2.236
 5140SOL     OW15763   1.967   4.737   3.588
 5140SOL    HW115764   1.890   4.704   3.642
 5140SOL    HW215765   2.052   4.707   3.630
 5141SOL     OW15766   2.534   3.927   3.351
 5141SOL    HW115767   2.624   3.911   3.311
 5141SOL    HW215768   2.542   3.932   3.450
 5142SOL     OW15769   1.937   4.069   1.895
 5142SOL    HW115770   1.845   4.041   1.866
 5142SOL    HW215771   1.968   4.146   1.839
 5143SOL     OW15772   3.302   4.580   3.260
 5143SOL    HW115773   3.245   4.632   3.197
 5143SOL    HW215774   3.398   4.592   3.236
 5144SOL     OW15775   1.934   3.890   2.180
 5144SOL    HW115776   1.917   3.973   2.126
 5144SOL    HW215777   2.024   3.853   2.158
 5145SOL     OW15778   3.045   5.059   1.981
 5145SOL    HW115779   2.946   5.048   1.983
 5145SOL    HW215780   3.079   5.074   2.074
 5146SOL     OW15781   2.475   4.566   3.293
 5146SOL    HW115782   2.531   4.647   3.276
 5146SOL    HW215783   2.534   4.486   3.296
 5147SOL     OW15784   2.578   4.289   3.570
 5147SOL    HW115785   2.597   4.354   3.644
 5147SOL    HW215786   2.638   4.209   3.579
 5148SOL     OW15787   3.312   4.944   3.495
 5148SOL    HW115788   3.303   4.934   3.594
 5148SOL    HW215789   3.408   4.937   3.469
 5149SOL     OW15790   2.252   5.465   3.422
 5149SOL    HW115791   2.161   5.506   3.420
 5149SOL    HW215792   2.245   5.371   3.454
 5150SOL     OW15793   3.536   4.607   3.116
 5150SOL    HW115794   3.509   4.518   3.079
 5150SOL    HW215795   3.537   4.675   3.043
 5151SOL     OW15796   3.087   4.049   2.311
 5151SOL    HW115797   3.152   3.975   2.300
 5151SOL    HW215798   3.107   4.099   2.395
 5152SOL     OW15799   2.456   4.469   2.514
 5152SOL    HW115800   2.506   4.554   2.495
 5152SOL    HW215801   2.368   4.471   2.466
 5153SOL     OW15802   3.639   4.066   3.504
 5153SOL    HW115803   3.622   4.097   3.410
 5153SOL    HW215804   3.555   4.029   3.542
 5154SOL     OW15805   3.592   4.658   3.379
 5154SOL    HW115806   3.630   4.749   3.394
 5154SOL    HW215807   3.584   4.641   3.280
 5155SOL     OW15808   2.721   5.098   1.878
 5155SOL    HW115809   2.675   5.113   1.966
 5155SOL    HW215810   2.765   5.183   1.848
 5156SOL     OW15811   2.523   5.514   2.815
 5156SOL    HW115812   2.477   5.602   2.802
 5156SOL    HW215813   2.622   5.526   2.808
 5157SOL     OW15814   2.721   4.680   2.723
 5157SOL    HW115815   2.775   4.611   2.771
 5157SOL    HW215816   2.689   4.749   2.789
 5158SOL     OW15817   2.945   4.708   1.949
 5158SOL    HW115818   2.922   4.761   1.867
 5158SOL    HW215819   3.026   4.652   1.930
 5159SOL     OW15820   3.723   5.293   2.713
 5159SOL    HW115821   3.652   5.281   2.643
 5159SOL    HW215822   3.724   5.214   2.773
 5160SOL     OW15823   2.083   5.038   3.706
 5160SOL    HW115824   2.018   4.965   3.685
 5160SOL    HW215825   2.087   5.052   3.804
 5161SOL     OW15826   1.941   4.964   2.515
 5161SOL    HW115827   1.940   4.917   2.603
 5161SOL    HW215828   2.023   4.936   2.464
 5162SOL     OW15829   2.534   5.115   3.486
 5162SOL    HW115830   2.456   5.065   3.524
 5162SOL    HW215831   2.531   5.210   3.517
 5163SOL     OW15832   3.686   3.916   3.089
 5163SOL    HW115833   3.682   3.826   3.133
 5163SOL    HW215834   3.689   3.905   2.990
 5164SOL     OW15835   2.290   4.148   2.382
 5164SOL    HW115836   2.320   4.076   2.320
 5164SOL    HW215837   2.251   4.108   2.465
 5165SOL     OW15838   3.567   5.211   2.966
 5165SOL    HW115839   3.474   5.186   2.939
 5165SOL    HW215840   3.593   5.161   3.048
 5166SOL     OW15841   2.179   4.271   3.142
 5166SOL    HW115842   2.217   4.212   3.214
 5166SOL    HW215843   2.219   4.245   3.054
 5167SOL     OW15844   2.674   5.310   2.549
 5167SOL    HW115845   2.706   5.320   2.455
 5167SOL    HW215846   2.595   5.248   2.551
 5168SOL     OW15847   3.286   3.938   2.974
 5168SOL    HW115848   3.338   3.873   3.029
 5168SOL    HW215849   3.237   4.001   3.035
 5169SOL     OW15850   2.863   3.758   3.016
 5169SOL    HW115851   2.800   3.686   2.985
 5169SOL    HW215852   2.956   3.722   3.016
 5170SOL     OW15853   2.632   5.054   2.163
 5170SOL    HW115854   2.586   4.967   2.180
 5170SOL    HW215855   2.723   5.051   2.204
 5171SOL     OW15856   2.480   5.291   3.146
 5171SOL    HW115857   2.475   5.373   3.203
 5171SOL    HW215858   2.569   5.288   3.101
 5172SOL     OW15859   3.214   3.776   2.030
 5172SOL    HW115860   3.249   3.735   1.946
 5172SOL    HW215861   3.124   3.738   2.050
 5173SOL     OW15862   3.162   4.177   2.553
 5173SOL    HW115863   3.103   4.257   2.557
 5173SOL    HW215864   3.177   4.142   2.646
 5174SOL     OW15865   3.455   3.945   2.744
 5174SOL    HW115866   3.371   3.944   2.798
 5174SOL    HW215867   3.457   4.028   2.688
 5175SOL     OW15868   1.901   4.801   2.162
 5175SOL    HW115869   2.000   4.790   2.153
 5175SOL    HW215870   1.861   4.715   2.194
 5176SOL     OW15871   2.737   5.370   2.199
 5176SOL    HW115872   2.660   5.335   2.145
 5176SOL    HW215873   2.705   5.441   2.261
 5177SOL     OW15874   2.092   4.352   3.837
 5177SOL    HW115875   1.999   4.350   3.874
 5177SOL    HW215876   2.093   4.313   3.745
 5178SOL     OW15877   2.087   3.999   4.720
 5178SOL    HW115878   2.122   3.982   4.812
 5178SOL    HW215879   1.999   3.954   4.708
 5179SOL     OW15880   1.881   4.092   4.371
 5179SOL    HW115881   1.799   4.135   4.410
 5179SOL    HW215882   1.853   4.019   4.308
 5180SOL     OW15883   2.431   4.999   4.889
 5180SOL    HW115884   2.338   4.992   4.852
 5180SOL    HW215885   2.442   5.088   4.933
 5181SOL     OW15886   3.417   5.235   4.427
 5181SOL    HW115887   3.360   5.219   4.508
 5181SOL    HW215888   3.358   5.245   4.347
 5182SOL     OW15889   2.997   4.427   4.441
 5182SOL    HW115890   3.054   4.505   4.416
 5182SOL    HW215891   2.937   4.453   4.517
 5183SOL     OW15892   3.617   4.331   3.955
 5183SOL    HW115893   3.605   4.318   3.856
 5183SOL    HW215894   3.587   4.250   4.004
 5184SOL     OW15895   2.630   4.868   4.747
 5184SOL    HW115896   2.552   4.885   4.807
 5184SOL    HW215897   2.664   4.955   4.711
 5185SOL     OW15898   2.712   4.522   5.547
 5185SOL    HW115899   2.708   4.598   5.612
 5185SOL    HW215900   2.734   4.558   5.456
 5186SOL     OW15901   2.547   4.736   4.389
 5186SOL    HW115902   2.616   4.720   4.459
 5186SOL    HW215903   2.474   4.793   4.427
 5187SOL     OW15904   2.548   4.885   5.527
 5187SOL    HW115905   2.608   4.964   5.541
 5187SOL    HW215906   2.462   4.916   5.486
 5188SOL     OW15907   2.197   5.159   4.785
 5188SOL    HW115908   2.119   5.128   4.732
 5188SOL    HW215909   2.255   5.217   4.728
 5189SOL     OW15910   3.322   5.229   5.063
 5189SOL    HW115911   3.346   5.323   5.089
 5189SOL    HW215912   3.306   5.175   5.145
 5190SOL     OW15913   2.300   4.116   5.223
 5190SOL    HW115914   2.382   4.060   5.232
 5190SOL    HW215915   2.219   4.058   5.227
 5191SOL     OW15916   3.465   4.171   4.461
 5191SOL    HW115917   3.391   4.217   4.411
 5191SOL    HW215918   3.516   4.239   4.514
 5192SOL     OW15919   2.093   5.437   4.207
 5192SOL    HW115920   2.127   5.514   4.261
 5192SOL    HW215921   2.137   5.437   4.117
 5193SOL     OW15922   2.989   5.065   5.414
 5193SOL    HW115923   3.036   5.065   5.502
 5193SOL    HW215924   2.941   4.978   5.403
 5194SOL     OW15925   2.092   5.158   4.262
 5194SOL    HW115926   2.066   5.254   4.262
 5194SOL    HW215927   2.021   5.104   4.307
 5195SOL     OW15928   2.102   4.815   4.610
 5195SOL    HW115929   2.116   4.731   4.662
 5195SOL    HW215930   2.047   4.879   4.665
 5196SOL     OW15931   2.482   5.510   5.163
 5196SOL    HW115932   2.390   5.493   5.198
 5196SOL    HW215933   2.510   5.602   5.189
 5197SOL     OW15934   2.468   4.688   3.847
 5197SOL    HW115935   2.475   4.772   3.793
 5197SOL    HW215936   2.514   4.701   3.935
 5198SOL     OW15937   3.456   3.838   5.204
 5198SOL    HW115938   3.438   3.905   5.132
 5198SOL    HW215939   3.453   3.884   5.293
 5199SOL     OW15940   1.984   4.367   4.287
 5199SOL    HW115941   1.939   4.279   4.304
 5199SOL    HW215942   1.983   4.421   4.371
 5200SOL     OW15943   1.889   5.320   3.841
 5200SOL    HW115944   1.870   5.224   3.862
 5200SOL    HW215945   1.856   5.378   3.916
 5201SOL     OW15946   3.551   4.646   4.336
 5201SOL    HW115947   3.646   4.617   4.344
 5201SOL    HW215948   3.543   4.711   4.261
 5202SOL     OW15949   3.503   4.832   4.156
 5202SOL    HW115950   3.589   4.834   4.104
 5202SOL    HW215951   3.517   4.879   4.244
 5203SOL     OW15952   1.975   4.461   5.321
 5203SOL    HW115953   2.063   4.448   5.366
 5203SOL    HW215954   1.962   4.558   5.299
 5204SOL     OW15955   2.475   5.089   4.450
 5204SOL    HW115956   2.426   5.002   4.459
 5204SOL    HW215957   2.452   5.132   4.363
 5205SOL     OW15958   3.155   4.952   5.147
 5205SOL    HW115959   3.192   4.879   5.089
 5205SOL    HW215960   3.207   4.957   5.232
 5206SOL     OW15961   2.671   3.728   4.226
 5206SOL    HW115962   2.711   3.819   4.217
 5206SOL    HW215963   2.571   3.736   4.232
 5207SOL     OW15964   2.059   4.700   4.988
 5207SOL    HW115965   2.148   4.655   4.974
 5207SOL    HW215966   1.986   4.635   4.969
 5208SOL     OW15967   3.387   4.723   3.914
 5208SOL    HW115968   3.324   4.647   3.927
 5208SOL    HW215969   3.435   4.741   4.000
 5209SOL     OW15970   3.049   5.516   5.340
 5209SOL    HW115971   3.073   5.576   5.264
 5209SOL    HW215972   3.056   5.421   5.310
 5210SOL     OW15973   2.179   3.975   5.525
 5210SOL    HW115974   2.250   4.046   5.531
 5210SOL    HW215975   2.091   4.014   5.553
 5211SOL     OW15976   3.328   5.141   4.677
 5211SOL    HW115977   3.269   5.147   4.757
 5211SOL    HW215978   3.313   5.053   4.631
 5212SOL     OW15979   2.460   4.453   3.994
 5212SOL    HW115980   2.484   4.522   3.926
 5212SOL    HW215981   2.382   4.486   4.048
 5213SOL     OW15982   3.143   4.069   4.668
 5213SOL    HW115983   3.057   4.019   4.655
 5213SOL    HW215984   3.205   4.015   4.724
 5214SOL     OW15985   2.669   4.329   5.189
 5214SOL    HW115986   2.622   4.326   5.278
 5214SOL    HW215987   2.618   4.274   5.123
 5215SOL     OW15988   3.256   4.193   5.398
 5215SOL    HW115989   3.236   4.236   5.486
 5215SOL    HW215990   3.334   4.131   5.407
 5216SOL     OW15991   2.835   4.614   5.296
 5216SOL    HW115992   2.881   4.530   5.267
 5216SOL    HW215993   2.779   4.648   5.221
 5217SOL     OW15994   2.853   4.134   4.966
 5217SOL    HW115995   2.776   4.168   5.020
 5217SOL    HW215996   2.819   4.083   4.887
 5218SOL     OW15997   2.903   4.425   4.153
 5218SOL    HW115998   2.929   4.421   4.249
 5218SOL    HW215999   2.818   4.374   4.139
 5219SOL     OW16000   1.938   4.535   4.513
 5219SOL    HW116001   2.037   4.523   4.522
 5219SOL    HW216002   1.914   4.630   4.534
 5220SOL     OW16003   1.992   5.545   5.295
 5220SOL    HW116004   1.982   5.530   5.394
 5220SOL    HW216005   1.906   5.581   5.259
 5221SOL     OW16006   2.727   4.072   3.919
 5221SOL    HW116007   2.786   4.135   3.870
 5221SOL    HW216008   2.746   3.978   3.890
 5222SOL     OW16009   3.581   4.309   5.555
 5222SOL    HW116010   3.555   4.398   5.519
 5222SOL    HW216011   3.579   4.241   5.482
 5223SOL     OW16012   3.224   4.868   4.269
 5223SOL    HW116013   3.307   4.839   4.221
 5223SOL    HW216014   3.175   4.935   4.213
 5224SOL     OW16015   2.412   3.920   4.609
 5224SOL    HW116016   2.407   3.915   4.709
 5224SOL    HW216017   2.414   4.016   4.580
 5225SOL     OW16018   2.870   5.180   4.201
 5225SOL    HW116019   2.824   5.252   4.149
 5225SOL    HW216020   2.866   5.200   4.299
 5226SOL     OW16021   2.213   5.525   4.577
 5226SOL    HW116022   2.263   5.439   4.583
 5226SOL    HW216023   2.278   5.602   4.574
 5227SOL     OW16024   3.657   4.790   4.597
 5227SOL    HW116025   3.595   4.775   4.521
 5227SOL    HW216026   3.605   4.801   4.682
 5228SOL     OW16027   2.183   4.667   3.966
 5228SOL    HW116028   2.265   4.706   3.924
 5228SOL    HW216029   2.156   4.585   3.917
 5229SOL     OW16030   3.320   4.459   4.452
 5229SOL    HW116031   3.315   4.394   4.527
 5229SOL    HW216032   3.400   4.518   4.465
 5230SOL     OW16033   2.323   4.990   5.451
 5230SOL    HW116034   2.273   4.991   5.365
 5230SOL    HW216035   2.260   4.972   5.527
 5231SOL     OW16036   2.064   4.009   5.222
 5231SOL    HW116037   1.984   4.069   5.209
 5231SOL    HW216038   2.054   3.960   5.308
 5232SOL     OW16039   3.494   5.101   3.805
 5232SOL    HW116040   3.462   5.195   3.795
 5232SOL    HW216041   3.418   5.038   3.793
 5233SOL     OW16042   2.326   5.467   4.047
 5233SOL    HW116043   2.359   5.506   4.133
 5233SOL    HW216044   2.402   5.460   3.982
 5234SOL     OW16045   3.262   3.831   4.150
 5234SOL    HW116046   3.238   3.794   4.060
 5234SOL    HW216047   3.361   3.847   4.154
 5235SOL     OW16048   2.111   5.509   4.965
 5235SOL    HW116049   2.168   5.444   5.015
 5235SOL    HW216050   2.095   5.476   4.872
 5236SOL     OW16051   2.802   5.422   4.628
 5236SOL    HW116052   2.882   5.365   4.649
 5236SOL    HW216053   2.753   5.382   4.551
 5237SOL     OW16054   2.244   4.424   4.204
 5237SOL    HW116055   2.289   4.334   4.201
 5237SOL    HW216056   2.150   4.413   4.237
 5238SOL     OW16057   3.409   3.946   5.453
 5238SOL    HW116058   3.404   3.983   5.545
 5238SOL    HW216059   3.337   3.877   5.441
 5239SOL     OW16060   2.476   3.846   3.841
 5239SOL    HW116061   2.574   3.824   3.848
 5239SOL    HW216062   2.445   3.829   3.748
 5240SOL     OW16063   2.643   3.988   5.473
 5240SOL    HW116064   2.710   3.927   5.516
 5240SOL    HW216065   2.570   4.007   5.538
 5241SOL     OW16066   3.213   4.314   5.157
 5241SOL    HW116067   3.241   4.271   5.242
 5241SOL    HW216068   3.238   4.410   5.158
 5242SOL     OW16069   2.665   5.126   4.648
 5242SOL    HW116070   2.755   5.140   4.606
 5242SOL    HW216071   2.594   5.128   4.577
 5243SOL     OW16072   2.784   4.227   4.623
 5243SOL    HW116073   2.759   4.218   4.527
 5243SOL    HW216074   2.832   4.145   4.654
 5244SOL     OW16075   2.401   3.788   4.236
 5244SOL    HW116076   2.320   3.789   4.294
 5244SOL    HW216077   2.404   3.871   4.181
 5245SOL     OW16078   3.296   4.912   3.765
 5245SOL    HW116079   3.328   4.836   3.822
 5245SOL    HW216080   3.204   4.939   3.795
 5246SOL     OW16081   2.159   3.759   3.895
 5246SOL    HW116082   2.208   3.843   3.874
 5246SOL    HW216083   2.221   3.694   3.940
 5247SOL     OW16084   2.797   3.960   4.204
 5247SOL    HW116085   2.749   4.001   4.126
 5247SOL    HW216086   2.896   3.958   4.185
 5248SOL     OW16087   2.938   4.407   5.188
 5248SOL    HW116088   2.858   4.346   5.191
 5248SOL    HW216089   3.019   4.354   5.164
 5249SOL     OW16090   2.321   4.876   4.465
 5249SOL    HW116091   2.250   4.849   4.530
 5249SOL    HW216092   2.295   4.848   4.372
 5250SOL     OW16093   2.894   4.273   3.740
 5250SOL    HW116094   2.853   4.355   3.701
 5250SOL    HW216095   2.958   4.299   3.813
 5251SOL     OW16096   1.940   4.280   5.110
 5251SOL    HW116097   2.032   4.279   5.069
 5251SOL    HW216098   1.934   4.354   5.177
 5252SOL     OW16099   2.423   3.946   4.871
 5252SOL    HW116100   2.461   3.862   4.908
 5252SOL    HW216101   2.335   3.965   4.915
 5253SOL     OW16102   2.728   4.178   4.366
 5253SOL    HW116103   2.696   4.250   4.304
 5253SOL    HW216104   2.752   4.097   4.313
 5254SOL     OW16105   2.879   3.763   4.477
 5254SOL    HW116106   2.807   3.768   4.408
 5254SOL    HW216107   2.855   3.694   4.546
 5255SOL     OW16108   3.291   4.897   4.591
 5255SOL    HW116109   3.236   4.813   4.584
 5255SOL    HW216110   3.317   4.926   4.499
 5256SOL     OW16111   3.328   4.314   4.716
 5256SOL    HW116112   3.298   4.219   4.723
 5256SOL    HW216113   3.401   4.330   4.782
 5257SOL     OW16114   3.719   4.557   4.101
 5257SOL    HW116115   3.761   4.493   4.165
 5257SOL    HW216116   3.681   4.506   4.023
 5258SOL     OW16117   2.350   5.109   3.898
 5258SOL    HW116118   2.263   5.094   3.945
 5258SOL    HW216119   2.333   5.135   3.803
 5259SOL     OW16120   3.526   5.004   4.381
 5259SOL    HW116121   3.625   5.012   4.395
 5259SOL    HW216122   3.481   5.088   4.412
 5260SOL     OW16123   3.252   4.299   3.802
 5260SOL    HW116124   3.198   4.278   3.883
 5260SOL    HW216125   3.343   4.258   3.811
 5261SOL     OW16126   2.389   3.980   4.052
 5261SOL    HW116127   2.416   3.921   3.977
 5261SOL    HW216128   2.389   4.075   4.021
 5262SOL     OW16129   3.616   4.947   5.312
 5262SOL    HW116130   3.707   4.908   5.299
 5262SOL    HW216131   3.624   5.043   5.336
 5263SOL     OW16132   2.926   5.071   5.064
 5263SOL    HW116133   2.846   5.048   5.119
 5263SOL    HW216134   3.009   5.045   5.113
 5264SOL     OW16135   3.454   5.353   5.349
 5264SOL    HW116136   3.481   5.387   5.259
 5264SOL    HW216137   3.533   5.315   5.395
 5265SOL     OW16138   2.973   4.919   4.824
 5265SOL    HW116139   2.933   4.963   4.905
 5265SOL    HW216140   2.932   4.956   4.741
 5266SOL     OW16141   3.500   4.823   4.803
 5266SOL    HW116142   3.505   4.904   4.862
 5266SOL    HW216143   3.414   4.825   4.752
 5267SOL     OW16144   2.777   3.813   5.126
 5267SOL    HW116145   2.802   3.793   5.031
 5267SOL    HW216146   2.849   3.869   5.168
 5268SOL     OW16147   2.842   4.840   5.443
 5268SOL    HW116148   2.743   4.846   5.453
 5268SOL    HW216149   2.865   4.760   5.387
 5269SOL     OW16150   2.567   4.774   4.092
 5269SOL    HW116151   2.553   4.781   4.191
 5269SOL    HW216152   2.651   4.723   4.074
 5270SOL     OW16153   2.272   4.537   4.975
 5270SOL    HW116154   2.358   4.549   5.025
 5270SOL    HW216155   2.230   4.450   5.002
 5271SOL     OW16156   3.136   4.110   4.986
 5271SOL    HW116157   3.157   4.184   5.050
 5271SOL    HW216158   3.047   4.127   4.943
 5272SOL     OW16159   1.926   5.288   5.055
 5272SOL    HW116160   1.880   5.370   5.021
 5272SOL    HW216161   2.024   5.307   5.064
 5273SOL     OW16162   2.229   4.824   4.225
 5273SOL    HW116163   2.222   4.907   4.169
 5273SOL    HW216164   2.233   4.744   4.165
 5274SOL     OW16165   2.428   4.261   4.589
 5274SOL    HW116166   2.440   4.327   4.515
 5274SOL    HW216167   2.474   4.295   4.672
 5275SOL     OW16168   3.114   5.072   4.112
 5275SOL    HW116169   3.164   5.149   4.152
 5275SOL    HW216170   3.019   5.074   4.144
 5276SOL     OW16171   3.134   5.169   4.866
 5276SOL    HW116172   3.181   5.182   4.953
 5276SOL    HW216173   3.068   5.095   4.875
 5277SOL     OW16174   3.444   4.363   4.196
 5277SOL    HW116175   3.413   4.424   4.269
 5277SOL    HW216176   3.494   4.415   4.127
 5278SOL     OW16177   2.216   5.234   5.053
 5278SOL    HW116178   2.195   5.190   4.966
 5278SOL    HW216179   2.313   5.260   5.056
 5279SOL     OW16180   2.264   4.475   5.322
 5279SOL    HW116181   2.332   4.530   5.275
 5279SOL    HW216182   2.304   4.387   5.349
 5280SOL     OW16183   3.449   4.503   5.394
 5280SOL    HW116184   3.357   4.541   5.389
 5280SOL    HW216185   3.509   4.550   5.329
 5281SOL     OW16186   2.875   3.829   5.494
 5281SOL    HW116187   2.881   3.914   5.442
 5281SOL    HW216188   2.907   3.753   5.437
 5282SOL     OW16189   2.366   3.774   5.464
 5282SOL    HW116190   2.324   3.717   5.394
 5282SOL    HW216191   2.300   3.843   5.496
 5283SOL     OW16192   2.435   4.594   4.753
 5283SOL    HW116193   2.479   4.683   4.744
 5283SOL    HW216194   2.372   4.594   4.830
 5284SOL     OW16195   3.222   4.586   4.769
 5284SOL    HW116196   3.147   4.586   4.703
 5284SOL    HW216197   3.259   4.494   4.778
 5285SOL     OW16198   3.071   4.249   3.999
 5285SOL    HW116199   3.084   4.165   4.053
 5285SOL    HW216200   3.042   4.323   4.059
 5286SOL     OW16201   2.169   3.937   4.955
 5286SOL    HW116202   2.146   3.974   5.045
 5286SOL    HW216203   2.139   3.842   4.949
 5287SOL     OW16204   1.899   5.034   5.006
 5287SOL    HW116205   1.952   4.985   5.074
 5287SOL    HW216206   1.921   5.132   5.011
 5288SOL     OW16207   2.594   4.358   4.788
 5288SOL    HW116208   2.653   4.332   4.712
 5288SOL    HW216209   2.566   4.454   4.777
 5289SOL     OW16210   3.590   4.659   5.578
 5289SOL    HW116211   3.544   4.652   5.489
 5289SOL    HW216212   3.528   4.703   5.644
 5290SOL     OW16213   2.169   3.787   4.342
 5290SOL    HW116214   2.158   3.881   4.375
 5290SOL    HW216215   2.164   3.724   4.419
 5291SOL     OW16216   3.484   4.091   4.098
 5291SOL    HW116217   3.486   4.015   4.162
 5291SOL    HW216218   3.436   4.168   4.138
 5292SOL     OW16219   2.885   4.490   4.690
 5292SOL    HW116220   2.900   4.511   4.786
 5292SOL    HW216221   2.855   4.395   4.681
 5293SOL     OW16222   2.842   5.297   5.424
 5293SOL    HW116223   2.822   5.341   5.336
 5293SOL    HW216224   2.881   5.206   5.408
 5294SOL     OW16225   3.721   5.242   5.329
 5294SOL    HW116226   3.735   5.269   5.234
 5294SOL    HW216227   3.804   5.264   5.382
 5295SOL     OW16228   2.212   4.622   5.528
 5295SOL    HW116229   2.288   4.666   5.576
 5295SOL    HW216230   2.247   4.575   5.446
 5296SOL     OW16231   3.402   3.998   3.849
 5296SOL    HW116232   3.341   3.923   3.872
 5296SOL    HW216233   3.424   4.050   3.932
 5297SOL     OW16234   3.165   4.562   3.766
 5297SOL    HW116235   3.199   4.469   3.781
 5297SOL    HW216236   3.183   4.589   3.671
 5298SOL     OW16237   2.930   5.057   4.573
 5298SOL    HW116238   2.937   4.973   4.518
 5298SOL    HW216239   2.992   5.126   4.537
 5299SOL     OW16240   2.181   4.534   4.673
 5299SOL    HW116241   2.274   4.570   4.678
 5299SOL    HW216242   2.175   4.449   4.725
 5300SOL     OW16243   2.201   4.233   4.730
 5300SOL    HW116244   2.149   4.150   4.713
 5300SOL    HW216245   2.278   4.238   4.666
 5301SOL     OW16246   3.000   4.104   5.402
 5301SOL    HW116247   2.955   4.167   5.466
 5301SOL    HW216248   3.093   4.135   5.385
 5302SOL     OW16249   3.022   3.931   5.201
 5302SOL    HW116250   3.022   3.995   5.278
 5302SOL    HW216251   3.050   3.979   5.118
 5303SOL     OW16252   1.870   5.050   3.924
 5303SOL    HW116253   1.777   5.071   3.893
 5303SOL    HW216254   1.880   4.951   3.937
 5304SOL     OW16255   1.950   5.525   4.651
 5304SOL    HW116256   1.908   5.439   4.624
 5304SOL    HW216257   2.044   5.528   4.617
 5305SOL     OW16258   2.366   5.292   4.634
 5305SOL    HW116259   2.432   5.366   4.643
 5305SOL    HW216260   2.410   5.213   4.592
 5306SOL     OW16261   2.864   4.520   4.962
 5306SOL    HW116262   2.905   4.488   5.048
 5306SOL    HW216263   2.768   4.493   4.959
 5307SOL     OW16264   1.902   4.268   4.838
 5307SOL    HW116265   1.987   4.235   4.797
 5307SOL    HW216266   1.915   4.283   4.936
 5308SOL     OW16267   2.051   4.244   5.446
 5308SOL    HW116268   2.110   4.204   5.376
 5308SOL    HW216269   1.993   4.315   5.405
 5309SOL     OW16270   3.231   4.674   5.384
 5309SOL    HW116271   3.270   4.763   5.404
 5309SOL    HW216272   3.241   4.654   5.287
 5310SOL     OW16273   2.677   4.296   4.049
 5310SOL    HW116274   2.684   4.207   4.003
 5310SOL    HW216275   2.583   4.330   4.041
 5311SOL     OW16276   3.519   4.328   4.930
 5311SOL    HW116277   3.481   4.259   4.992
 5311SOL    HW216278   3.601   4.292   4.886
 5312SOL     OW16279   2.114   5.288   5.468
 5312SOL    HW116280   2.084   5.345   5.544
 5312SOL    HW216281   2.107   5.191   5.494
 5313SOL     OW16282   2.533   4.188   4.993
 5313SOL    HW116283   2.499   4.099   4.963
 5313SOL    HW216284   2.559   4.242   4.913
 5314SOL     OW16285   2.792   5.402   5.189
 5314SOL    HW116286   2.768   5.384   5.094
 5314SOL    HW216287   2.822   5.496   5.199
 5315SOL     OW16288   2.335   4.224   3.915
 5315SOL    HW116289   2.396   4.304   3.919
 5315SOL    HW216290   2.240   4.255   3.922
 5316SOL     OW16291   2.021   4.861   5.190
 5316SOL    HW116292   2.043   4.800   5.266
 5316SOL    HW216293   2.031   4.812   5.104
 5317SOL     OW16294   3.209   4.783   4.958
 5317SOL    HW116295   3.233   4.720   4.884
 5317SOL    HW216296   3.119   4.823   4.940
 5318SOL     OW16297   3.164   4.579   4.033
 5318SOL    HW116298   3.078   4.548   4.075
 5318SOL    HW216299   3.160   4.565   3.934
 5319SOL     OW16300   3.621   5.471   4.878
 5319SOL    HW116301   3.682   5.501   4.805
 5319SOL    HW216302   3.583   5.382   4.856
 5320SOL     OW16303   1.945   4.982   4.746
 5320SOL    HW116304   1.940   4.981   4.846
 5320SOL    HW216305   1.862   4.941   4.708
 5321SOL     OW16306   2.550   5.386   5.440
 5321SOL    HW116307   2.494   5.467   5.449
 5321SOL    HW216308   2.602   5.390   5.354
 5322SOL     OW16309   3.588   3.859   4.247
 5322SOL    HW116310   3.661   3.842   4.180
 5322SOL    HW216311   3.557   3.772   4.285
 5323SOL     OW16312   1.992   5.518   5.575
 5323SOL    HW116313   1.951   5.444   5.628
 5323SOL    HW216314   2.056   5.569   5.633
 5324SOL     OW16315   3.142   4.651   4.396
 5324SOL    HW116316   3.202   4.570   4.398
 5324SOL    HW216317   3.182   4.720   4.336
 5325SOL     OW16318   2.692   4.997   5.146
 5325SOL    HW116319   2.687   5.030   5.241
 5325SOL    HW216320   2.606   5.016   5.100
 5326SOL     OW16321   2.534   5.340   3.878
 5326SOL    HW116322   2.543   5.350   3.779
 5326SOL    HW216323   2.494   5.251   3.899
 5327SOL     OW16324   3.512   5.444   5.118
 5327SOL    HW116325   3.565   5.454   5.034
 5327SOL    HW216326   3.485   5.534   5.152
 5328SOL     OW16327   3.703   3.899   4.687
 5328SOL    HW116328   3.742   3.814   4.651
 5328SOL    HW216329   3.605   3.901   4.668
 5329SOL     OW16330   2.125   4.050   4.444
 5329SOL    HW116331   2.046   4.101   4.410
 5329SOL    HW216332   2.116   4.035   4.542
 5330SOL     OW16333   3.056   5.336   3.755
 5330SOL    HW116334   3.062   5.243   3.792
 5330SOL    HW216335   2.997   5.336   3.675
 5331SOL     OW16336   2.684   4.726   5.096
 5331SOL    HW116337   2.724   4.725   5.004
 5331SOL    HW216338   2.694   4.818   5.136
 5332SOL     OW16339   2.778   4.634   4.015
 5332SOL    HW116340   2.841   4.672   3.947
 5332SOL    HW216341   2.818   4.551   4.054
 5333SOL     OW16342   3.366   5.331   3.768
 5333SOL    HW116343   3.274   5.368   3.775
 5333SOL    HW216344   3.404   5.351   3.678
 5334SOL     OW16345   2.234   5.012   5.214
 5334SOL    HW116346   2.221   5.105   5.180
 5334SOL    HW216347   2.150   4.960   5.201
 5335SOL     OW16348   3.476   5.016   5.013
 5335SOL    HW116349   3.536   5.019   5.093
 5335SOL    HW216350   3.401   5.080   5.026
 5336SOL     OW16351   2.901   4.822   4.420
 5336SOL    HW116352   2.831   4.775   4.474
 5336SOL    HW216353   2.960   4.754   4.377
 5337SOL     OW16354   2.876   3.960   4.695
 5337SOL    HW116355   2.868   3.924   4.602
 5337SOL    HW216356   2.874   3.884   4.760
 5338SOL     OW16357   2.452   5.211   4.215
 5338SOL    HW116358   2.494   5.153   4.145
 5338SOL    HW216359   2.408   5.290   4.171
 5339SOL     OW16360   3.571   4.109   5.105
 5339SOL    HW116361   3.644   4.178   5.109
 5339SOL    HW216362   3.599   4.034   5.046
 5340SOL     OW16363   2.117   5.072   4.014
 5340SOL    HW116364   2.021   5.073   3.987
 5340SOL    HW216365   2.129   5.125   4.098
 5341SOL     OW16366   1.967   4.737   5.450
 5341SOL    HW116367   1.890   4.704   5.504
 5341SOL    HW216368   2.052   4.707   5.492
 5342SOL     OW16369   2.534   3.927   5.213
 5342SOL    HW116370   2.624   3.911   5.173
 5342SOL    HW216371   2.542   3.932   5.312
 5343SOL     OW16372   1.937   4.069   3.757
 5343SOL    HW116373   1.845   4.041   3.728
 5343SOL    HW216374   1.968   4.146   3.701
 5344SOL     OW16375   3.302   4.580   5.122
 5344SOL    HW116376   3.245   4.632   5.059
 5344SOL    HW216377   3.398   4.592   5.098
 5345SOL     OW16378   1.934   3.890   4.042
 5345SOL    HW116379   1.917   3.973   3.988
 5345SOL    HW216380   2.024   3.853   4.020
 5346SOL     OW16381   3.045   5.059   3.843
 5346SOL    HW116382   2.946   5.048   3.845
 5346SOL    HW216383   3.079   5.074   3.936
 5347SOL     OW16384   2.475   4.566   5.155
 5347SOL    HW116385   2.531   4.647   5.138
 5347SOL    HW216386   2.534   4.486   5.158
 5348SOL     OW16387   2.578   4.289   5.432
 5348SOL    HW116388   2.597   4.354   5.506
 5348SOL    HW216389   2.638   4.209   5.441
 5349SOL     OW16390   3.312   4.944   5.357
 5349SOL    HW116391   3.303   4.934   5.456
 5349SOL    HW216392   3.408   4.937   5.331
 5350SOL     OW16393   2.252   5.465   5.284
 5350SOL    HW116394   2.161   5.506   5.282
 5350SOL    HW216395   2.245   5.371   5.316
 5351SOL     OW16396   3.536   4.607   4.978
 5351SOL    HW116397   3.509   4.518   4.941
 5351SOL    HW216398   3.537   4.675   4.905
 5352SOL     OW16399   3.087   4.049   4.173
 5352SOL    HW116400   3.152   3.975   4.162
 5352SOL    HW216401   3.107   4.099   4.257
 5353SOL     OW16402   2.456   4.469   4.376
 5353SOL    HW116403   2.506   4.554   4.357
 5353SOL    HW216404   2.368   4.471   4.328
 5354SOL     OW16405   3.639   4.066   5.366
 5354SOL    HW116406   3.622   4.097   5.272
 5354SOL    HW216407   3.555   4.029   5.404
 5355SOL     OW16408   3.592   4.658   5.241
 5355SOL    HW116409   3.630   4.749   5.256
 5355SOL    HW216410   3.584   4.641   5.142
 5356SOL     OW16411   2.721   5.098   3.740
 5356SOL    HW116412   2.675   5.113   3.828
 5356SOL    HW216413   2.765   5.183   3.710
 5357SOL     OW16414   2.523   5.514   4.677
 5357SOL    HW116415   2.477   5.602   4.664
 5357SOL    HW216416   2.622   5.526   4.670
 5358SOL     OW16417   2.721   4.680   4.585
 5358SOL    HW116418   2.775   4.611   4.633
 5358SOL    HW216419   2.689   4.749   4.651
 5359SOL     OW16420   2.945   4.708   3.811
 5359SOL    HW116421   2.922   4.761   3.729
 5359SOL    HW216422   3.026   4.652   3.792
 5360SOL     OW16423   3.723   5.293   4.575
 5360SOL    HW116424   3.652   5.281   4.505
 5360SOL    HW216425   3.724   5.214   4.635
 5361SOL     OW16426   2.083   5.038   5.568
 5361SOL    HW116427   2.018   4.965   5.547
 5361SOL    HW216428   2.087   5.052   5.666
 5362SOL     OW16429   1.941   4.964   4.377
 5362SOL    HW116430   1.940   4.917   4.465
 5362SOL    HW216431   2.023   4.936   4.326
 5363SOL     OW16432   2.534   5.115   5.348
 5363SOL    HW116433   2.456   5.065   5.386
 5363SOL    HW216434   2.531   5.210   5.379
 5364SOL     OW16435   3.686   3.916   4.951
 5364SOL    HW116436   3.682   3.826   4.995
 5364SOL    HW216437   3.689   3.905   4.852
 5365SOL     OW16438   2.290   4.148   4.244
 5365SOL    HW116439   2.320   4.076   4.182
 5365SOL    HW216440   2.251   4.108   4.327
 5366SOL     OW16441   3.567   5.211   4.828
 5366SOL    HW116442   3.474   5.186   4.801
 5366SOL    HW216443   3.593   5.161   4.910
 5367SOL     OW16444   2.179   4.271   5.004
 5367SOL    HW116445   2.217   4.212   5.076
 5367SOL    HW216446   2.219   4.245   4.916
 5368SOL     OW16447   2.674   5.310   4.411
 5368SOL    HW116448   2.706   5.320   4.317
 5368SOL    HW216449   2.595   5.248   4.413
 5369SOL     OW16450   3.286   3.938   4.836
 5369SOL    HW116451   3.338   3.873   4.891
 5369SOL    HW216452   3.237   4.001   4.897
 5370SOL     OW16453   2.863   3.758   4.878
 5370SOL    HW116454   2.800   3.686   4.847
 5370SOL    HW216455   2.956   3.722   4.878
 5371SOL     OW16456   2.632   5.054   4.025
 5371SOL    HW116457   2.586   4.967   4.042
 5371SOL    HW216458   2.723   5.051   4.066
 5372SOL     OW16459   2.480   5.291   5.008
 5372SOL    HW116460   2.475   5.373   5.065
 5372SOL    HW216461   2.569   5.288   4.963
 5373SOL     OW16462   3.214   3.776   3.892
 5373SOL    HW116463   3.249   3.735   3.808
 5373SOL    HW216464   3.124   3.738   3.912
 5374SOL     OW16465   3.162   4.177   4.415
 5374SOL    HW116466   3.103   4.257   4.419
 5374SOL    HW216467   3.177   4.142   4.508
 5375SOL     OW16468   3.455   3.945   4.606
 5375SOL    HW116469   3.371   3.944   4.660
 5375SOL    HW216470   3.457   4.028   4.550
 5376SOL     OW16471   1.901   4.801   4.024
 5376SOL    HW116472   2.000   4.790   4.015
 5376SOL    HW216473   1.861   4.715   4.056
 5377SOL     OW16474   2.737   5.370   4.061
 5377SOL    HW116475   2.660   5.335   4.007
 5377SOL    HW216476   2.705   5.441   4.123
 5378SOL     OW16477   2.092   4.352   5.699
 5378SOL    HW116478   1.999   4.350   5.736
 5378SOL    HW216479   2.093   4.313   5.607
 5379SOL     OW16480   2.087   3.999   6.582
 5379SOL    HW116481   2.122   3.982   6.674
 5379SOL    HW216482   1.999   3.954   6.570
 5380SOL     OW16483   1.881   4.092   6.233
 5380SOL    HW116484   1.799   4.135   6.272
 5380SOL    HW216485   1.853   4.019   6.170
 5381SOL     OW16486   2.431   4.999   6.751
 5381SOL    HW116487   2.338   4.992   6.714
 5381SOL    HW216488   2.442   5.088   6.795
 5382SOL     OW16489   3.417   5.235   6.289
 5382SOL    HW116490   3.360   5.219   6.370
 5382SOL    HW216491   3.358   5.245   6.209
 5383SOL     OW16492   2.997   4.427   6.303
 5383SOL    HW116493   3.054   4.505   6.278
 5383SOL    HW216494   2.937   4.453   6.379
 5384SOL     OW16495   3.617   4.331   5.817
 5384SOL    HW116496   3.605   4.318   5.718
 5384SOL    HW216497   3.587   4.250   5.866
 5385SOL     OW16498   2.630   4.868   6.609
 5385SOL    HW116499   2.552   4.885   6.669
 5385SOL    HW216500   2.664   4.955   6.573
 5386SOL     OW16501   2.547   4.736   6.251
 5386SOL    HW116502   2.616   4.720   6.321
 5386SOL    HW216503   2.474   4.793   6.289
 5387SOL     OW16504   2.197   5.159   6.647
 5387SOL    HW116505   2.119   5.128   6.594
 5387SOL    HW216506   2.255   5.217   6.590
 5388SOL     OW16507   3.465   4.171   6.323
 5388SOL    HW116508   3.391   4.217   6.273
 5388SOL    HW216509   3.516   4.239   6.376
 5389SOL     OW16510   2.093   5.437   6.069
 5389SOL    HW116511   2.127   5.514   6.123
 5389SOL    HW216512   2.137   5.437   5.979
 5390SOL     OW16513   2.092   5.158   6.124
 5390SOL    HW116514   2.066   5.254   6.124
 5390SOL    HW216515   2.021   5.104   6.169
 5391SOL     OW16516   2.102   4.815   6.472
 5391SOL    HW116517   2.116   4.731   6.524
 5391SOL    HW216518   2.047   4.879   6.527
 5392SOL     OW16519   2.468   4.688   5.709
 5392SOL    HW116520   2.475   4.772   5.655
 5392SOL    HW216521   2.514   4.701   5.797
 5393SOL     OW16522   1.984   4.367   6.149
 5393SOL    HW116523   1.939   4.279   6.166
 5393SOL    HW216524   1.983   4.421   6.233
 5394SOL     OW16525   3.704   5.491   5.945
 5394SOL    HW116526   3.758   5.462   6.025
 5394SOL    HW216527   3.734   5.581   5.916
 5395SOL     OW16528   1.889   5.320   5.703
 5395SOL    HW116529   1.870   5.224   5.724
 5395SOL    HW216530   1.856   5.378   5.778
 5396SOL     OW16531   3.551   4.646   6.198
 5396SOL    HW116532   3.646   4.617   6.206
 5396SOL    HW216533   3.543   4.711   6.123
 5397SOL     OW16534   3.503   4.832   6.018
 5397SOL    HW116535   3.589   4.834   5.966
 5397SOL    HW216536   3.517   4.879   6.106
 5398SOL     OW16537   2.475   5.089   6.312
 5398SOL    HW116538   2.426   5.002   6.321
 5398SOL    HW216539   2.452   5.132   6.225
 5399SOL     OW16540   2.671   3.728   6.088
 5399SOL    HW116541   2.711   3.819   6.079
 5399SOL    HW216542   2.571   3.736   6.094
 5400SOL     OW16543   3.387   4.723   5.776
 5400SOL    HW116544   3.324   4.647   5.789
 5400SOL    HW216545   3.435   4.741   5.862
 5401SOL     OW16546   3.328   5.141   6.539
 5401SOL    HW116547   3.269   5.147   6.619
 5401SOL    HW216548   3.313   5.053   6.493
 5402SOL     OW16549   3.529   5.438   6.158
 5402SOL    HW116550   3.488   5.415   6.070
 5402SOL    HW216551   3.511   5.364   6.223
 5403SOL     OW16552   2.460   4.453   5.856
 5403SOL    HW116553   2.484   4.522   5.788
 5403SOL    HW216554   2.382   4.486   5.910
 5404SOL     OW16555   3.143   4.069   6.530
 5404SOL    HW116556   3.057   4.019   6.517
 5404SOL    HW216557   3.205   4.015   6.586
 5405SOL     OW16558   3.438   5.386   5.893
 5405SOL    HW116559   3.527   5.432   5.896
 5405SOL    HW216560   3.417   5.362   5.798
 5406SOL     OW16561   2.853   4.134   6.828
 5406SOL    HW116562   2.776   4.168   6.882
 5406SOL    HW216563   2.819   4.083   6.749
 5407SOL     OW16564   2.903   4.425   6.015
 5407SOL    HW116565   2.929   4.421   6.111
 5407SOL    HW216566   2.818   4.374   6.001
 5408SOL     OW16567   1.938   4.535   6.375
 5408SOL    HW116568   2.037   4.523   6.384
 5408SOL    HW216569   1.914   4.630   6.396
 5409SOL     OW16570   2.727   4.072   5.781
 5409SOL    HW116571   2.786   4.135   5.732
 5409SOL    HW216572   2.746   3.978   5.752
 5410SOL     OW16573   3.224   4.868   6.131
 5410SOL    HW116574   3.307   4.839   6.083
 5410SOL    HW216575   3.175   4.935   6.075
 5411SOL     OW16576   2.412   3.920   6.471
 5411SOL    HW116577   2.407   3.915   6.571
 5411SOL    HW216578   2.414   4.016   6.442
 5412SOL     OW16579   2.870   5.180   6.063
 5412SOL    HW116580   2.824   5.252   6.011
 5412SOL    HW216581   2.866   5.200   6.161
 5413SOL     OW16582   2.213   5.525   6.439
 5413SOL    HW116583   2.263   5.439   6.445
 5413SOL    HW216584   2.278   5.602   6.436
 5414SOL     OW16585   3.657   4.790   6.459
 5414SOL    HW116586   3.595   4.775   6.383
 5414SOL    HW216587   3.605   4.801   6.544
 5415SOL     OW16588   2.183   4.667   5.828
 5415SOL    HW116589   2.265   4.706   5.786
 5415SOL    HW216590   2.156   4.585   5.779
 5416SOL     OW16591   3.320   4.459   6.314
 5416SOL    HW116592   3.315   4.394   6.389
 5416SOL    HW216593   3.400   4.518   6.327
 5417SOL     OW16594   2.973   5.500   5.823
 5417SOL    HW116595   2.913   5.438   5.873
 5417SOL    HW216596   3.004   5.456   5.738
 5418SOL     OW16597   3.494   5.101   5.667
 5418SOL    HW116598   3.462   5.195   5.657
 5418SOL    HW216599   3.418   5.038   5.655
 5419SOL     OW16600   2.326   5.467   5.909
 5419SOL    HW116601   2.359   5.506   5.995
 5419SOL    HW216602   2.402   5.460   5.844
 5420SOL     OW16603   3.262   3.831   6.012
 5420SOL    HW116604   3.238   3.794   5.922
 5420SOL    HW216605   3.361   3.847   6.016
 5421SOL     OW16606   2.111   5.509   6.827
 5421SOL    HW116607   2.168   5.444   6.877
 5421SOL    HW216608   2.095   5.476   6.734
 5422SOL     OW16609   2.802   5.422   6.490
 5422SOL    HW116610   2.882   5.365   6.511
 5422SOL    HW216611   2.753   5.382   6.413
 5423SOL     OW16612   2.244   4.424   6.066
 5423SOL    HW116613   2.289   4.334   6.063
 5423SOL    HW216614   2.150   4.413   6.099
 5424SOL     OW16615   2.476   3.846   5.703
 5424SOL    HW116616   2.574   3.824   5.710
 5424SOL    HW216617   2.445   3.829   5.610
 5425SOL     OW16618   2.750   5.238   6.781
 5425SOL    HW116619   2.727   5.213   6.687
 5425SOL    HW216620   2.811   5.169   6.820
 5426SOL     OW16621   2.665   5.126   6.510
 5426SOL    HW116622   2.755   5.140   6.468
 5426SOL    HW216623   2.594   5.128   6.439
 5427SOL     OW16624   2.401   3.788   6.098
 5427SOL    HW116625   2.320   3.789   6.156
 5427SOL    HW216626   2.404   3.871   6.043
 5428SOL     OW16627   3.296   4.912   5.627
 5428SOL    HW116628   3.328   4.836   5.684
 5428SOL    HW216629   3.204   4.939   5.657
 5429SOL     OW16630   2.159   3.759   5.757
 5429SOL    HW116631   2.208   3.843   5.736
 5429SOL    HW216632   2.221   3.694   5.802
 5430SOL     OW16633   2.797   3.960   6.066
 5430SOL    HW116634   2.749   4.001   5.988
 5430SOL    HW216635   2.896   3.958   6.047
 5431SOL     OW16636   3.089   5.294   6.379
 5431SOL    HW116637   3.110   5.368   6.314
 5431SOL    HW216638   3.157   5.294   6.452
 5432SOL     OW16639   2.321   4.876   6.327
 5432SOL    HW116640   2.250   4.849   6.392
 5432SOL    HW216641   2.295   4.848   6.234
 5433SOL     OW16642   3.133   5.521   6.177
 5433SOL    HW116643   3.177   5.585   6.113
 5433SOL    HW216644   3.083   5.573   6.247
 5434SOL     OW16645   2.894   4.273   5.602
 5434SOL    HW116646   2.853   4.355   5.563
 5434SOL    HW216647   2.958   4.299   5.675
 5435SOL     OW16648   2.423   3.946   6.733
 5435SOL    HW116649   2.461   3.862   6.770
 5435SOL    HW216650   2.335   3.965   6.777
 5436SOL     OW16651   2.728   4.178   6.228
 5436SOL    HW116652   2.696   4.250   6.166
 5436SOL    HW216653   2.752   4.097   6.175
 5437SOL     OW16654   2.879   3.763   6.339
 5437SOL    HW116655   2.807   3.768   6.270
 5437SOL    HW216656   2.855   3.694   6.408
 5438SOL     OW16657   3.291   4.897   6.453
 5438SOL    HW116658   3.236   4.813   6.446
 5438SOL    HW216659   3.317   4.926   6.361
 5439SOL     OW16660   3.328   4.314   6.578
 5439SOL    HW116661   3.298   4.219   6.585
 5439SOL    HW216662   3.401   4.330   6.644
 5440SOL     OW16663   3.719   4.557   5.963
 5440SOL    HW116664   3.761   4.493   6.027
 5440SOL    HW216665   3.681   4.506   5.885
 5441SOL     OW16666   2.350   5.109   5.760
 5441SOL    HW116667   2.263   5.094   5.807
 5441SOL    HW216668   2.333   5.135   5.665
 5442SOL     OW16669   3.526   5.004   6.243
 5442SOL    HW116670   3.625   5.012   6.257
 5442SOL    HW216671   3.481   5.088   6.274
 5443SOL     OW16672   3.252   4.299   5.664
 5443SOL    HW116673   3.198   4.278   5.745
 5443SOL    HW216674   3.343   4.258   5.673
 5444SOL     OW16675   2.389   3.980   5.914
 5444SOL    HW116676   2.416   3.921   5.839
 5444SOL    HW216677   2.389   4.075   5.883
 5445SOL     OW16678   2.973   4.919   6.686
 5445SOL    HW116679   2.933   4.963   6.767
 5445SOL    HW216680   2.932   4.956   6.603
 5446SOL     OW16681   3.500   4.823   6.665
 5446SOL    HW116682   3.505   4.904   6.724
 5446SOL    HW216683   3.414   4.825   6.614
 5447SOL     OW16684   2.567   4.774   5.954
 5447SOL    HW116685   2.553   4.781   6.053
 5447SOL    HW216686   2.651   4.723   5.936
 5448SOL     OW16687   2.229   4.824   6.087
 5448SOL    HW116688   2.222   4.907   6.031
 5448SOL    HW216689   2.233   4.744   6.027
 5449SOL     OW16690   2.428   4.261   6.451
 5449SOL    HW116691   2.440   4.327   6.377
 5449SOL    HW216692   2.474   4.295   6.534
 5450SOL     OW16693   3.114   5.072   5.974
 5450SOL    HW116694   3.164   5.149   6.014
 5450SOL    HW216695   3.019   5.074   6.006
 5451SOL     OW16696   3.134   5.169   6.728
 5451SOL    HW116697   3.181   5.182   6.815
 5451SOL    HW216698   3.068   5.095   6.737
 5452SOL     OW16699   3.444   4.363   6.058
 5452SOL    HW116700   3.413   4.424   6.131
 5452SOL    HW216701   3.494   4.415   5.989
 5453SOL     OW16702   2.435   4.594   6.615
 5453SOL    HW116703   2.479   4.683   6.606
 5453SOL    HW216704   2.372   4.594   6.692
 5454SOL     OW16705   3.222   4.586   6.631
 5454SOL    HW116706   3.147   4.586   6.565
 5454SOL    HW216707   3.259   4.494   6.640
 5455SOL     OW16708   3.071   4.249   5.861
 5455SOL    HW116709   3.084   4.165   5.915
 5455SOL    HW216710   3.042   4.323   5.921
 5456SOL     OW16711   2.594   4.358   6.650
 5456SOL    HW116712   2.653   4.332   6.574
 5456SOL    HW216713   2.566   4.454   6.639
 5457SOL     OW16714   2.169   3.787   6.204
 5457SOL    HW116715   2.158   3.881   6.237
 5457SOL    HW216716   2.164   3.724   6.281
 5458SOL     OW16717   3.484   4.091   5.960
 5458SOL    HW116718   3.486   4.015   6.024
 5458SOL    HW216719   3.436   4.168   6.000
 5459SOL     OW16720   2.885   4.490   6.552
 5459SOL    HW116721   2.900   4.511   6.648
 5459SOL    HW216722   2.855   4.395   6.543
 5460SOL     OW16723   3.402   3.998   5.711
 5460SOL    HW116724   3.341   3.923   5.734
 5460SOL    HW216725   3.424   4.050   5.794
 5461SOL     OW16726   3.165   4.562   5.628
 5461SOL    HW116727   3.199   4.469   5.643
 5461SOL    HW216728   3.183   4.589   5.533
 5462SOL     OW16729   2.930   5.057   6.435
 5462SOL    HW116730   2.937   4.973   6.380
 5462SOL    HW216731   2.992   5.126   6.399
 5463SOL     OW16732   2.181   4.534   6.535
 5463SOL    HW116733   2.274   4.570   6.540
 5463SOL    HW216734   2.175   4.449   6.587
 5464SOL     OW16735   2.201   4.233   6.592
 5464SOL    HW116736   2.149   4.150   6.575
 5464SOL    HW216737   2.278   4.238   6.528
 5465SOL     OW16738   1.870   5.050   5.786
 5465SOL    HW116739   1.777   5.071   5.755
 5465SOL    HW216740   1.880   4.951   5.799
 5466SOL     OW16741   1.950   5.525   6.513
 5466SOL    HW116742   1.908   5.439   6.486
 5466SOL    HW216743   2.044   5.528   6.479
 5467SOL     OW16744   2.366   5.292   6.496
 5467SOL    HW116745   2.432   5.366   6.505
 5467SOL    HW216746   2.410   5.213   6.454
 5468SOL     OW16747   1.902   4.268   6.700
 5468SOL    HW116748   1.987   4.235   6.659
 5468SOL    HW216749   1.915   4.283   6.798
 5469SOL     OW16750   2.677   4.296   5.911
 5469SOL    HW116751   2.684   4.207   5.865
 5469SOL    HW216752   2.583   4.330   5.903
 5470SOL     OW16753   3.519   4.328   6.792
 5470SOL    HW116754   3.481   4.259   6.854
 5470SOL    HW216755   3.601   4.292   6.748
 5471SOL     OW16756   2.533   4.188   6.855
 5471SOL    HW116757   2.499   4.099   6.825
 5471SOL    HW216758   2.559   4.242   6.775
 5472SOL     OW16759   2.335   4.224   5.777
 5472SOL    HW116760   2.396   4.304   5.781
 5472SOL    HW216761   2.240   4.255   5.784
 5473SOL     OW16762   3.209   4.783   6.820
 5473SOL    HW116763   3.233   4.720   6.746
 5473SOL    HW216764   3.119   4.823   6.802
 5474SOL     OW16765   3.164   4.579   5.895
 5474SOL    HW116766   3.078   4.548   5.937
 5474SOL    HW216767   3.160   4.565   5.796
 5475SOL     OW16768   3.621   5.471   6.740
 5475SOL    HW116769   3.682   5.501   6.667
 5475SOL    HW216770   3.583   5.382   6.718
 5476SOL     OW16771   3.114   5.455   6.714
 5476SOL    HW116772   3.198   5.460   6.660
 5476SOL    HW216773   3.091   5.359   6.732
 5477SOL     OW16774   1.945   4.982   6.608
 5477SOL    HW116775   1.940   4.981   6.708
 5477SOL    HW216776   1.862   4.941   6.570
 5478SOL     OW16777   3.588   3.859   6.109
 5478SOL    HW116778   3.661   3.842   6.042
 5478SOL    HW216779   3.557   3.772   6.147
 5479SOL     OW16780   3.250   5.297   6.063
 5479SOL    HW116781   3.317   5.309   5.989
 5479SOL    HW216782   3.210   5.386   6.086
 5480SOL     OW16783   3.142   4.651   6.258
 5480SOL    HW116784   3.202   4.570   6.260
 5480SOL    HW216785   3.182   4.720   6.198
 5481SOL     OW16786   2.534   5.340   5.740
 5481SOL    HW116787   2.543   5.350   5.641
 5481SOL    HW216788   2.494   5.251   5.761
 5482SOL     OW16789   3.703   3.899   6.549
 5482SOL    HW116790   3.742   3.814   6.513
 5482SOL    HW216791   3.605   3.901   6.530
 5483SOL     OW16792   2.125   4.050   6.306
 5483SOL    HW116793   2.046   4.101   6.272
 5483SOL    HW216794   2.116   4.035   6.404
 5484SOL     OW16795   3.056   5.336   5.617
 5484SOL    HW116796   3.062   5.243   5.654
 5484SOL    HW216797   2.997   5.336   5.537
 5485SOL     OW16798   2.778   4.634   5.877
 5485SOL    HW116799   2.841   4.672   5.809
 5485SOL    HW216800   2.818   4.551   5.916
 5486SOL     OW16801   3.366   5.331   5.630
 5486SOL    HW116802   3.274   5.368   5.637
 5486SOL    HW216803   3.404   5.351   5.540
 5487SOL     OW16804   2.901   4.822   6.282
 5487SOL    HW116805   2.831   4.775   6.336
 5487SOL    HW216806   2.960   4.754   6.239
 5488SOL     OW16807   2.452   5.211   6.077
 5488SOL    HW116808   2.494   5.153   6.007
 5488SOL    HW216809   2.408   5.290   6.033
 5489SOL     OW16810   2.117   5.072   5.876
 5489SOL    HW116811   2.021   5.073   5.849
 5489SOL    HW216812   2.129   5.125   5.960
 5490SOL     OW16813   1.937   4.069   5.619
 5490SOL    HW116814   1.845   4.041   5.590
 5490SOL    HW216815   1.968   4.146   5.563
 5491SOL     OW16816   1.934   3.890   5.904
 5491SOL    HW116817   1.917   3.973   5.850
 5491SOL    HW216818   2.024   3.853   5.882
 5492SOL     OW16819   3.045   5.059   5.705
 5492SOL    HW116820   2.946   5.048   5.707
 5492SOL    HW216821   3.079   5.074   5.798
 5493SOL     OW16822   3.355   5.491   6.545
 5493SOL    HW116823   3.388   5.555   6.476
 5493SOL    HW216824   3.421   5.485   6.620
 5494SOL     OW16825   3.536   4.607   6.840
 5494SOL    HW116826   3.509   4.518   6.803
 5494SOL    HW216827   3.537   4.675   6.767
 5495SOL     OW16828   3.087   4.049   6.035
 5495SOL    HW116829   3.152   3.975   6.024
 5495SOL    HW216830   3.107   4.099   6.119
 5496SOL     OW16831   2.456   4.469   6.238
 5496SOL    HW116832   2.506   4.554   6.219
 5496SOL    HW216833   2.368   4.471   6.190
 5497SOL     OW16834   2.721   5.098   5.602
 5497SOL    HW116835   2.675   5.113   5.690
 5497SOL    HW216836   2.765   5.183   5.572
 5498SOL     OW16837   2.523   5.514   6.539
 5498SOL    HW116838   2.477   5.602   6.526
 5498SOL    HW216839   2.622   5.526   6.532
 5499SOL     OW16840   2.721   4.680   6.447
 5499SOL    HW116841   2.775   4.611   6.495
 5499SOL    HW216842   2.689   4.749   6.513
 5500SOL     OW16843   2.945   4.708   5.673
 5500SOL    HW116844   2.922   4.761   5.591
 5500SOL    HW216845   3.026   4.652   5.654
 5501SOL     OW16846   3.723   5.293   6.437
 5501SOL    HW116847   3.652   5.281   6.367
 5501SOL    HW216848   3.724   5.214   6.497
 5502SOL     OW16849   1.941   4.964   6.239
 5502SOL    HW116850   1.940   4.917   6.327
 5502SOL    HW216851   2.023   4.936   6.188
 5503SOL     OW16852   3.686   3.916   6.813
 5503SOL    HW116853   3.682   3.826   6.857
 5503SOL    HW216854   3.689   3.905   6.714
 5504SOL     OW16855   2.290   4.148   6.106
 5504SOL    HW116856   2.320   4.076   6.044
 5504SOL    HW216857   2.251   4.108   6.189
 5505SOL     OW16858   3.567   5.211   6.690
 5505SOL    HW116859   3.474   5.186   6.663
 5505SOL    HW216860   3.593   5.161   6.772
 5506SOL     OW16861   2.179   4.271   6.866
 5506SOL    HW116862   2.217   4.212   6.938
 5506SOL    HW216863   2.219   4.245   6.778
 5507SOL     OW16864   2.674   5.310   6.273
 5507SOL    HW116865   2.706   5.320   6.179
 5507SOL    HW216866   2.595   5.248   6.275
 5508SOL     OW16867   2.632   5.054   5.887
 5508SOL    HW116868   2.586   4.967   5.904
 5508SOL    HW216869   2.723   5.051   5.928
 5509SOL     OW16870   3.214   3.776   5.754
 5509SOL    HW116871   3.249   3.735   5.670
 5509SOL    HW216872   3.124   3.738   5.774
 5510SOL     OW16873   3.162   4.177   6.277
 5510SOL    HW116874   3.103   4.257   6.281
 5510SOL    HW216875   3.177   4.142   6.370
 5511SOL     OW16876   3.455   3.945   6.468
 5511SOL    HW116877   3.371   3.944   6.522
 5511SOL    HW216878   3.457   4.028   6.412
 5512SOL     OW16879   1.901   4.801   5.886
 5512SOL    HW116880   2.000   4.790   5.877
 5512SOL    HW216881   1.861   4.715   5.918
 5513SOL     OW16882   2.737   5.370   5.923
 5513SOL    HW116883   2.660   5.335   5.869
 5513SOL    HW216884   2.705   5.441   5.985
 5514SOL     OW16885   2.092   6.214   0.113
 5514SOL    HW116886   1.999   6.212   0.150
 5514SOL    HW216887   2.093   6.175   0.021
 5515SOL     OW16888   2.087   5.861   0.996
 5515SOL    HW116889   2.122   5.844   1.088
 5515SOL    HW216890   1.999   5.816   0.984
 5516SOL     OW16891   1.881   5.954   0.647
 5516SOL    HW116892   1.799   5.997   0.686
 5516SOL    HW216893   1.853   5.881   0.584
 5517SOL     OW16894   2.431   6.861   1.165
 5517SOL    HW116895   2.338   6.854   1.128
 5517SOL    HW216896   2.442   6.950   1.209
 5518SOL     OW16897   3.417   7.097   0.703
 5518SOL    HW116898   3.360   7.081   0.784
 5518SOL    HW216899   3.358   7.107   0.623
 5519SOL     OW16900   2.997   6.289   0.717
 5519SOL    HW116901   3.054   6.367   0.692
 5519SOL    HW216902   2.937   6.315   0.793
 5520SOL     OW16903   3.617   6.193   0.231
 5520SOL    HW116904   3.605   6.180   0.132
 5520SOL    HW216905   3.587   6.112   0.280
 5521SOL     OW16906   2.630   6.730   1.023
 5521SOL    HW116907   2.552   6.747   1.083
 5521SOL    HW216908   2.664   6.817   0.987
 5522SOL     OW16909   2.712   6.384   1.823
 5522SOL    HW116910   2.708   6.460   1.888
 5522SOL    HW216911   2.734   6.420   1.732
 5523SOL     OW16912   2.547   6.598   0.665
 5523SOL    HW116913   2.616   6.582   0.735
 5523SOL    HW216914   2.474   6.655   0.703
 5524SOL     OW16915   2.548   6.747   1.803
 5524SOL    HW116916   2.608   6.826   1.817
 5524SOL    HW216917   2.462   6.778   1.762
 5525SOL     OW16918   2.197   7.021   1.061
 5525SOL    HW116919   2.119   6.990   1.008
 5525SOL    HW216920   2.255   7.079   1.004
 5526SOL     OW16921   3.322   7.091   1.339
 5526SOL    HW116922   3.346   7.185   1.365
 5526SOL    HW216923   3.306   7.037   1.421
 5527SOL     OW16924   2.300   5.978   1.499
 5527SOL    HW116925   2.382   5.922   1.508
 5527SOL    HW216926   2.219   5.920   1.503
 5528SOL     OW16927   3.465   6.033   0.737
 5528SOL    HW116928   3.391   6.079   0.687
 5528SOL    HW216929   3.516   6.101   0.790
 5529SOL     OW16930   2.093   7.299   0.483
 5529SOL    HW116931   2.127   7.376   0.537
 5529SOL    HW216932   2.137   7.299   0.393
 5530SOL     OW16933   2.989   6.927   1.690
 5530SOL    HW116934   3.036   6.927   1.778
 5530SOL    HW216935   2.941   6.840   1.679
 5531SOL     OW16936   2.092   7.020   0.538
 5531SOL    HW116937   2.066   7.116   0.538
 5531SOL    HW216938   2.021   6.966   0.583
 5532SOL     OW16939   2.102   6.677   0.886
 5532SOL    HW116940   2.116   6.593   0.938
 5532SOL    HW216941   2.047   6.741   0.941
 5533SOL     OW16942   2.482   7.372   1.439
 5533SOL    HW116943   2.390   7.355   1.474
 5533SOL    HW216944   2.510   7.464   1.465
 5534SOL     OW16945   2.468   6.550   0.123
 5534SOL    HW116946   2.475   6.634   0.069
 5534SOL    HW216947   2.514   6.563   0.211
 5535SOL     OW16948   3.456   5.700   1.480
 5535SOL    HW116949   3.438   5.767   1.408
 5535SOL    HW216950   3.453   5.746   1.569
 5536SOL     OW16951   1.984   6.229   0.563
 5536SOL    HW116952   1.939   6.141   0.580
 5536SOL    HW216953   1.983   6.283   0.647
 5537SOL     OW16954   3.704   7.353   0.359
 5537SOL    HW116955   3.758   7.324   0.439
 5537SOL    HW216956   3.734   7.443   0.330
 5538SOL     OW16957   1.889   7.182   0.117
 5538SOL    HW116958   1.870   7.086   0.138
 5538SOL    HW216959   1.856   7.240   0.192
 5539SOL     OW16960   3.551   6.508   0.612
 5539SOL    HW116961   3.646   6.479   0.620
 5539SOL    HW216962   3.543   6.573   0.537
 5540SOL     OW16963   3.503   6.694   0.432
 5540SOL    HW116964   3.589   6.696   0.380
 5540SOL    HW216965   3.517   6.741   0.520
 5541SOL     OW16966   1.975   6.323   1.597
 5541SOL    HW116967   2.063   6.310   1.642
 5541SOL    HW216968   1.962   6.420   1.575
 5542SOL     OW16969   2.475   6.951   0.726
 5542SOL    HW116970   2.426   6.864   0.735
 5542SOL    HW216971   2.452   6.994   0.639
 5543SOL     OW16972   3.155   6.814   1.423
 5543SOL    HW116973   3.192   6.741   1.365
 5543SOL    HW216974   3.207   6.819   1.508
 5544SOL     OW16975   2.671   5.590   0.502
 5544SOL    HW116976   2.711   5.681   0.493
 5544SOL    HW216977   2.571   5.598   0.508
 5545SOL     OW16978   2.059   6.562   1.264
 5545SOL    HW116979   2.148   6.517   1.250
 5545SOL    HW216980   1.986   6.497   1.245
 5546SOL     OW16981   3.387   6.585   0.190
 5546SOL    HW116982   3.324   6.509   0.203
 5546SOL    HW216983   3.435   6.603   0.276
 5547SOL     OW16984   3.049   7.378   1.616
 5547SOL    HW116985   3.073   7.438   1.540
 5547SOL    HW216986   3.056   7.283   1.586
 5548SOL     OW16987   2.179   5.837   1.801
 5548SOL    HW116988   2.250   5.908   1.807
 5548SOL    HW216989   2.091   5.876   1.829
 5549SOL     OW16990   3.328   7.003   0.953
 5549SOL    HW116991   3.269   7.009   1.033
 5549SOL    HW216992   3.313   6.915   0.907
 5550SOL     OW16993   3.529   7.300   0.572
 5550SOL    HW116994   3.488   7.277   0.484
 5550SOL    HW216995   3.511   7.226   0.637
 5551SOL     OW16996   2.460   6.315   0.270
 5551SOL    HW116997   2.484   6.384   0.202
 5551SOL    HW216998   2.382   6.348   0.324
 5552SOL     OW16999   3.143   5.931   0.944
 5552SOL    HW117000   3.057   5.881   0.931
 5552SOL    HW217001   3.205   5.877   1.000
 5553SOL     OW17002   3.438   7.248   0.307
 5553SOL    HW117003   3.527   7.294   0.310
 5553SOL    HW217004   3.417   7.224   0.212
 5554SOL     OW17005   2.669   6.191   1.465
 5554SOL    HW117006   2.622   6.188   1.554
 5554SOL    HW217007   2.618   6.136   1.399
 5555SOL     OW17008   3.256   6.055   1.674
 5555SOL    HW117009   3.236   6.098   1.762
 5555SOL    HW217010   3.334   5.993   1.683
 5556SOL     OW17011   2.835   6.476   1.572
 5556SOL    HW117012   2.881   6.392   1.543
 5556SOL    HW217013   2.779   6.510   1.497
 5557SOL     OW17014   2.853   5.996   1.242
 5557SOL    HW117015   2.776   6.030   1.296
 5557SOL    HW217016   2.819   5.945   1.163
 5558SOL     OW17017   2.903   6.287   0.429
 5558SOL    HW117018   2.929   6.283   0.525
 5558SOL    HW217019   2.818   6.236   0.415
 5559SOL     OW17020   1.938   6.397   0.789
 5559SOL    HW117021   2.037   6.385   0.798
 5559SOL    HW217022   1.914   6.492   0.810
 5560SOL     OW17023   1.992   7.407   1.571
 5560SOL    HW117024   1.982   7.392   1.670
 5560SOL    HW217025   1.906   7.443   1.535
 5561SOL     OW17026   2.727   5.934   0.195
 5561SOL    HW117027   2.786   5.997   0.146
 5561SOL    HW217028   2.746   5.840   0.166
 5562SOL     OW17029   3.581   6.171   1.831
 5562SOL    HW117030   3.555   6.260   1.795
 5562SOL    HW217031   3.579   6.103   1.758
 5563SOL     OW17032   3.224   6.730   0.545
 5563SOL    HW117033   3.307   6.701   0.497
 5563SOL    HW217034   3.175   6.797   0.489
 5564SOL     OW17035   2.412   5.782   0.885
 5564SOL    HW117036   2.407   5.777   0.985
 5564SOL    HW217037   2.414   5.878   0.856
 5565SOL     OW17038   2.870   7.042   0.477
 5565SOL    HW117039   2.824   7.114   0.425
 5565SOL    HW217040   2.866   7.062   0.575
 5566SOL     OW17041   2.213   7.387   0.853
 5566SOL    HW117042   2.263   7.301   0.859
 5566SOL    HW217043   2.278   7.464   0.850
 5567SOL     OW17044   3.657   6.652   0.873
 5567SOL    HW117045   3.595   6.637   0.797
 5567SOL    HW217046   3.605   6.663   0.958
 5568SOL     OW17047   3.089   7.136   1.506
 5568SOL    HW117048   3.095   7.059   1.570
 5568SOL    HW217049   3.037   7.110   1.426
 5569SOL     OW17050   2.183   6.529   0.242
 5569SOL    HW117051   2.265   6.568   0.200
 5569SOL    HW217052   2.156   6.447   0.193
 5570SOL     OW17053   3.320   6.321   0.728
 5570SOL    HW117054   3.315   6.256   0.803
 5570SOL    HW217055   3.400   6.380   0.741
 5571SOL     OW17056   2.323   6.852   1.727
 5571SOL    HW117057   2.273   6.853   1.641
 5571SOL    HW217058   2.260   6.834   1.803
 5572SOL     OW17059   2.064   5.871   1.498
 5572SOL    HW117060   1.984   5.931   1.485
 5572SOL    HW217061   2.054   5.822   1.584
 5573SOL     OW17062   3.494   6.963   0.081
 5573SOL    HW117063   3.462   7.057   0.071
 5573SOL    HW217064   3.418   6.900   0.069
 5574SOL     OW17065   2.326   7.329   0.323
 5574SOL    HW117066   2.359   7.368   0.409
 5574SOL    HW217067   2.402   7.322   0.258
 5575SOL     OW17068   3.262   5.693   0.426
 5575SOL    HW117069   3.238   5.656   0.336
 5575SOL    HW217070   3.361   5.709   0.430
 5576SOL     OW17071   2.111   7.371   1.241
 5576SOL    HW117072   2.168   7.306   1.291
 5576SOL    HW217073   2.095   7.338   1.148
 5577SOL     OW17074   2.802   7.284   0.904
 5577SOL    HW117075   2.882   7.227   0.925
 5577SOL    HW217076   2.753   7.244   0.827
 5578SOL     OW17077   2.244   6.286   0.480
 5578SOL    HW117078   2.289   6.196   0.477
 5578SOL    HW217079   2.150   6.275   0.513
 5579SOL     OW17080   3.409   5.808   1.729
 5579SOL    HW117081   3.404   5.845   1.821
 5579SOL    HW217082   3.337   5.739   1.717
 5580SOL     OW17083   2.476   5.708   0.117
 5580SOL    HW117084   2.574   5.686   0.124
 5580SOL    HW217085   2.445   5.691   0.024
 5581SOL     OW17086   2.643   5.850   1.749
 5581SOL    HW117087   2.710   5.789   1.792
 5581SOL    HW217088   2.570   5.869   1.814
 5582SOL     OW17089   2.750   7.100   1.195
 5582SOL    HW117090   2.727   7.075   1.101
 5582SOL    HW217091   2.811   7.031   1.234
 5583SOL     OW17092   3.213   6.176   1.433
 5583SOL    HW117093   3.241   6.133   1.518
 5583SOL    HW217094   3.238   6.272   1.434
 5584SOL     OW17095   2.665   6.988   0.924
 5584SOL    HW117096   2.755   7.002   0.882
 5584SOL    HW217097   2.594   6.990   0.853
 5585SOL     OW17098   2.784   6.089   0.899
 5585SOL    HW117099   2.759   6.080   0.803
 5585SOL    HW217100   2.832   6.007   0.930
 5586SOL     OW17101   2.401   5.650   0.512
 5586SOL    HW117102   2.320   5.651   0.570
 5586SOL    HW217103   2.404   5.733   0.457
 5587SOL     OW17104   3.296   6.774   0.041
 5587SOL    HW117105   3.328   6.698   0.098
 5587SOL    HW217106   3.204   6.801   0.071
 5588SOL     OW17107   2.159   5.621   0.171
 5588SOL    HW117108   2.208   5.705   0.150
 5588SOL    HW217109   2.221   5.556   0.216
 5589SOL     OW17110   2.797   5.822   0.480
 5589SOL    HW117111   2.749   5.863   0.402
 5589SOL    HW217112   2.896   5.820   0.461
 5590SOL     OW17113   2.938   6.269   1.464
 5590SOL    HW117114   2.858   6.208   1.467
 5590SOL    HW217115   3.019   6.216   1.440
 5591SOL     OW17116   3.089   7.156   0.793
 5591SOL    HW117117   3.110   7.230   0.728
 5591SOL    HW217118   3.157   7.156   0.866
 5592SOL     OW17119   2.321   6.738   0.741
 5592SOL    HW117120   2.250   6.711   0.806
 5592SOL    HW217121   2.295   6.710   0.648
 5593SOL     OW17122   2.894   6.135   0.016
 5593SOL    HW117123   2.853   6.217  -0.023
 5593SOL    HW217124   2.958   6.161   0.089
 5594SOL     OW17125   1.940   6.142   1.386
 5594SOL    HW117126   2.032   6.141   1.345
 5594SOL    HW217127   1.934   6.216   1.453
 5595SOL     OW17128   2.423   5.808   1.147
 5595SOL    HW117129   2.461   5.724   1.184
 5595SOL    HW217130   2.335   5.827   1.191
 5596SOL     OW17131   2.728   6.040   0.642
 5596SOL    HW117132   2.696   6.112   0.580
 5596SOL    HW217133   2.752   5.959   0.589
 5597SOL     OW17134   2.879   5.625   0.753
 5597SOL    HW117135   2.807   5.630   0.684
 5597SOL    HW217136   2.855   5.556   0.822
 5598SOL     OW17137   3.291   6.759   0.867
 5598SOL    HW117138   3.236   6.675   0.860
 5598SOL    HW217139   3.317   6.788   0.775
 5599SOL     OW17140   3.328   6.176   0.992
 5599SOL    HW117141   3.298   6.081   0.999
 5599SOL    HW217142   3.401   6.192   1.058
 5600SOL     OW17143   3.719   6.419   0.377
 5600SOL    HW117144   3.761   6.355   0.441
 5600SOL    HW217145   3.681   6.368   0.299
 5601SOL     OW17146   2.350   6.971   0.174
 5601SOL    HW117147   2.263   6.956   0.221
 5601SOL    HW217148   2.333   6.997   0.079
 5602SOL     OW17149   3.526   6.866   0.657
 5602SOL    HW117150   3.625   6.874   0.671
 5602SOL    HW217151   3.481   6.950   0.688
 5603SOL     OW17152   3.252   6.161   0.078
 5603SOL    HW117153   3.198   6.140   0.159
 5603SOL    HW217154   3.343   6.120   0.087
 5604SOL     OW17155   2.389   5.842   0.328
 5604SOL    HW117156   2.416   5.783   0.253
 5604SOL    HW217157   2.389   5.937   0.297
 5605SOL     OW17158   3.616   6.809   1.588
 5605SOL    HW117159   3.707   6.770   1.575
 5605SOL    HW217160   3.624   6.905   1.612
 5606SOL     OW17161   2.926   6.933   1.340
 5606SOL    HW117162   2.846   6.910   1.395
 5606SOL    HW217163   3.009   6.907   1.389
 5607SOL     OW17164   3.454   7.215   1.625
 5607SOL    HW117165   3.481   7.249   1.535
 5607SOL    HW217166   3.533   7.177   1.671
 5608SOL     OW17167   2.973   6.781   1.100
 5608SOL    HW117168   2.933   6.825   1.181
 5608SOL    HW217169   2.932   6.818   1.017
 5609SOL     OW17170   3.500   6.685   1.079
 5609SOL    HW117171   3.505   6.766   1.138
 5609SOL    HW217172   3.414   6.687   1.028
 5610SOL     OW17173   2.777   5.675   1.402
 5610SOL    HW117174   2.802   5.655   1.307
 5610SOL    HW217175   2.849   5.731   1.444
 5611SOL     OW17176   2.842   6.702   1.719
 5611SOL    HW117177   2.743   6.708   1.729
 5611SOL    HW217178   2.865   6.622   1.663
 5612SOL     OW17179   2.567   6.636   0.368
 5612SOL    HW117180   2.553   6.643   0.467
 5612SOL    HW217181   2.651   6.585   0.350
 5613SOL     OW17182   2.272   6.399   1.251
 5613SOL    HW117183   2.358   6.411   1.301
 5613SOL    HW217184   2.230   6.312   1.278
 5614SOL     OW17185   3.136   5.972   1.262
 5614SOL    HW117186   3.157   6.046   1.326
 5614SOL    HW217187   3.047   5.989   1.219
 5615SOL     OW17188   1.926   7.150   1.331
 5615SOL    HW117189   1.880   7.232   1.297
 5615SOL    HW217190   2.024   7.169   1.340
 5616SOL     OW17191   2.229   6.686   0.501
 5616SOL    HW117192   2.222   6.769   0.445
 5616SOL    HW217193   2.233   6.606   0.441
 5617SOL     OW17194   2.428   6.123   0.865
 5617SOL    HW117195   2.440   6.189   0.791
 5617SOL    HW217196   2.474   6.157   0.948
 5618SOL     OW17197   3.114   6.934   0.388
 5618SOL    HW117198   3.164   7.011   0.428
 5618SOL    HW217199   3.019   6.936   0.420
 5619SOL     OW17200   3.134   7.031   1.142
 5619SOL    HW117201   3.181   7.044   1.229
 5619SOL    HW217202   3.068   6.957   1.151
 5620SOL     OW17203   3.444   6.225   0.472
 5620SOL    HW117204   3.413   6.286   0.545
 5620SOL    HW217205   3.494   6.277   0.403
 5621SOL     OW17206   2.216   7.096   1.329
 5621SOL    HW117207   2.195   7.052   1.242
 5621SOL    HW217208   2.313   7.122   1.332
 5622SOL     OW17209   2.264   6.337   1.598
 5622SOL    HW117210   2.332   6.392   1.551
 5622SOL    HW217211   2.304   6.249   1.625
 5623SOL     OW17212   3.449   6.365   1.670
 5623SOL    HW117213   3.357   6.403   1.665
 5623SOL    HW217214   3.509   6.412   1.605
 5624SOL     OW17215   2.875   5.691   1.770
 5624SOL    HW117216   2.881   5.776   1.718
 5624SOL    HW217217   2.907   5.615   1.713
 5625SOL     OW17218   2.366   5.636   1.740
 5625SOL    HW117219   2.324   5.579   1.670
 5625SOL    HW217220   2.300   5.705   1.772
 5626SOL     OW17221   2.435   6.456   1.029
 5626SOL    HW117222   2.479   6.545   1.020
 5626SOL    HW217223   2.372   6.456   1.106
 5627SOL     OW17224   3.222   6.448   1.045
 5627SOL    HW117225   3.147   6.448   0.979
 5627SOL    HW217226   3.259   6.356   1.054
 5628SOL     OW17227   3.071   6.111   0.275
 5628SOL    HW117228   3.084   6.027   0.329
 5628SOL    HW217229   3.042   6.185   0.335
 5629SOL     OW17230   2.169   5.799   1.231
 5629SOL    HW117231   2.146   5.836   1.321
 5629SOL    HW217232   2.139   5.704   1.225
 5630SOL     OW17233   1.899   6.896   1.282
 5630SOL    HW117234   1.952   6.847   1.350
 5630SOL    HW217235   1.921   6.994   1.287
 5631SOL     OW17236   2.594   6.220   1.064
 5631SOL    HW117237   2.653   6.194   0.988
 5631SOL    HW217238   2.566   6.316   1.053
 5632SOL     OW17239   3.590   6.521   1.854
 5632SOL    HW117240   3.544   6.514   1.765
 5632SOL    HW217241   3.528   6.565   1.920
 5633SOL     OW17242   2.169   5.649   0.618
 5633SOL    HW117243   2.158   5.743   0.651
 5633SOL    HW217244   2.164   5.586   0.695
 5634SOL     OW17245   3.484   5.953   0.374
 5634SOL    HW117246   3.486   5.877   0.438
 5634SOL    HW217247   3.436   6.030   0.414
 5635SOL     OW17248   2.885   6.352   0.966
 5635SOL    HW117249   2.900   6.373   1.062
 5635SOL    HW217250   2.855   6.257   0.957
 5636SOL     OW17251   2.842   7.159   1.700
 5636SOL    HW117252   2.822   7.203   1.612
 5636SOL    HW217253   2.881   7.068   1.684
 5637SOL     OW17254   3.721   7.104   1.605
 5637SOL    HW117255   3.735   7.131   1.510
 5637SOL    HW217256   3.804   7.126   1.658
 5638SOL     OW17257   2.212   6.484   1.804
 5638SOL    HW117258   2.288   6.528   1.852
 5638SOL    HW217259   2.247   6.437   1.722
 5639SOL     OW17260   3.402   5.860   0.125
 5639SOL    HW117261   3.341   5.785   0.148
 5639SOL    HW217262   3.424   5.912   0.208
 5640SOL     OW17263   3.165   6.424   0.042
 5640SOL    HW117264   3.199   6.331   0.057
 5640SOL    HW217265   3.183   6.451  -0.053
 5641SOL     OW17266   2.930   6.919   0.849
 5641SOL    HW117267   2.937   6.835   0.794
 5641SOL    HW217268   2.992   6.988   0.813
 5642SOL     OW17269   2.181   6.396   0.949
 5642SOL    HW117270   2.274   6.432   0.954
 5642SOL    HW217271   2.175   6.311   1.001
 5643SOL     OW17272   2.201   6.095   1.006
 5643SOL    HW117273   2.149   6.012   0.989
 5643SOL    HW217274   2.278   6.100   0.942
 5644SOL     OW17275   3.000   5.966   1.678
 5644SOL    HW117276   2.955   6.029   1.742
 5644SOL    HW217277   3.093   5.997   1.661
 5645SOL     OW17278   3.022   5.793   1.477
 5645SOL    HW117279   3.022   5.857   1.554
 5645SOL    HW217280   3.050   5.841   1.394
 5646SOL     OW17281   1.870   6.912   0.200
 5646SOL    HW117282   1.777   6.933   0.169
 5646SOL    HW217283   1.880   6.813   0.213
 5647SOL     OW17284   1.950   7.387   0.927
 5647SOL    HW117285   1.908   7.301   0.900
 5647SOL    HW217286   2.044   7.390   0.893
 5648SOL     OW17287   2.366   7.154   0.910
 5648SOL    HW117288   2.432   7.228   0.919
 5648SOL    HW217289   2.410   7.075   0.868
 5649SOL     OW17290   2.864   6.382   1.238
 5649SOL    HW117291   2.905   6.350   1.324
 5649SOL    HW217292   2.768   6.355   1.235
 5650SOL     OW17293   1.902   6.130   1.114
 5650SOL    HW117294   1.987   6.097   1.073
 5650SOL    HW217295   1.915   6.145   1.212
 5651SOL     OW17296   2.051   6.106   1.722
 5651SOL    HW117297   2.110   6.066   1.652
 5651SOL    HW217298   1.993   6.177   1.681
 5652SOL     OW17299   3.231   6.536   1.660
 5652SOL    HW117300   3.270   6.625   1.680
 5652SOL    HW217301   3.241   6.516   1.563
 5653SOL     OW17302   2.677   6.158   0.325
 5653SOL    HW117303   2.684   6.069   0.279
 5653SOL    HW217304   2.583   6.192   0.317
 5654SOL     OW17305   3.519   6.190   1.206
 5654SOL    HW117306   3.481   6.121   1.268
 5654SOL    HW217307   3.601   6.154   1.162
 5655SOL     OW17308   2.114   7.150   1.744
 5655SOL    HW117309   2.084   7.207   1.820
 5655SOL    HW217310   2.107   7.053   1.770
 5656SOL     OW17311   2.533   6.050   1.269
 5656SOL    HW117312   2.499   5.961   1.239
 5656SOL    HW217313   2.559   6.104   1.189
 5657SOL     OW17314   2.792   7.264   1.465
 5657SOL    HW117315   2.768   7.246   1.370
 5657SOL    HW217316   2.822   7.358   1.475
 5658SOL     OW17317   2.335   6.086   0.191
 5658SOL    HW117318   2.396   6.166   0.195
 5658SOL    HW217319   2.240   6.117   0.198
 5659SOL     OW17320   2.021   6.723   1.466
 5659SOL    HW117321   2.043   6.662   1.542
 5659SOL    HW217322   2.031   6.674   1.380
 5660SOL     OW17323   3.209   6.645   1.234
 5660SOL    HW117324   3.233   6.582   1.160
 5660SOL    HW217325   3.119   6.685   1.216
 5661SOL     OW17326   3.164   6.441   0.309
 5661SOL    HW117327   3.078   6.410   0.351
 5661SOL    HW217328   3.160   6.427   0.210
 5662SOL     OW17329   3.621   7.333   1.154
 5662SOL    HW117330   3.682   7.363   1.081
 5662SOL    HW217331   3.583   7.244   1.132
 5663SOL     OW17332   3.114   7.317   1.128
 5663SOL    HW117333   3.198   7.322   1.074
 5663SOL    HW217334   3.091   7.221   1.146
 5664SOL     OW17335   1.945   6.844   1.022
 5664SOL    HW117336   1.940   6.843   1.122
 5664SOL    HW217337   1.862   6.803   0.984
 5665SOL     OW17338   2.550   7.248   1.716
 5665SOL    HW117339   2.494   7.329   1.725
 5665SOL    HW217340   2.602   7.252   1.630
 5666SOL     OW17341   2.765   5.672   0.133
 5666SOL    HW117342   2.816   5.673   0.047
 5666SOL    HW217343   2.821   5.630   0.204
 5667SOL     OW17344   3.588   5.721   0.523
 5667SOL    HW117345   3.661   5.704   0.456
 5667SOL    HW217346   3.557   5.634   0.561
 5668SOL     OW17347   3.250   7.159   0.477
 5668SOL    HW117348   3.317   7.171   0.403
 5668SOL    HW217349   3.210   7.248   0.500
 5669SOL     OW17350   1.992   7.380   1.851
 5669SOL    HW117351   1.951   7.306   1.904
 5669SOL    HW217352   2.056   7.431   1.909
 5670SOL     OW17353   3.142   6.513   0.672
 5670SOL    HW117354   3.202   6.432   0.674
 5670SOL    HW217355   3.182   6.582   0.612
 5671SOL     OW17356   2.692   6.859   1.422
 5671SOL    HW117357   2.687   6.892   1.517
 5671SOL    HW217358   2.606   6.878   1.376
 5672SOL     OW17359   2.534   7.202   0.154
 5672SOL    HW117360   2.543   7.212   0.055
 5672SOL    HW217361   2.494   7.113   0.175
 5673SOL     OW17362   3.512   7.306   1.394
 5673SOL    HW117363   3.565   7.316   1.310
 5673SOL    HW217364   3.485   7.396   1.428
 5674SOL     OW17365   3.703   5.761   0.963
 5674SOL    HW117366   3.742   5.676   0.927
 5674SOL    HW217367   3.605   5.763   0.944
 5675SOL     OW17368   2.125   5.912   0.720
 5675SOL    HW117369   2.046   5.963   0.686
 5675SOL    HW217370   2.116   5.897   0.818
 5676SOL     OW17371   3.056   7.198   0.031
 5676SOL    HW117372   3.062   7.105   0.068
 5676SOL    HW217373   2.997   7.198  -0.049
 5677SOL     OW17374   2.684   6.588   1.372
 5677SOL    HW117375   2.724   6.587   1.280
 5677SOL    HW217376   2.694   6.680   1.412
 5678SOL     OW17377   2.778   6.496   0.291
 5678SOL    HW117378   2.841   6.534   0.223
 5678SOL    HW217379   2.818   6.413   0.330
 5679SOL     OW17380   3.366   7.193   0.044
 5679SOL    HW117381   3.274   7.230   0.051
 5679SOL    HW217382   3.404   7.213  -0.046
 5680SOL     OW17383   2.234   6.874   1.490
 5680SOL    HW117384   2.221   6.967   1.456
 5680SOL    HW217385   2.150   6.822   1.477
 5681SOL     OW17386   3.476   6.878   1.289
 5681SOL    HW117387   3.536   6.881   1.369
 5681SOL    HW217388   3.401   6.942   1.302
 5682SOL     OW17389   2.901   6.684   0.696
 5682SOL    HW117390   2.831   6.637   0.750
 5682SOL    HW217391   2.960   6.616   0.653
 5683SOL     OW17392   2.876   5.822   0.971
 5683SOL    HW117393   2.868   5.786   0.878
 5683SOL    HW217394   2.874   5.746   1.036
 5684SOL     OW17395   2.452   7.073   0.491
 5684SOL    HW117396   2.494   7.015   0.421
 5684SOL    HW217397   2.408   7.152   0.447
 5685SOL     OW17398   3.571   5.971   1.381
 5685SOL    HW117399   3.644   6.040   1.385
 5685SOL    HW217400   3.599   5.896   1.322
 5686SOL     OW17401   2.117   6.934   0.290
 5686SOL    HW117402   2.021   6.935   0.263
 5686SOL    HW217403   2.129   6.987   0.374
 5687SOL     OW17404   1.967   6.599   1.726
 5687SOL    HW117405   1.890   6.566   1.780
 5687SOL    HW217406   2.052   6.569   1.768
 5688SOL     OW17407   2.534   5.789   1.489
 5688SOL    HW117408   2.624   5.773   1.449
 5688SOL    HW217409   2.542   5.794   1.588
 5689SOL     OW17410   1.937   5.931   0.033
 5689SOL    HW117411   1.845   5.903   0.004
 5689SOL    HW217412   1.968   6.008  -0.023
 5690SOL     OW17413   3.302   6.442   1.398
 5690SOL    HW117414   3.245   6.494   1.335
 5690SOL    HW217415   3.398   6.454   1.374
 5691SOL     OW17416   1.934   5.752   0.318
 5691SOL    HW117417   1.917   5.835   0.264
 5691SOL    HW217418   2.024   5.715   0.296
 5692SOL     OW17419   3.045   6.921   0.119
 5692SOL    HW117420   2.946   6.910   0.121
 5692SOL    HW217421   3.079   6.936   0.212
 5693SOL     OW17422   2.475   6.428   1.431
 5693SOL    HW117423   2.531   6.509   1.414
 5693SOL    HW217424   2.534   6.348   1.434
 5694SOL     OW17425   3.355   7.353   0.959
 5694SOL    HW117426   3.388   7.417   0.890
 5694SOL    HW217427   3.421   7.347   1.034
 5695SOL     OW17428   2.578   6.151   1.708
 5695SOL    HW117429   2.597   6.216   1.782
 5695SOL    HW217430   2.638   6.071   1.717
 5696SOL     OW17431   3.312   6.806   1.633
 5696SOL    HW117432   3.303   6.796   1.732
 5696SOL    HW217433   3.408   6.799   1.607
 5697SOL     OW17434   2.252   7.327   1.560
 5697SOL    HW117435   2.161   7.368   1.558
 5697SOL    HW217436   2.245   7.233   1.592
 5698SOL     OW17437   3.536   6.469   1.254
 5698SOL    HW117438   3.509   6.380   1.217
 5698SOL    HW217439   3.537   6.537   1.181
 5699SOL     OW17440   3.087   5.911   0.449
 5699SOL    HW117441   3.152   5.837   0.438
 5699SOL    HW217442   3.107   5.961   0.533
 5700SOL     OW17443   2.456   6.331   0.652
 5700SOL    HW117444   2.506   6.416   0.633
 5700SOL    HW217445   2.368   6.333   0.604
 5701SOL     OW17446   3.639   5.928   1.642
 5701SOL    HW117447   3.622   5.959   1.548
 5701SOL    HW217448   3.555   5.891   1.680
 5702SOL     OW17449   3.592   6.520   1.517
 5702SOL    HW117450   3.630   6.611   1.532
 5702SOL    HW217451   3.584   6.503   1.418
 5703SOL     OW17452   2.721   6.960   0.016
 5703SOL    HW117453   2.675   6.975   0.104
 5703SOL    HW217454   2.765   7.045  -0.014
 5704SOL     OW17455   2.523   7.376   0.953
 5704SOL    HW117456   2.477   7.464   0.940
 5704SOL    HW217457   2.622   7.388   0.946
 5705SOL     OW17458   2.721   6.542   0.861
 5705SOL    HW117459   2.775   6.473   0.909
 5705SOL    HW217460   2.689   6.611   0.927
 5706SOL     OW17461   2.945   6.570   0.087
 5706SOL    HW117462   2.922   6.623   0.005
 5706SOL    HW217463   3.026   6.514   0.068
 5707SOL     OW17464   3.723   7.155   0.851
 5707SOL    HW117465   3.652   7.143   0.781
 5707SOL    HW217466   3.724   7.076   0.911
 5708SOL     OW17467   2.083   6.900   1.844
 5708SOL    HW117468   2.018   6.827   1.823
 5708SOL    HW217469   2.087   6.914   1.942
 5709SOL     OW17470   1.941   6.826   0.653
 5709SOL    HW117471   1.940   6.779   0.741
 5709SOL    HW217472   2.023   6.798   0.602
 5710SOL     OW17473   2.534   6.977   1.624
 5710SOL    HW117474   2.456   6.927   1.662
 5710SOL    HW217475   2.531   7.072   1.655
 5711SOL     OW17476   3.686   5.778   1.227
 5711SOL    HW117477   3.682   5.688   1.271
 5711SOL    HW217478   3.689   5.767   1.128
 5712SOL     OW17479   2.290   6.010   0.520
 5712SOL    HW117480   2.320   5.938   0.458
 5712SOL    HW217481   2.251   5.970   0.603
 5713SOL     OW17482   3.567   7.073   1.104
 5713SOL    HW117483   3.474   7.048   1.077
 5713SOL    HW217484   3.593   7.023   1.186
 5714SOL     OW17485   2.179   6.133   1.280
 5714SOL    HW117486   2.217   6.074   1.352
 5714SOL    HW217487   2.219   6.107   1.192
 5715SOL     OW17488   2.674   7.172   0.687
 5715SOL    HW117489   2.706   7.182   0.593
 5715SOL    HW217490   2.595   7.110   0.689
 5716SOL     OW17491   3.286   5.800   1.112
 5716SOL    HW117492   3.338   5.735   1.167
 5716SOL    HW217493   3.237   5.863   1.173
 5717SOL     OW17494   2.863   5.620   1.154
 5717SOL    HW117495   2.800   5.548   1.123
 5717SOL    HW217496   2.956   5.584   1.154
 5718SOL     OW17497   2.632   6.916   0.301
 5718SOL    HW117498   2.586   6.829   0.318
 5718SOL    HW217499   2.723   6.913   0.342
 5719SOL     OW17500   2.480   7.153   1.284
 5719SOL    HW117501   2.475   7.235   1.341
 5719SOL    HW217502   2.569   7.150   1.239
 5720SOL     OW17503   3.214   5.638   0.168
 5720SOL    HW117504   3.249   5.597   0.084
 5720SOL    HW217505   3.124   5.600   0.188
 5721SOL     OW17506   3.162   6.039   0.691
 5721SOL    HW117507   3.103   6.119   0.695
 5721SOL    HW217508   3.177   6.004   0.784
 5722SOL     OW17509   3.455   5.807   0.882
 5722SOL    HW117510   3.371   5.806   0.936
 5722SOL    HW217511   3.457   5.890   0.826
 5723SOL     OW17512   1.901   6.663   0.300
 5723SOL    HW117513   2.000   6.652   0.291
 5723SOL    HW217514   1.861   6.577   0.332
 5724SOL     OW17515   2.737   7.232   0.337
 5724SOL    HW117516   2.660   7.197   0.283
 5724SOL    HW217517   2.705   7.303   0.399
 5725SOL     OW17518   2.092   6.214   1.975
 5725SOL    HW117519   1.999   6.212   2.012
 5725SOL    HW217520   2.093   6.175   1.883
 5726SOL     OW17521   2.087   5.861   2.858
 5726SOL    HW117522   2.122   5.844   2.950
 5726SOL    HW217523   1.999   5.816   2.846
 5727SOL     OW17524   1.881   5.954   2.509
 5727SOL    HW117525   1.799   5.997   2.548
 5727SOL    HW217526   1.853   5.881   2.446
 5728SOL     OW17527   2.431   6.861   3.027
 5728SOL    HW117528   2.338   6.854   2.990
 5728SOL    HW217529   2.442   6.950   3.071
 5729SOL     OW17530   3.417   7.097   2.565
 5729SOL    HW117531   3.360   7.081   2.646
 5729SOL    HW217532   3.358   7.107   2.485
 5730SOL     OW17533   2.997   6.289   2.579
 5730SOL    HW117534   3.054   6.367   2.554
 5730SOL    HW217535   2.937   6.315   2.655
 5731SOL     OW17536   3.617   6.193   2.093
 5731SOL    HW117537   3.605   6.180   1.994
 5731SOL    HW217538   3.587   6.112   2.142
 5732SOL     OW17539   2.630   6.730   2.885
 5732SOL    HW117540   2.552   6.747   2.945
 5732SOL    HW217541   2.664   6.817   2.849
 5733SOL     OW17542   2.712   6.384   3.685
 5733SOL    HW117543   2.708   6.460   3.750
 5733SOL    HW217544   2.734   6.420   3.594
 5734SOL     OW17545   2.547   6.598   2.527
 5734SOL    HW117546   2.616   6.582   2.597
 5734SOL    HW217547   2.474   6.655   2.565
 5735SOL     OW17548   2.548   6.747   3.665
 5735SOL    HW117549   2.608   6.826   3.679
 5735SOL    HW217550   2.462   6.778   3.624
 5736SOL     OW17551   2.197   7.021   2.923
 5736SOL    HW117552   2.119   6.990   2.870
 5736SOL    HW217553   2.255   7.079   2.866
 5737SOL     OW17554   3.322   7.091   3.201
 5737SOL    HW117555   3.346   7.185   3.227
 5737SOL    HW217556   3.306   7.037   3.283
 5738SOL     OW17557   2.300   5.978   3.361
 5738SOL    HW117558   2.382   5.922   3.370
 5738SOL    HW217559   2.219   5.920   3.365
 5739SOL     OW17560   3.465   6.033   2.599
 5739SOL    HW117561   3.391   6.079   2.549
 5739SOL    HW217562   3.516   6.101   2.652
 5740SOL     OW17563   2.093   7.299   2.345
 5740SOL    HW117564   2.127   7.376   2.399
 5740SOL    HW217565   2.137   7.299   2.255
 5741SOL     OW17566   2.989   6.927   3.552
 5741SOL    HW117567   3.036   6.927   3.640
 5741SOL    HW217568   2.941   6.840   3.541
 5742SOL     OW17569   2.092   7.020   2.400
 5742SOL    HW117570   2.066   7.116   2.400
 5742SOL    HW217571   2.021   6.966   2.445
 5743SOL     OW17572   2.102   6.677   2.748
 5743SOL    HW117573   2.116   6.593   2.800
 5743SOL    HW217574   2.047   6.741   2.803
 5744SOL     OW17575   2.482   7.372   3.301
 5744SOL    HW117576   2.390   7.355   3.336
 5744SOL    HW217577   2.510   7.464   3.327
 5745SOL     OW17578   2.468   6.550   1.985
 5745SOL    HW117579   2.475   6.634   1.931
 5745SOL    HW217580   2.514   6.563   2.073
 5746SOL     OW17581   3.456   5.700   3.342
 5746SOL    HW117582   3.438   5.767   3.270
 5746SOL    HW217583   3.453   5.746   3.431
 5747SOL     OW17584   1.984   6.229   2.425
 5747SOL    HW117585   1.939   6.141   2.442
 5747SOL    HW217586   1.983   6.283   2.509
 5748SOL     OW17587   3.704   7.353   2.221
 5748SOL    HW117588   3.758   7.324   2.301
 5748SOL    HW217589   3.734   7.443   2.192
 5749SOL     OW17590   1.889   7.182   1.979
 5749SOL    HW117591   1.870   7.086   2.000
 5749SOL    HW217592   1.856   7.240   2.054
 5750SOL     OW17593   3.551   6.508   2.474
 5750SOL    HW117594   3.646   6.479   2.482
 5750SOL    HW217595   3.543   6.573   2.399
 5751SOL     OW17596   3.503   6.694   2.294
 5751SOL    HW117597   3.589   6.696   2.242
 5751SOL    HW217598   3.517   6.741   2.382
 5752SOL     OW17599   1.975   6.323   3.459
 5752SOL    HW117600   2.063   6.310   3.504
 5752SOL    HW217601   1.962   6.420   3.437
 5753SOL     OW17602   2.475   6.951   2.588
 5753SOL    HW117603   2.426   6.864   2.597
 5753SOL    HW217604   2.452   6.994   2.501
 5754SOL     OW17605   3.155   6.814   3.285
 5754SOL    HW117606   3.192   6.741   3.227
 5754SOL    HW217607   3.207   6.819   3.370
 5755SOL     OW17608   2.671   5.590   2.364
 5755SOL    HW117609   2.711   5.681   2.355
 5755SOL    HW217610   2.571   5.598   2.370
 5756SOL     OW17611   2.059   6.562   3.126
 5756SOL    HW117612   2.148   6.517   3.112
 5756SOL    HW217613   1.986   6.497   3.107
 5757SOL     OW17614   3.387   6.585   2.052
 5757SOL    HW117615   3.324   6.509   2.065
 5757SOL    HW217616   3.435   6.603   2.138
 5758SOL     OW17617   3.049   7.378   3.478
 5758SOL    HW117618   3.073   7.438   3.402
 5758SOL    HW217619   3.056   7.283   3.448
 5759SOL     OW17620   2.179   5.837   3.663
 5759SOL    HW117621   2.250   5.908   3.669
 5759SOL    HW217622   2.091   5.876   3.691
 5760SOL     OW17623   3.328   7.003   2.815
 5760SOL    HW117624   3.269   7.009   2.895
 5760SOL    HW217625   3.313   6.915   2.769
 5761SOL     OW17626   3.529   7.300   2.434
 5761SOL    HW117627   3.488   7.277   2.346
 5761SOL    HW217628   3.511   7.226   2.499
 5762SOL     OW17629   2.460   6.315   2.132
 5762SOL    HW117630   2.484   6.384   2.064
 5762SOL    HW217631   2.382   6.348   2.186
 5763SOL     OW17632   3.143   5.931   2.806
 5763SOL    HW117633   3.057   5.881   2.793
 5763SOL    HW217634   3.205   5.877   2.862
 5764SOL     OW17635   3.438   7.248   2.169
 5764SOL    HW117636   3.527   7.294   2.172
 5764SOL    HW217637   3.417   7.224   2.074
 5765SOL     OW17638   2.669   6.191   3.327
 5765SOL    HW117639   2.622   6.188   3.416
 5765SOL    HW217640   2.618   6.136   3.261
 5766SOL     OW17641   3.256   6.055   3.536
 5766SOL    HW117642   3.236   6.098   3.624
 5766SOL    HW217643   3.334   5.993   3.545
 5767SOL     OW17644   2.835   6.476   3.434
 5767SOL    HW117645   2.881   6.392   3.405
 5767SOL    HW217646   2.779   6.510   3.359
 5768SOL     OW17647   2.853   5.996   3.104
 5768SOL    HW117648   2.776   6.030   3.158
 5768SOL    HW217649   2.819   5.945   3.025
 5769SOL     OW17650   2.903   6.287   2.291
 5769SOL    HW117651   2.929   6.283   2.387
 5769SOL    HW217652   2.818   6.236   2.277
 5770SOL     OW17653   1.938   6.397   2.651
 5770SOL    HW117654   2.037   6.385   2.660
 5770SOL    HW217655   1.914   6.492   2.672
 5771SOL     OW17656   1.992   7.407   3.433
 5771SOL    HW117657   1.982   7.392   3.532
 5771SOL    HW217658   1.906   7.443   3.397
 5772SOL     OW17659   2.727   5.934   2.057
 5772SOL    HW117660   2.786   5.997   2.008
 5772SOL    HW217661   2.746   5.840   2.028
 5773SOL     OW17662   3.224   6.730   2.407
 5773SOL    HW117663   3.307   6.701   2.359
 5773SOL    HW217664   3.175   6.797   2.351
 5774SOL     OW17665   2.412   5.782   2.747
 5774SOL    HW117666   2.407   5.777   2.847
 5774SOL    HW217667   2.414   5.878   2.718
 5775SOL     OW17668   2.870   7.042   2.339
 5775SOL    HW117669   2.824   7.114   2.287
 5775SOL    HW217670   2.866   7.062   2.437
 5776SOL     OW17671   2.213   7.387   2.715
 5776SOL    HW117672   2.263   7.301   2.721
 5776SOL    HW217673   2.278   7.464   2.712
 5777SOL     OW17674   3.657   6.652   2.735
 5777SOL    HW117675   3.595   6.637   2.659
 5777SOL    HW217676   3.605   6.663   2.820
 5778SOL     OW17677   3.089   7.136   3.368
 5778SOL    HW117678   3.095   7.059   3.432
 5778SOL    HW217679   3.037   7.110   3.288
 5779SOL     OW17680   2.183   6.529   2.104
 5779SOL    HW117681   2.265   6.568   2.062
 5779SOL    HW217682   2.156   6.447   2.055
 5780SOL     OW17683   3.320   6.321   2.590
 5780SOL    HW117684   3.315   6.256   2.665
 5780SOL    HW217685   3.400   6.380   2.603
 5781SOL     OW17686   2.323   6.852   3.589
 5781SOL    HW117687   2.273   6.853   3.503
 5781SOL    HW217688   2.260   6.834   3.665
 5782SOL     OW17689   2.064   5.871   3.360
 5782SOL    HW117690   1.984   5.931   3.347
 5782SOL    HW217691   2.054   5.822   3.446
 5783SOL     OW17692   3.494   6.963   1.943
 5783SOL    HW117693   3.462   7.057   1.933
 5783SOL    HW217694   3.418   6.900   1.931
 5784SOL     OW17695   2.326   7.329   2.185
 5784SOL    HW117696   2.359   7.368   2.271
 5784SOL    HW217697   2.402   7.322   2.120
 5785SOL     OW17698   3.262   5.693   2.288
 5785SOL    HW117699   3.238   5.656   2.198
 5785SOL    HW217700   3.361   5.709   2.292
 5786SOL     OW17701   2.111   7.371   3.103
 5786SOL    HW117702   2.168   7.306   3.153
 5786SOL    HW217703   2.095   7.338   3.010
 5787SOL     OW17704   2.802   7.284   2.766
 5787SOL    HW117705   2.882   7.227   2.787
 5787SOL    HW217706   2.753   7.244   2.689
 5788SOL     OW17707   2.244   6.286   2.342
 5788SOL    HW117708   2.289   6.196   2.339
 5788SOL    HW217709   2.150   6.275   2.375
 5789SOL     OW17710   2.476   5.708   1.979
 5789SOL    HW117711   2.574   5.686   1.986
 5789SOL    HW217712   2.445   5.691   1.886
 5790SOL     OW17713   2.643   5.850   3.611
 5790SOL    HW117714   2.710   5.789   3.654
 5790SOL    HW217715   2.570   5.869   3.676
 5791SOL     OW17716   2.750   7.100   3.057
 5791SOL    HW117717   2.727   7.075   2.963
 5791SOL    HW217718   2.811   7.031   3.096
 5792SOL     OW17719   3.213   6.176   3.295
 5792SOL    HW117720   3.241   6.133   3.380
 5792SOL    HW217721   3.238   6.272   3.296
 5793SOL     OW17722   2.665   6.988   2.786
 5793SOL    HW117723   2.755   7.002   2.744
 5793SOL    HW217724   2.594   6.990   2.715
 5794SOL     OW17725   2.784   6.089   2.761
 5794SOL    HW117726   2.759   6.080   2.665
 5794SOL    HW217727   2.832   6.007   2.792
 5795SOL     OW17728   2.401   5.650   2.374
 5795SOL    HW117729   2.320   5.651   2.432
 5795SOL    HW217730   2.404   5.733   2.319
 5796SOL     OW17731   3.296   6.774   1.903
 5796SOL    HW117732   3.328   6.698   1.960
 5796SOL    HW217733   3.204   6.801   1.933
 5797SOL     OW17734   2.159   5.621   2.033
 5797SOL    HW117735   2.208   5.705   2.012
 5797SOL    HW217736   2.221   5.556   2.078
 5798SOL     OW17737   2.797   5.822   2.342
 5798SOL    HW117738   2.749   5.863   2.264
 5798SOL    HW217739   2.896   5.820   2.323
 5799SOL     OW17740   2.938   6.269   3.326
 5799SOL    HW117741   2.858   6.208   3.329
 5799SOL    HW217742   3.019   6.216   3.302
 5800SOL     OW17743   3.089   7.156   2.655
 5800SOL    HW117744   3.110   7.230   2.590
 5800SOL    HW217745   3.157   7.156   2.728
 5801SOL     OW17746   2.321   6.738   2.603
 5801SOL    HW117747   2.250   6.711   2.668
 5801SOL    HW217748   2.295   6.710   2.510
 5802SOL     OW17749   2.894   6.135   1.878
 5802SOL    HW117750   2.853   6.217   1.839
 5802SOL    HW217751   2.958   6.161   1.951
 5803SOL     OW17752   1.940   6.142   3.248
 5803SOL    HW117753   2.032   6.141   3.207
 5803SOL    HW217754   1.934   6.216   3.315
 5804SOL     OW17755   2.423   5.808   3.009
 5804SOL    HW117756   2.461   5.724   3.046
 5804SOL    HW217757   2.335   5.827   3.053
 5805SOL     OW17758   2.728   6.040   2.504
 5805SOL    HW117759   2.696   6.112   2.442
 5805SOL    HW217760   2.752   5.959   2.451
 5806SOL     OW17761   2.879   5.625   2.615
 5806SOL    HW117762   2.807   5.630   2.546
 5806SOL    HW217763   2.855   5.556   2.684
 5807SOL     OW17764   3.291   6.759   2.729
 5807SOL    HW117765   3.236   6.675   2.722
 5807SOL    HW217766   3.317   6.788   2.637
 5808SOL     OW17767   3.328   6.176   2.854
 5808SOL    HW117768   3.298   6.081   2.861
 5808SOL    HW217769   3.401   6.192   2.920
 5809SOL     OW17770   3.719   6.419   2.239
 5809SOL    HW117771   3.761   6.355   2.303
 5809SOL    HW217772   3.681   6.368   2.161
 5810SOL     OW17773   2.350   6.971   2.036
 5810SOL    HW117774   2.263   6.956   2.083
 5810SOL    HW217775   2.333   6.997   1.941
 5811SOL     OW17776   3.526   6.866   2.519
 5811SOL    HW117777   3.625   6.874   2.533
 5811SOL    HW217778   3.481   6.950   2.550
 5812SOL     OW17779   3.252   6.161   1.940
 5812SOL    HW117780   3.198   6.140   2.021
 5812SOL    HW217781   3.343   6.120   1.949
 5813SOL     OW17782   2.389   5.842   2.190
 5813SOL    HW117783   2.416   5.783   2.115
 5813SOL    HW217784   2.389   5.937   2.159
 5814SOL     OW17785   3.616   6.809   3.450
 5814SOL    HW117786   3.707   6.770   3.437
 5814SOL    HW217787   3.624   6.905   3.474
 5815SOL     OW17788   2.926   6.933   3.202
 5815SOL    HW117789   2.846   6.910   3.257
 5815SOL    HW217790   3.009   6.907   3.251
 5816SOL     OW17791   3.454   7.215   3.487
 5816SOL    HW117792   3.481   7.249   3.397
 5816SOL    HW217793   3.533   7.177   3.533
 5817SOL     OW17794   2.973   6.781   2.962
 5817SOL    HW117795   2.933   6.825   3.043
 5817SOL    HW217796   2.932   6.818   2.879
 5818SOL     OW17797   3.500   6.685   2.941
 5818SOL    HW117798   3.505   6.766   3.000
 5818SOL    HW217799   3.414   6.687   2.890
 5819SOL     OW17800   2.777   5.675   3.264
 5819SOL    HW117801   2.802   5.655   3.169
 5819SOL    HW217802   2.849   5.731   3.306
 5820SOL     OW17803   2.842   6.702   3.581
 5820SOL    HW117804   2.743   6.708   3.591
 5820SOL    HW217805   2.865   6.622   3.525
 5821SOL     OW17806   2.567   6.636   2.230
 5821SOL    HW117807   2.553   6.643   2.329
 5821SOL    HW217808   2.651   6.585   2.212
 5822SOL     OW17809   2.272   6.399   3.113
 5822SOL    HW117810   2.358   6.411   3.163
 5822SOL    HW217811   2.230   6.312   3.140
 5823SOL     OW17812   3.136   5.972   3.124
 5823SOL    HW117813   3.157   6.046   3.188
 5823SOL    HW217814   3.047   5.989   3.081
 5824SOL     OW17815   1.926   7.150   3.193
 5824SOL    HW117816   1.880   7.232   3.159
 5824SOL    HW217817   2.024   7.169   3.202
 5825SOL     OW17818   2.229   6.686   2.363
 5825SOL    HW117819   2.222   6.769   2.307
 5825SOL    HW217820   2.233   6.606   2.303
 5826SOL     OW17821   2.428   6.123   2.727
 5826SOL    HW117822   2.440   6.189   2.653
 5826SOL    HW217823   2.474   6.157   2.810
 5827SOL     OW17824   3.114   6.934   2.250
 5827SOL    HW117825   3.164   7.011   2.290
 5827SOL    HW217826   3.019   6.936   2.282
 5828SOL     OW17827   3.134   7.031   3.004
 5828SOL    HW117828   3.181   7.044   3.091
 5828SOL    HW217829   3.068   6.957   3.013
 5829SOL     OW17830   3.444   6.225   2.334
 5829SOL    HW117831   3.413   6.286   2.407
 5829SOL    HW217832   3.494   6.277   2.265
 5830SOL     OW17833   2.216   7.096   3.191
 5830SOL    HW117834   2.195   7.052   3.104
 5830SOL    HW217835   2.313   7.122   3.194
 5831SOL     OW17836   2.264   6.337   3.460
 5831SOL    HW117837   2.332   6.392   3.413
 5831SOL    HW217838   2.304   6.249   3.487
 5832SOL     OW17839   3.449   6.365   3.532
 5832SOL    HW117840   3.357   6.403   3.527
 5832SOL    HW217841   3.509   6.412   3.467
 5833SOL     OW17842   2.875   5.691   3.632
 5833SOL    HW117843   2.881   5.776   3.580
 5833SOL    HW217844   2.907   5.615   3.575
 5834SOL     OW17845   2.366   5.636   3.602
 5834SOL    HW117846   2.324   5.579   3.532
 5834SOL    HW217847   2.300   5.705   3.634
 5835SOL     OW17848   2.435   6.456   2.891
 5835SOL    HW117849   2.479   6.545   2.882
 5835SOL    HW217850   2.372   6.456   2.968
 5836SOL     OW17851   3.222   6.448   2.907
 5836SOL    HW117852   3.147   6.448   2.841
 5836SOL    HW217853   3.259   6.356   2.916
 5837SOL     OW17854   3.071   6.111   2.137
 5837SOL    HW117855   3.084   6.027   2.191
 5837SOL    HW217856   3.042   6.185   2.197
 5838SOL     OW17857   2.169   5.799   3.093
 5838SOL    HW117858   2.146   5.836   3.183
 5838SOL    HW217859   2.139   5.704   3.087
 5839SOL     OW17860   1.899   6.896   3.144
 5839SOL    HW117861   1.952   6.847   3.212
 5839SOL    HW217862   1.921   6.994   3.149
 5840SOL     OW17863   2.594   6.220   2.926
 5840SOL    HW117864   2.653   6.194   2.850
 5840SOL    HW217865   2.566   6.316   2.915
 5841SOL     OW17866   3.590   6.521   3.716
 5841SOL    HW117867   3.544   6.514   3.627
 5841SOL    HW217868   3.528   6.565   3.782
 5842SOL     OW17869   2.169   5.649   2.480
 5842SOL    HW117870   2.158   5.743   2.513
 5842SOL    HW217871   2.164   5.586   2.557
 5843SOL     OW17872   3.484   5.953   2.236
 5843SOL    HW117873   3.486   5.877   2.300
 5843SOL    HW217874   3.436   6.030   2.276
 5844SOL     OW17875   2.885   6.352   2.828
 5844SOL    HW117876   2.900   6.373   2.924
 5844SOL    HW217877   2.855   6.257   2.819
 5845SOL     OW17878   2.842   7.159   3.562
 5845SOL    HW117879   2.822   7.203   3.474
 5845SOL    HW217880   2.881   7.068   3.546
 5846SOL     OW17881   3.721   7.104   3.467
 5846SOL    HW117882   3.735   7.131   3.372
 5846SOL    HW217883   3.804   7.126   3.520
 5847SOL     OW17884   2.212   6.484   3.666
 5847SOL    HW117885   2.288   6.528   3.714
 5847SOL    HW217886   2.247   6.437   3.584
 5848SOL     OW17887   3.402   5.860   1.987
 5848SOL    HW117888   3.341   5.785   2.010
 5848SOL    HW217889   3.424   5.912   2.070
 5849SOL     OW17890   3.165   6.424   1.904
 5849SOL    HW117891   3.199   6.331   1.919
 5849SOL    HW217892   3.183   6.451   1.809
 5850SOL     OW17893   2.930   6.919   2.711
 5850SOL    HW117894   2.937   6.835   2.656
 5850SOL    HW217895   2.992   6.988   2.675
 5851SOL     OW17896   2.181   6.396   2.811
 5851SOL    HW117897   2.274   6.432   2.816
 5851SOL    HW217898   2.175   6.311   2.863
 5852SOL     OW17899   2.201   6.095   2.868
 5852SOL    HW117900   2.149   6.012   2.851
 5852SOL    HW217901   2.278   6.100   2.804
 5853SOL     OW17902   3.000   5.966   3.540
 5853SOL    HW117903   2.955   6.029   3.604
 5853SOL    HW217904   3.093   5.997   3.523
 5854SOL     OW17905   3.022   5.793   3.339
 5854SOL    HW117906   3.022   5.857   3.416
 5854SOL    HW217907   3.050   5.841   3.256
 5855SOL     OW17908   1.870   6.912   2.062
 5855SOL    HW117909   1.777   6.933   2.031
 5855SOL    HW217910   1.880   6.813   2.075
 5856SOL     OW17911   1.950   7.387   2.789
 5856SOL    HW117912   1.908   7.301   2.762
 5856SOL    HW217913   2.044   7.390   2.755
 5857SOL     OW17914   2.366   7.154   2.772
 5857SOL    HW117915   2.432   7.228   2.781
 5857SOL    HW217916   2.410   7.075   2.730
 5858SOL     OW17917   2.864   6.382   3.100
 5858SOL    HW117918   2.905   6.350   3.186
 5858SOL    HW217919   2.768   6.355   3.097
 5859SOL     OW17920   1.902   6.130   2.976
 5859SOL    HW117921   1.987   6.097   2.935
 5859SOL    HW217922   1.915   6.145   3.074
 5860SOL     OW17923   2.051   6.106   3.584
 5860SOL    HW117924   2.110   6.066   3.514
 5860SOL    HW217925   1.993   6.177   3.543
 5861SOL     OW17926   3.231   6.536   3.522
 5861SOL    HW117927   3.270   6.625   3.542
 5861SOL    HW217928   3.241   6.516   3.425
 5862SOL     OW17929   2.677   6.158   2.187
 5862SOL    HW117930   2.684   6.069   2.141
 5862SOL    HW217931   2.583   6.192   2.179
 5863SOL     OW17932   3.519   6.190   3.068
 5863SOL    HW117933   3.481   6.121   3.130
 5863SOL    HW217934   3.601   6.154   3.024
 5864SOL     OW17935   2.114   7.150   3.606
 5864SOL    HW117936   2.084   7.207   3.682
 5864SOL    HW217937   2.107   7.053   3.632
 5865SOL     OW17938   2.533   6.050   3.131
 5865SOL    HW117939   2.499   5.961   3.101
 5865SOL    HW217940   2.559   6.104   3.051
 5866SOL     OW17941   2.792   7.264   3.327
 5866SOL    HW117942   2.768   7.246   3.232
 5866SOL    HW217943   2.822   7.358   3.337
 5867SOL     OW17944   2.335   6.086   2.053
 5867SOL    HW117945   2.396   6.166   2.057
 5867SOL    HW217946   2.240   6.117   2.060
 5868SOL     OW17947   2.021   6.723   3.328
 5868SOL    HW117948   2.043   6.662   3.404
 5868SOL    HW217949   2.031   6.674   3.242
 5869SOL     OW17950   3.209   6.645   3.096
 5869SOL    HW117951   3.233   6.582   3.022
 5869SOL    HW217952   3.119   6.685   3.078
 5870SOL     OW17953   3.164   6.441   2.171
 5870SOL    HW117954   3.078   6.410   2.213
 5870SOL    HW217955   3.160   6.427   2.072
 5871SOL     OW17956   3.621   7.333   3.016
 5871SOL    HW117957   3.682   7.363   2.943
 5871SOL    HW217958   3.583   7.244   2.994
 5872SOL     OW17959   3.114   7.317   2.990
 5872SOL    HW117960   3.198   7.322   2.936
 5872SOL    HW217961   3.091   7.221   3.008
 5873SOL     OW17962   1.945   6.844   2.884
 5873SOL    HW117963   1.940   6.843   2.984
 5873SOL    HW217964   1.862   6.803   2.846
 5874SOL     OW17965   2.550   7.248   3.578
 5874SOL    HW117966   2.494   7.329   3.587
 5874SOL    HW217967   2.602   7.252   3.492
 5875SOL     OW17968   3.588   5.721   2.385
 5875SOL    HW117969   3.661   5.704   2.318
 5875SOL    HW217970   3.557   5.634   2.423
 5876SOL     OW17971   3.250   7.159   2.339
 5876SOL    HW117972   3.317   7.171   2.265
 5876SOL    HW217973   3.210   7.248   2.362
 5877SOL     OW17974   1.992   7.380   3.713
 5877SOL    HW117975   1.951   7.306   3.766
 5877SOL    HW217976   2.056   7.431   3.771
 5878SOL     OW17977   3.142   6.513   2.534
 5878SOL    HW117978   3.202   6.432   2.536
 5878SOL    HW217979   3.182   6.582   2.474
 5879SOL     OW17980   2.692   6.859   3.284
 5879SOL    HW117981   2.687   6.892   3.379
 5879SOL    HW217982   2.606   6.878   3.238
 5880SOL     OW17983   2.534   7.202   2.016
 5880SOL    HW117984   2.543   7.212   1.917
 5880SOL    HW217985   2.494   7.113   2.037
 5881SOL     OW17986   3.512   7.306   3.256
 5881SOL    HW117987   3.565   7.316   3.172
 5881SOL    HW217988   3.485   7.396   3.290
 5882SOL     OW17989   2.125   5.912   2.582
 5882SOL    HW117990   2.046   5.963   2.548
 5882SOL    HW217991   2.116   5.897   2.680
 5883SOL     OW17992   3.056   7.198   1.893
 5883SOL    HW117993   3.062   7.105   1.930
 5883SOL    HW217994   2.997   7.198   1.813
 5884SOL     OW17995   2.684   6.588   3.234
 5884SOL    HW117996   2.724   6.587   3.142
 5884SOL    HW217997   2.694   6.680   3.274
 5885SOL     OW17998   2.778   6.496   2.153
 5885SOL    HW117999   2.841   6.534   2.085
 5885SOL    HW218000   2.818   6.413   2.192
 5886SOL     OW18001   3.366   7.193   1.906
 5886SOL    HW118002   3.274   7.230   1.913
 5886SOL    HW218003   3.404   7.213   1.816
 5887SOL     OW18004   2.234   6.874   3.352
 5887SOL    HW118005   2.221   6.967   3.318
 5887SOL    HW218006   2.150   6.822   3.339
 5888SOL     OW18007   3.476   6.878   3.151
 5888SOL    HW118008   3.536   6.881   3.231
 5888SOL    HW218009   3.401   6.942   3.164
 5889SOL     OW18010   2.901   6.684   2.558
 5889SOL    HW118011   2.831   6.637   2.612
 5889SOL    HW218012   2.960   6.616   2.515
 5890SOL     OW18013   2.876   5.822   2.833
 5890SOL    HW118014   2.868   5.786   2.740
 5890SOL    HW218015   2.874   5.746   2.898
 5891SOL     OW18016   2.452   7.073   2.353
 5891SOL    HW118017   2.494   7.015   2.283
 5891SOL    HW218018   2.408   7.152   2.309
 5892SOL     OW18019   3.571   5.971   3.243
 5892SOL    HW118020   3.644   6.040   3.247
 5892SOL    HW218021   3.599   5.896   3.184
 5893SOL     OW18022   2.117   6.934   2.152
 5893SOL    HW118023   2.021   6.935   2.125
 5893SOL    HW218024   2.129   6.987   2.236
 5894SOL     OW18025   1.967   6.599   3.588
 5894SOL    HW118026   1.890   6.566   3.642
 5894SOL    HW218027   2.052   6.569   3.630
 5895SOL     OW18028   2.534   5.789   3.351
 5895SOL    HW118029   2.624   5.773   3.311
 5895SOL    HW218030   2.542   5.794   3.450
 5896SOL     OW18031   1.937   5.931   1.895
 5896SOL    HW118032   1.845   5.903   1.866
 5896SOL    HW218033   1.968   6.008   1.839
 5897SOL     OW18034   3.302   6.442   3.260
 5897SOL    HW118035   3.245   6.494   3.197
 5897SOL    HW218036   3.398   6.454   3.236
 5898SOL     OW18037   1.934   5.752   2.180
 5898SOL    HW118038   1.917   5.835   2.126
 5898SOL    HW218039   2.024   5.715   2.158
 5899SOL     OW18040   3.045   6.921   1.981
 5899SOL    HW118041   2.946   6.910   1.983
 5899SOL    HW218042   3.079   6.936   2.074
 5900SOL     OW18043   2.475   6.428   3.293
 5900SOL    HW118044   2.531   6.509   3.276
 5900SOL    HW218045   2.534   6.348   3.296
 5901SOL     OW18046   3.355   7.353   2.821
 5901SOL    HW118047   3.388   7.417   2.752
 5901SOL    HW218048   3.421   7.347   2.896
 5902SOL     OW18049   2.578   6.151   3.570
 5902SOL    HW118050   2.597   6.216   3.644
 5902SOL    HW218051   2.638   6.071   3.579
 5903SOL     OW18052   3.312   6.806   3.495
 5903SOL    HW118053   3.303   6.796   3.594
 5903SOL    HW218054   3.408   6.799   3.469
 5904SOL     OW18055   2.252   7.327   3.422
 5904SOL    HW118056   2.161   7.368   3.420
 5904SOL    HW218057   2.245   7.233   3.454
 5905SOL     OW18058   3.536   6.469   3.116
 5905SOL    HW118059   3.509   6.380   3.079
 5905SOL    HW218060   3.537   6.537   3.043
 5906SOL     OW18061   3.087   5.911   2.311
 5906SOL    HW118062   3.152   5.837   2.300
 5906SOL    HW218063   3.107   5.961   2.395
 5907SOL     OW18064   2.456   6.331   2.514
 5907SOL    HW118065   2.506   6.416   2.495
 5907SOL    HW218066   2.368   6.333   2.466
 5908SOL     OW18067   3.592   6.520   3.379
 5908SOL    HW118068   3.630   6.611   3.394
 5908SOL    HW218069   3.584   6.503   3.280
 5909SOL     OW18070   2.721   6.960   1.878
 5909SOL    HW118071   2.675   6.975   1.966
 5909SOL    HW218072   2.765   7.045   1.848
 5910SOL     OW18073   2.523   7.376   2.815
 5910SOL    HW118074   2.477   7.464   2.802
 5910SOL    HW218075   2.622   7.388   2.808
 5911SOL     OW18076   2.721   6.542   2.723
 5911SOL    HW118077   2.775   6.473   2.771
 5911SOL    HW218078   2.689   6.611   2.789
 5912SOL     OW18079   2.945   6.570   1.949
 5912SOL    HW118080   2.922   6.623   1.867
 5912SOL    HW218081   3.026   6.514   1.930
 5913SOL     OW18082   3.723   7.155   2.713
 5913SOL    HW118083   3.652   7.143   2.643
 5913SOL    HW218084   3.724   7.076   2.773
 5914SOL     OW18085   2.083   6.900   3.706
 5914SOL    HW118086   2.018   6.827   3.685
 5914SOL    HW218087   2.087   6.914   3.804
 5915SOL     OW18088   1.941   6.826   2.515
 5915SOL    HW118089   1.940   6.779   2.603
 5915SOL    HW218090   2.023   6.798   2.464
 5916SOL     OW18091   2.534   6.977   3.486
 5916SOL    HW118092   2.456   6.927   3.524
 5916SOL    HW218093   2.531   7.072   3.517
 5917SOL     OW18094   2.290   6.010   2.382
 5917SOL    HW118095   2.320   5.938   2.320
 5917SOL    HW218096   2.251   5.970   2.465
 5918SOL     OW18097   3.567   7.073   2.966
 5918SOL    HW118098   3.474   7.048   2.939
 5918SOL    HW218099   3.593   7.023   3.048
 5919SOL     OW18100   2.179   6.133   3.142
 5919SOL    HW118101   2.217   6.074   3.214
 5919SOL    HW218102   2.219   6.107   3.054
 5920SOL     OW18103   2.674   7.172   2.549
 5920SOL    HW118104   2.706   7.182   2.455
 5920SOL    HW218105   2.595   7.110   2.551
 5921SOL     OW18106   3.286   5.800   2.974
 5921SOL    HW118107   3.338   5.735   3.029
 5921SOL    HW218108   3.237   5.863   3.035
 5922SOL     OW18109   2.863   5.620   3.016
 5922SOL    HW118110   2.800   5.548   2.985
 5922SOL    HW218111   2.956   5.584   3.016
 5923SOL     OW18112   2.632   6.916   2.163
 5923SOL    HW118113   2.586   6.829   2.180
 5923SOL    HW218114   2.723   6.913   2.204
 5924SOL     OW18115   2.480   7.153   3.146
 5924SOL    HW118116   2.475   7.235   3.203
 5924SOL    HW218117   2.569   7.150   3.101
 5925SOL     OW18118   3.214   5.638   2.030
 5925SOL    HW118119   3.249   5.597   1.946
 5925SOL    HW218120   3.124   5.600   2.050
 5926SOL     OW18121   3.162   6.039   2.553
 5926SOL    HW118122   3.103   6.119   2.557
 5926SOL    HW218123   3.177   6.004   2.646
 5927SOL     OW18124   3.455   5.807   2.744
 5927SOL    HW118125   3.371   5.806   2.798
 5927SOL    HW218126   3.457   5.890   2.688
 5928SOL     OW18127   1.901   6.663   2.162
 5928SOL    HW118128   2.000   6.652   2.153
 5928SOL    HW218129   1.861   6.577   2.194
 5929SOL     OW18130   2.737   7.232   2.199
 5929SOL    HW118131   2.660   7.197   2.145
 5929SOL    HW218132   2.705   7.303   2.261
 5930SOL     OW18133   2.092   6.214   3.837
 5930SOL    HW118134   1.999   6.212   3.874
 5930SOL    HW218135   2.093   6.175   3.745
 5931SOL     OW18136   2.087   5.861   4.720
 5931SOL    HW118137   2.122   5.844   4.812
 5931SOL    HW218138   1.999   5.816   4.708
 5932SOL     OW18139   1.881   5.954   4.371
 5932SOL    HW118140   1.799   5.997   4.410
 5932SOL    HW218141   1.853   5.881   4.308
 5933SOL     OW18142   2.431   6.861   4.889
 5933SOL    HW118143   2.338   6.854   4.852
 5933SOL    HW218144   2.442   6.950   4.933
 5934SOL     OW18145   3.417   7.097   4.427
 5934SOL    HW118146   3.360   7.081   4.508
 5934SOL    HW218147   3.358   7.107   4.347
 5935SOL     OW18148   2.997   6.289   4.441
 5935SOL    HW118149   3.054   6.367   4.416
 5935SOL    HW218150   2.937   6.315   4.517
 5936SOL     OW18151   3.617   6.193   3.955
 5936SOL    HW118152   3.605   6.180   3.856
 5936SOL    HW218153   3.587   6.112   4.004
 5937SOL     OW18154   2.630   6.730   4.747
 5937SOL    HW118155   2.552   6.747   4.807
 5937SOL    HW218156   2.664   6.817   4.711
 5938SOL     OW18157   2.712   6.384   5.547
 5938SOL    HW118158   2.708   6.460   5.612
 5938SOL    HW218159   2.734   6.420   5.456
 5939SOL     OW18160   2.547   6.598   4.389
 5939SOL    HW118161   2.616   6.582   4.459
 5939SOL    HW218162   2.474   6.655   4.427
 5940SOL     OW18163   2.548   6.747   5.527
 5940SOL    HW118164   2.608   6.826   5.541
 5940SOL    HW218165   2.462   6.778   5.486
 5941SOL     OW18166   2.197   7.021   4.785
 5941SOL    HW118167   2.119   6.990   4.732
 5941SOL    HW218168   2.255   7.079   4.728
 5942SOL     OW18169   3.322   7.091   5.063
 5942SOL    HW118170   3.346   7.185   5.089
 5942SOL    HW218171   3.306   7.037   5.145
 5943SOL     OW18172   3.465   6.033   4.461
 5943SOL    HW118173   3.391   6.079   4.411
 5943SOL    HW218174   3.516   6.101   4.514
 5944SOL     OW18175   2.093   7.299   4.207
 5944SOL    HW118176   2.127   7.376   4.261
 5944SOL    HW218177   2.137   7.299   4.117
 5945SOL     OW18178   2.989   6.927   5.414
 5945SOL    HW118179   3.036   6.927   5.502
 5945SOL    HW218180   2.941   6.840   5.403
 5946SOL     OW18181   2.092   7.020   4.262
 5946SOL    HW118182   2.066   7.116   4.262
 5946SOL    HW218183   2.021   6.966   4.307
 5947SOL     OW18184   2.102   6.677   4.610
 5947SOL    HW118185   2.116   6.593   4.662
 5947SOL    HW218186   2.047   6.741   4.665
 5948SOL     OW18187   2.482   7.372   5.163
 5948SOL    HW118188   2.390   7.355   5.198
 5948SOL    HW218189   2.510   7.464   5.189
 5949SOL     OW18190   2.468   6.550   3.847
 5949SOL    HW118191   2.475   6.634   3.793
 5949SOL    HW218192   2.514   6.563   3.935
 5950SOL     OW18193   3.456   5.700   5.204
 5950SOL    HW118194   3.438   5.767   5.132
 5950SOL    HW218195   3.453   5.746   5.293
 5951SOL     OW18196   1.984   6.229   4.287
 5951SOL    HW118197   1.939   6.141   4.304
 5951SOL    HW218198   1.983   6.283   4.371
 5952SOL     OW18199   3.704   7.353   4.083
 5952SOL    HW118200   3.758   7.324   4.163
 5952SOL    HW218201   3.734   7.443   4.054
 5953SOL     OW18202   1.889   7.182   3.841
 5953SOL    HW118203   1.870   7.086   3.862
 5953SOL    HW218204   1.856   7.240   3.916
 5954SOL     OW18205   3.551   6.508   4.336
 5954SOL    HW118206   3.646   6.479   4.344
 5954SOL    HW218207   3.543   6.573   4.261
 5955SOL     OW18208   3.503   6.694   4.156
 5955SOL    HW118209   3.589   6.696   4.104
 5955SOL    HW218210   3.517   6.741   4.244
 5956SOL     OW18211   1.975   6.323   5.321
 5956SOL    HW118212   2.063   6.310   5.366
 5956SOL    HW218213   1.962   6.420   5.299
 5957SOL     OW18214   2.475   6.951   4.450
 5957SOL    HW118215   2.426   6.864   4.459
 5957SOL    HW218216   2.452   6.994   4.363
 5958SOL     OW18217   3.155   6.814   5.147
 5958SOL    HW118218   3.192   6.741   5.089
 5958SOL    HW218219   3.207   6.819   5.232
 5959SOL     OW18220   2.671   5.590   4.226
 5959SOL    HW118221   2.711   5.681   4.217
 5959SOL    HW218222   2.571   5.598   4.232
 5960SOL     OW18223   2.059   6.562   4.988
 5960SOL    HW118224   2.148   6.517   4.974
 5960SOL    HW218225   1.986   6.497   4.969
 5961SOL     OW18226   3.387   6.585   3.914
 5961SOL    HW118227   3.324   6.509   3.927
 5961SOL    HW218228   3.435   6.603   4.000
 5962SOL     OW18229   3.049   7.378   5.340
 5962SOL    HW118230   3.073   7.438   5.264
 5962SOL    HW218231   3.056   7.283   5.310
 5963SOL     OW18232   2.179   5.837   5.525
 5963SOL    HW118233   2.250   5.908   5.531
 5963SOL    HW218234   2.091   5.876   5.553
 5964SOL     OW18235   3.328   7.003   4.677
 5964SOL    HW118236   3.269   7.009   4.757
 5964SOL    HW218237   3.313   6.915   4.631
 5965SOL     OW18238   3.529   7.300   4.296
 5965SOL    HW118239   3.488   7.277   4.208
 5965SOL    HW218240   3.511   7.226   4.361
 5966SOL     OW18241   2.460   6.315   3.994
 5966SOL    HW118242   2.484   6.384   3.926
 5966SOL    HW218243   2.382   6.348   4.048
 5967SOL     OW18244   3.438   7.248   4.031
 5967SOL    HW118245   3.527   7.294   4.034
 5967SOL    HW218246   3.417   7.224   3.936
 5968SOL     OW18247   2.669   6.191   5.189
 5968SOL    HW118248   2.622   6.188   5.278
 5968SOL    HW218249   2.618   6.136   5.123
 5969SOL     OW18250   3.256   6.055   5.398
 5969SOL    HW118251   3.236   6.098   5.486
 5969SOL    HW218252   3.334   5.993   5.407
 5970SOL     OW18253   2.835   6.476   5.296
 5970SOL    HW118254   2.881   6.392   5.267
 5970SOL    HW218255   2.779   6.510   5.221
 5971SOL     OW18256   2.903   6.287   4.153
 5971SOL    HW118257   2.929   6.283   4.249
 5971SOL    HW218258   2.818   6.236   4.139
 5972SOL     OW18259   1.938   6.397   4.513
 5972SOL    HW118260   2.037   6.385   4.522
 5972SOL    HW218261   1.914   6.492   4.534
 5973SOL     OW18262   1.992   7.407   5.295
 5973SOL    HW118263   1.982   7.392   5.394
 5973SOL    HW218264   1.906   7.443   5.259
 5974SOL     OW18265   2.727   5.934   3.919
 5974SOL    HW118266   2.786   5.997   3.870
 5974SOL    HW218267   2.746   5.840   3.890
 5975SOL     OW18268   3.581   6.171   5.555
 5975SOL    HW118269   3.555   6.260   5.519
 5975SOL    HW218270   3.579   6.103   5.482
 5976SOL     OW18271   3.224   6.730   4.269
 5976SOL    HW118272   3.307   6.701   4.221
 5976SOL    HW218273   3.175   6.797   4.213
 5977SOL     OW18274   2.870   7.042   4.201
 5977SOL    HW118275   2.824   7.114   4.149
 5977SOL    HW218276   2.866   7.062   4.299
 5978SOL     OW18277   2.213   7.387   4.577
 5978SOL    HW118278   2.263   7.301   4.583
 5978SOL    HW218279   2.278   7.464   4.574
 5979SOL     OW18280   3.657   6.652   4.597
 5979SOL    HW118281   3.595   6.637   4.521
 5979SOL    HW218282   3.605   6.663   4.682
 5980SOL     OW18283   3.089   7.136   5.230
 5980SOL    HW118284   3.095   7.059   5.294
 5980SOL    HW218285   3.037   7.110   5.150
 5981SOL     OW18286   2.183   6.529   3.966
 5981SOL    HW118287   2.265   6.568   3.924
 5981SOL    HW218288   2.156   6.447   3.917
 5982SOL     OW18289   3.320   6.321   4.452
 5982SOL    HW118290   3.315   6.256   4.527
 5982SOL    HW218291   3.400   6.380   4.465
 5983SOL     OW18292   2.323   6.852   5.451
 5983SOL    HW118293   2.273   6.853   5.365
 5983SOL    HW218294   2.260   6.834   5.527
 5984SOL     OW18295   2.064   5.871   5.222
 5984SOL    HW118296   1.984   5.931   5.209
 5984SOL    HW218297   2.054   5.822   5.308
 5985SOL     OW18298   3.494   6.963   3.805
 5985SOL    HW118299   3.462   7.057   3.795
 5985SOL    HW218300   3.418   6.900   3.793
 5986SOL     OW18301   2.326   7.329   4.047
 5986SOL    HW118302   2.359   7.368   4.133
 5986SOL    HW218303   2.402   7.322   3.982
 5987SOL     OW18304   2.111   7.371   4.965
 5987SOL    HW118305   2.168   7.306   5.015
 5987SOL    HW218306   2.095   7.338   4.872
 5988SOL     OW18307   2.802   7.284   4.628
 5988SOL    HW118308   2.882   7.227   4.649
 5988SOL    HW218309   2.753   7.244   4.551
 5989SOL     OW18310   2.244   6.286   4.204
 5989SOL    HW118311   2.289   6.196   4.201
 5989SOL    HW218312   2.150   6.275   4.237
 5990SOL     OW18313   3.409   5.808   5.453
 5990SOL    HW118314   3.404   5.845   5.545
 5990SOL    HW218315   3.337   5.739   5.441
 5991SOL     OW18316   2.476   5.708   3.841
 5991SOL    HW118317   2.574   5.686   3.848
 5991SOL    HW218318   2.445   5.691   3.748
 5992SOL     OW18319   2.643   5.850   5.473
 5992SOL    HW118320   2.710   5.789   5.516
 5992SOL    HW218321   2.570   5.869   5.538
 5993SOL     OW18322   2.750   7.100   4.919
 5993SOL    HW118323   2.727   7.075   4.825
 5993SOL    HW218324   2.811   7.031   4.958
 5994SOL     OW18325   2.665   6.988   4.648
 5994SOL    HW118326   2.755   7.002   4.606
 5994SOL    HW218327   2.594   6.990   4.577
 5995SOL     OW18328   2.401   5.650   4.236
 5995SOL    HW118329   2.320   5.651   4.294
 5995SOL    HW218330   2.404   5.733   4.181
 5996SOL     OW18331   3.296   6.774   3.765
 5996SOL    HW118332   3.328   6.698   3.822
 5996SOL    HW218333   3.204   6.801   3.795
 5997SOL     OW18334   2.159   5.621   3.895
 5997SOL    HW118335   2.208   5.705   3.874
 5997SOL    HW218336   2.221   5.556   3.940
 5998SOL     OW18337   2.938   6.269   5.188
 5998SOL    HW118338   2.858   6.208   5.191
 5998SOL    HW218339   3.019   6.216   5.164
 5999SOL     OW18340   3.089   7.156   4.517
 5999SOL    HW118341   3.110   7.230   4.452
 5999SOL    HW218342   3.157   7.156   4.590
 6000SOL     OW18343   2.321   6.738   4.465
 6000SOL    HW118344   2.250   6.711   4.530
 6000SOL    HW218345   2.295   6.710   4.372
 6001SOL     OW18346   2.894   6.135   3.740
 6001SOL    HW118347   2.853   6.217   3.701
 6001SOL    HW218348   2.958   6.161   3.813
 6002SOL     OW18349   2.728   6.040   4.366
 6002SOL    HW118350   2.696   6.112   4.304
 6002SOL    HW218351   2.752   5.959   4.313
 6003SOL     OW18352   3.291   6.759   4.591
 6003SOL    HW118353   3.236   6.675   4.584
 6003SOL    HW218354   3.317   6.788   4.499
 6004SOL     OW18355   3.719   6.419   4.101
 6004SOL    HW118356   3.761   6.355   4.165
 6004SOL    HW218357   3.681   6.368   4.023
 6005SOL     OW18358   2.350   6.971   3.898
 6005SOL    HW118359   2.263   6.956   3.945
 6005SOL    HW218360   2.333   6.997   3.803
 6006SOL     OW18361   3.526   6.866   4.381
 6006SOL    HW118362   3.625   6.874   4.395
 6006SOL    HW218363   3.481   6.950   4.412
 6007SOL     OW18364   2.389   5.842   4.052
 6007SOL    HW118365   2.416   5.783   3.977
 6007SOL    HW218366   2.389   5.937   4.021
 6008SOL     OW18367   3.616   6.809   5.312
 6008SOL    HW118368   3.707   6.770   5.299
 6008SOL    HW218369   3.624   6.905   5.336
 6009SOL     OW18370   2.926   6.933   5.064
 6009SOL    HW118371   2.846   6.910   5.119
 6009SOL    HW218372   3.009   6.907   5.113
 6010SOL     OW18373   3.454   7.215   5.349
 6010SOL    HW118374   3.481   7.249   5.259
 6010SOL    HW218375   3.533   7.177   5.395
 6011SOL     OW18376   2.973   6.781   4.824
 6011SOL    HW118377   2.933   6.825   4.905
 6011SOL    HW218378   2.932   6.818   4.741
 6012SOL     OW18379   3.500   6.685   4.803
 6012SOL    HW118380   3.505   6.766   4.862
 6012SOL    HW218381   3.414   6.687   4.752
 6013SOL     OW18382   2.777   5.675   5.126
 6013SOL    HW118383   2.802   5.655   5.031
 6013SOL    HW218384   2.849   5.731   5.168
 6014SOL     OW18385   2.842   6.702   5.443
 6014SOL    HW118386   2.743   6.708   5.453
 6014SOL    HW218387   2.865   6.622   5.387
 6015SOL     OW18388   2.567   6.636   4.092
 6015SOL    HW118389   2.553   6.643   4.191
 6015SOL    HW218390   2.651   6.585   4.074
 6016SOL     OW18391   2.272   6.399   4.975
 6016SOL    HW118392   2.358   6.411   5.025
 6016SOL    HW218393   2.230   6.312   5.002
 6017SOL     OW18394   1.926   7.150   5.055
 6017SOL    HW118395   1.880   7.232   5.021
 6017SOL    HW218396   2.024   7.169   5.064
 6018SOL     OW18397   2.229   6.686   4.225
 6018SOL    HW118398   2.222   6.769   4.169
 6018SOL    HW218399   2.233   6.606   4.165
 6019SOL     OW18400   2.428   6.123   4.589
 6019SOL    HW118401   2.440   6.189   4.515
 6019SOL    HW218402   2.474   6.157   4.672
 6020SOL     OW18403   3.114   6.934   4.112
 6020SOL    HW118404   3.164   7.011   4.152
 6020SOL    HW218405   3.019   6.936   4.144
 6021SOL     OW18406   3.134   7.031   4.866
 6021SOL    HW118407   3.181   7.044   4.953
 6021SOL    HW218408   3.068   6.957   4.875
 6022SOL     OW18409   3.444   6.225   4.196
 6022SOL    HW118410   3.413   6.286   4.269
 6022SOL    HW218411   3.494   6.277   4.127
 6023SOL     OW18412   2.216   7.096   5.053
 6023SOL    HW118413   2.195   7.052   4.966
 6023SOL    HW218414   2.313   7.122   5.056
 6024SOL     OW18415   2.264   6.337   5.322
 6024SOL    HW118416   2.332   6.392   5.275
 6024SOL    HW218417   2.304   6.249   5.349
 6025SOL     OW18418   3.449   6.365   5.394
 6025SOL    HW118419   3.357   6.403   5.389
 6025SOL    HW218420   3.509   6.412   5.329
 6026SOL     OW18421   2.875   5.691   5.494
 6026SOL    HW118422   2.881   5.776   5.442
 6026SOL    HW218423   2.907   5.615   5.437
 6027SOL     OW18424   2.366   5.636   5.464
 6027SOL    HW118425   2.324   5.579   5.394
 6027SOL    HW218426   2.300   5.705   5.496
 6028SOL     OW18427   2.435   6.456   4.753
 6028SOL    HW118428   2.479   6.545   4.744
 6028SOL    HW218429   2.372   6.456   4.830
 6029SOL     OW18430   3.071   6.111   3.999
 6029SOL    HW118431   3.084   6.027   4.053
 6029SOL    HW218432   3.042   6.185   4.059
 6030SOL     OW18433   1.899   6.896   5.006
 6030SOL    HW118434   1.952   6.847   5.074
 6030SOL    HW218435   1.921   6.994   5.011
 6031SOL     OW18436   2.594   6.220   4.788
 6031SOL    HW118437   2.653   6.194   4.712
 6031SOL    HW218438   2.566   6.316   4.777
 6032SOL     OW18439   3.590   6.521   5.578
 6032SOL    HW118440   3.544   6.514   5.489
 6032SOL    HW218441   3.528   6.565   5.644
 6033SOL     OW18442   2.169   5.649   4.342
 6033SOL    HW118443   2.158   5.743   4.375
 6033SOL    HW218444   2.164   5.586   4.419
 6034SOL     OW18445   2.885   6.352   4.690
 6034SOL    HW118446   2.900   6.373   4.786
 6034SOL    HW218447   2.855   6.257   4.681
 6035SOL     OW18448   2.842   7.159   5.424
 6035SOL    HW118449   2.822   7.203   5.336
 6035SOL    HW218450   2.881   7.068   5.408
 6036SOL     OW18451   3.721   7.104   5.329
 6036SOL    HW118452   3.735   7.131   5.234
 6036SOL    HW218453   3.804   7.126   5.382
 6037SOL     OW18454   2.212   6.484   5.528
 6037SOL    HW118455   2.288   6.528   5.576
 6037SOL    HW218456   2.247   6.437   5.446
 6038SOL     OW18457   3.165   6.424   3.766
 6038SOL    HW118458   3.199   6.331   3.781
 6038SOL    HW218459   3.183   6.451   3.671
 6039SOL     OW18460   2.930   6.919   4.573
 6039SOL    HW118461   2.937   6.835   4.518
 6039SOL    HW218462   2.992   6.988   4.537
 6040SOL     OW18463   2.181   6.396   4.673
 6040SOL    HW118464   2.274   6.432   4.678
 6040SOL    HW218465   2.175   6.311   4.725
 6041SOL     OW18466   3.000   5.966   5.402
 6041SOL    HW118467   2.955   6.029   5.466
 6041SOL    HW218468   3.093   5.997   5.385
 6042SOL     OW18469   3.022   5.793   5.201
 6042SOL    HW118470   3.022   5.857   5.278
 6042SOL    HW218471   3.050   5.841   5.118
 6043SOL     OW18472   1.870   6.912   3.924
 6043SOL    HW118473   1.777   6.933   3.893
 6043SOL    HW218474   1.880   6.813   3.937
 6044SOL     OW18475   1.950   7.387   4.651
 6044SOL    HW118476   1.908   7.301   4.624
 6044SOL    HW218477   2.044   7.390   4.617
 6045SOL     OW18478   2.366   7.154   4.634
 6045SOL    HW118479   2.432   7.228   4.643
 6045SOL    HW218480   2.410   7.075   4.592
 6046SOL     OW18481   2.864   6.382   4.962
 6046SOL    HW118482   2.905   6.350   5.048
 6046SOL    HW218483   2.768   6.355   4.959
 6047SOL     OW18484   2.051   6.106   5.446
 6047SOL    HW118485   2.110   6.066   5.376
 6047SOL    HW218486   1.993   6.177   5.405
 6048SOL     OW18487   2.677   6.158   4.049
 6048SOL    HW118488   2.684   6.069   4.003
 6048SOL    HW218489   2.583   6.192   4.041
 6049SOL     OW18490   3.519   6.190   4.930
 6049SOL    HW118491   3.481   6.121   4.992
 6049SOL    HW218492   3.601   6.154   4.886
 6050SOL     OW18493   2.114   7.150   5.468
 6050SOL    HW118494   2.084   7.207   5.544
 6050SOL    HW218495   2.107   7.053   5.494
 6051SOL     OW18496   2.792   7.264   5.189
 6051SOL    HW118497   2.768   7.246   5.094
 6051SOL    HW218498   2.822   7.358   5.199
 6052SOL     OW18499   2.335   6.086   3.915
 6052SOL    HW118500   2.396   6.166   3.919
 6052SOL    HW218501   2.240   6.117   3.922
 6053SOL     OW18502   2.021   6.723   5.190
 6053SOL    HW118503   2.043   6.662   5.266
 6053SOL    HW218504   2.031   6.674   5.104
 6054SOL     OW18505   3.209   6.645   4.958
 6054SOL    HW118506   3.233   6.582   4.884
 6054SOL    HW218507   3.119   6.685   4.940
 6055SOL     OW18508   3.164   6.441   4.033
 6055SOL    HW118509   3.078   6.410   4.075
 6055SOL    HW218510   3.160   6.427   3.934
 6056SOL     OW18511   3.621   7.333   4.878
 6056SOL    HW118512   3.682   7.363   4.805
 6056SOL    HW218513   3.583   7.244   4.856
 6057SOL     OW18514   3.114   7.317   4.852
 6057SOL    HW118515   3.198   7.322   4.798
 6057SOL    HW218516   3.091   7.221   4.870
 6058SOL     OW18517   1.945   6.844   4.746
 6058SOL    HW118518   1.940   6.843   4.846
 6058SOL    HW218519   1.862   6.803   4.708
 6059SOL     OW18520   2.550   7.248   5.440
 6059SOL    HW118521   2.494   7.329   5.449
 6059SOL    HW218522   2.602   7.252   5.354
 6060SOL     OW18523   3.250   7.159   4.201
 6060SOL    HW118524   3.317   7.171   4.127
 6060SOL    HW218525   3.210   7.248   4.224
 6061SOL     OW18526   1.992   7.380   5.575
 6061SOL    HW118527   1.951   7.306   5.628
 6061SOL    HW218528   2.056   7.431   5.633
 6062SOL     OW18529   3.142   6.513   4.396
 6062SOL    HW118530   3.202   6.432   4.398
 6062SOL    HW218531   3.182   6.582   4.336
 6063SOL     OW18532   2.692   6.859   5.146
 6063SOL    HW118533   2.687   6.892   5.241
 6063SOL    HW218534   2.606   6.878   5.100
 6064SOL     OW18535   2.534   7.202   3.878
 6064SOL    HW118536   2.543   7.212   3.779
 6064SOL    HW218537   2.494   7.113   3.899
 6065SOL     OW18538   3.512   7.306   5.118
 6065SOL    HW118539   3.565   7.316   5.034
 6065SOL    HW218540   3.485   7.396   5.152
 6066SOL     OW18541   3.703   5.761   4.687
 6066SOL    HW118542   3.742   5.676   4.651
 6066SOL    HW218543   3.605   5.763   4.668
 6067SOL     OW18544   2.125   5.912   4.444
 6067SOL    HW118545   2.046   5.963   4.410
 6067SOL    HW218546   2.116   5.897   4.542
 6068SOL     OW18547   3.056   7.198   3.755
 6068SOL    HW118548   3.062   7.105   3.792
 6068SOL    HW218549   2.997   7.198   3.675
 6069SOL     OW18550   2.684   6.588   5.096
 6069SOL    HW118551   2.724   6.587   5.004
 6069SOL    HW218552   2.694   6.680   5.136
 6070SOL     OW18553   2.778   6.496   4.015
 6070SOL    HW118554   2.841   6.534   3.947
 6070SOL    HW218555   2.818   6.413   4.054
 6071SOL     OW18556   3.366   7.193   3.768
 6071SOL    HW118557   3.274   7.230   3.775
 6071SOL    HW218558   3.404   7.213   3.678
 6072SOL     OW18559   2.234   6.874   5.214
 6072SOL    HW118560   2.221   6.967   5.180
 6072SOL    HW218561   2.150   6.822   5.201
 6073SOL     OW18562   3.476   6.878   5.013
 6073SOL    HW118563   3.536   6.881   5.093
 6073SOL    HW218564   3.401   6.942   5.026
 6074SOL     OW18565   2.901   6.684   4.420
 6074SOL    HW118566   2.831   6.637   4.474
 6074SOL    HW218567   2.960   6.616   4.377
 6075SOL     OW18568   2.452   7.073   4.215
 6075SOL    HW118569   2.494   7.015   4.145
 6075SOL    HW218570   2.408   7.152   4.171
 6076SOL     OW18571   3.571   5.971   5.105
 6076SOL    HW118572   3.644   6.040   5.109
 6076SOL    HW218573   3.599   5.896   5.046
 6077SOL     OW18574   2.117   6.934   4.014
 6077SOL    HW118575   2.021   6.935   3.987
 6077SOL    HW218576   2.129   6.987   4.098
 6078SOL     OW18577   1.967   6.599   5.450
 6078SOL    HW118578   1.890   6.566   5.504
 6078SOL    HW218579   2.052   6.569   5.492
 6079SOL     OW18580   1.937   5.931   3.757
 6079SOL    HW118581   1.845   5.903   3.728
 6079SOL    HW218582   1.968   6.008   3.701
 6080SOL     OW18583   1.934   5.752   4.042
 6080SOL    HW118584   1.917   5.835   3.988
 6080SOL    HW218585   2.024   5.715   4.020
 6081SOL     OW18586   3.045   6.921   3.843
 6081SOL    HW118587   2.946   6.910   3.845
 6081SOL    HW218588   3.079   6.936   3.936
 6082SOL     OW18589   2.475   6.428   5.155
 6082SOL    HW118590   2.531   6.509   5.138
 6082SOL    HW218591   2.534   6.348   5.158
 6083SOL     OW18592   3.355   7.353   4.683
 6083SOL    HW118593   3.388   7.417   4.614
 6083SOL    HW218594   3.421   7.347   4.758
 6084SOL     OW18595   2.578   6.151   5.432
 6084SOL    HW118596   2.597   6.216   5.506
 6084SOL    HW218597   2.638   6.071   5.441
 6085SOL     OW18598   3.312   6.806   5.357
 6085SOL    HW118599   3.303   6.796   5.456
 6085SOL    HW218600   3.408   6.799   5.331
 6086SOL     OW18601   2.252   7.327   5.284
 6086SOL    HW118602   2.161   7.368   5.282
 6086SOL    HW218603   2.245   7.233   5.316
 6087SOL     OW18604   2.456   6.331   4.376
 6087SOL    HW118605   2.506   6.416   4.357
 6087SOL    HW218606   2.368   6.333   4.328
 6088SOL     OW18607   3.639   5.928   5.366
 6088SOL    HW118608   3.622   5.959   5.272
 6088SOL    HW218609   3.555   5.891   5.404
 6089SOL     OW18610   3.592   6.520   5.241
 6089SOL    HW118611   3.630   6.611   5.256
 6089SOL    HW218612   3.584   6.503   5.142
 6090SOL     OW18613   2.721   6.960   3.740
 6090SOL    HW118614   2.675   6.975   3.828
 6090SOL    HW218615   2.765   7.045   3.710
 6091SOL     OW18616   2.523   7.376   4.677
 6091SOL    HW118617   2.477   7.464   4.664
 6091SOL    HW218618   2.622   7.388   4.670
 6092SOL     OW18619   2.721   6.542   4.585
 6092SOL    HW118620   2.775   6.473   4.633
 6092SOL    HW218621   2.689   6.611   4.651
 6093SOL     OW18622   2.945   6.570   3.811
 6093SOL    HW118623   2.922   6.623   3.729
 6093SOL    HW218624   3.026   6.514   3.792
 6094SOL     OW18625   3.723   7.155   4.575
 6094SOL    HW118626   3.652   7.143   4.505
 6094SOL    HW218627   3.724   7.076   4.635
 6095SOL     OW18628   2.083   6.900   5.568
 6095SOL    HW118629   2.018   6.827   5.547
 6095SOL    HW218630   2.087   6.914   5.666
 6096SOL     OW18631   1.941   6.826   4.377
 6096SOL    HW118632   1.940   6.779   4.465
 6096SOL    HW218633   2.023   6.798   4.326
 6097SOL     OW18634   2.534   6.977   5.348
 6097SOL    HW118635   2.456   6.927   5.386
 6097SOL    HW218636   2.531   7.072   5.379
 6098SOL     OW18637   3.686   5.778   4.951
 6098SOL    HW118638   3.682   5.688   4.995
 6098SOL    HW218639   3.689   5.767   4.852
 6099SOL     OW18640   2.290   6.010   4.244
 6099SOL    HW118641   2.320   5.938   4.182
 6099SOL    HW218642   2.251   5.970   4.327
 6100SOL     OW18643   3.567   7.073   4.828
 6100SOL    HW118644   3.474   7.048   4.801
 6100SOL    HW218645   3.593   7.023   4.910
 6101SOL     OW18646   2.674   7.172   4.411
 6101SOL    HW118647   2.706   7.182   4.317
 6101SOL    HW218648   2.595   7.110   4.413
 6102SOL     OW18649   2.863   5.620   4.878
 6102SOL    HW118650   2.800   5.548   4.847
 6102SOL    HW218651   2.956   5.584   4.878
 6103SOL     OW18652   2.632   6.916   4.025
 6103SOL    HW118653   2.586   6.829   4.042
 6103SOL    HW218654   2.723   6.913   4.066
 6104SOL     OW18655   2.480   7.153   5.008
 6104SOL    HW118656   2.475   7.235   5.065
 6104SOL    HW218657   2.569   7.150   4.963
 6105SOL     OW18658   3.214   5.638   3.892
 6105SOL    HW118659   3.249   5.597   3.808
 6105SOL    HW218660   3.124   5.600   3.912
 6106SOL     OW18661   3.162   6.039   4.415
 6106SOL    HW118662   3.103   6.119   4.419
 6106SOL    HW218663   3.177   6.004   4.508
 6107SOL     OW18664   3.455   5.807   4.606
 6107SOL    HW118665   3.371   5.806   4.660
 6107SOL    HW218666   3.457   5.890   4.550
 6108SOL     OW18667   1.901   6.663   4.024
 6108SOL    HW118668   2.000   6.652   4.015
 6108SOL    HW218669   1.861   6.577   4.056
 6109SOL     OW18670   2.737   7.232   4.061
 6109SOL    HW118671   2.660   7.197   4.007
 6109SOL    HW218672   2.705   7.303   4.123
 6110SOL     OW18673   2.092   6.214   5.699
 6110SOL    HW118674   1.999   6.212   5.736
 6110SOL    HW218675   2.093   6.175   5.607
 6111SOL     OW18676   2.087   5.861   6.582
 6111SOL    HW118677   2.122   5.844   6.674
 6111SOL    HW218678   1.999   5.816   6.570
 6112SOL     OW18679   1.881   5.954   6.233
 6112SOL    HW118680   1.799   5.997   6.272
 6112SOL    HW218681   1.853   5.881   6.170
 6113SOL     OW18682   2.431   6.861   6.751
 6113SOL    HW118683   2.338   6.854   6.714
 6113SOL    HW218684   2.442   6.950   6.795
 6114SOL     OW18685   3.417   7.097   6.289
 6114SOL    HW118686   3.360   7.081   6.370
 6114SOL    HW218687   3.358   7.107   6.209
 6115SOL     OW18688   2.997   6.289   6.303
 6115SOL    HW118689   3.054   6.367   6.278
 6115SOL    HW218690   2.937   6.315   6.379
 6116SOL     OW18691   3.617   6.193   5.817
 6116SOL    HW118692   3.605   6.180   5.718
 6116SOL    HW218693   3.587   6.112   5.866
 6117SOL     OW18694   2.630   6.730   6.609
 6117SOL    HW118695   2.552   6.747   6.669
 6117SOL    HW218696   2.664   6.817   6.573
 6118SOL     OW18697   2.547   6.598   6.251
 6118SOL    HW118698   2.616   6.582   6.321
 6118SOL    HW218699   2.474   6.655   6.289
 6119SOL     OW18700   2.197   7.021   6.647
 6119SOL    HW118701   2.119   6.990   6.594
 6119SOL    HW218702   2.255   7.079   6.590
 6120SOL     OW18703   3.465   6.033   6.323
 6120SOL    HW118704   3.391   6.079   6.273
 6120SOL    HW218705   3.516   6.101   6.376
 6121SOL     OW18706   2.093   7.299   6.069
 6121SOL    HW118707   2.127   7.376   6.123
 6121SOL    HW218708   2.137   7.299   5.979
 6122SOL     OW18709   2.092   7.020   6.124
 6122SOL    HW118710   2.066   7.116   6.124
 6122SOL    HW218711   2.021   6.966   6.169
 6123SOL     OW18712   2.102   6.677   6.472
 6123SOL    HW118713   2.116   6.593   6.524
 6123SOL    HW218714   2.047   6.741   6.527
 6124SOL     OW18715   2.468   6.550   5.709
 6124SOL    HW118716   2.475   6.634   5.655
 6124SOL    HW218717   2.514   6.563   5.797
 6125SOL     OW18718   1.984   6.229   6.149
 6125SOL    HW118719   1.939   6.141   6.166
 6125SOL    HW218720   1.983   6.283   6.233
 6126SOL     OW18721   3.704   7.353   5.945
 6126SOL    HW118722   3.758   7.324   6.025
 6126SOL    HW218723   3.734   7.443   5.916
 6127SOL     OW18724   1.889   7.182   5.703
 6127SOL    HW118725   1.870   7.086   5.724
 6127SOL    HW218726   1.856   7.240   5.778
 6128SOL     OW18727   3.551   6.508   6.198
 6128SOL    HW118728   3.646   6.479   6.206
 6128SOL    HW218729   3.543   6.573   6.123
 6129SOL     OW18730   3.503   6.694   6.018
 6129SOL    HW118731   3.589   6.696   5.966
 6129SOL    HW218732   3.517   6.741   6.106
 6130SOL     OW18733   2.475   6.951   6.312
 6130SOL    HW118734   2.426   6.864   6.321
 6130SOL    HW218735   2.452   6.994   6.225
 6131SOL     OW18736   2.671   5.590   6.088
 6131SOL    HW118737   2.711   5.681   6.079
 6131SOL    HW218738   2.571   5.598   6.094
 6132SOL     OW18739   3.387   6.585   5.776
 6132SOL    HW118740   3.324   6.509   5.789
 6132SOL    HW218741   3.435   6.603   5.862
 6133SOL     OW18742   3.328   7.003   6.539
 6133SOL    HW118743   3.269   7.009   6.619
 6133SOL    HW218744   3.313   6.915   6.493
 6134SOL     OW18745   3.529   7.300   6.158
 6134SOL    HW118746   3.488   7.277   6.070
 6134SOL    HW218747   3.511   7.226   6.223
 6135SOL     OW18748   2.460   6.315   5.856
 6135SOL    HW118749   2.484   6.384   5.788
 6135SOL    HW218750   2.382   6.348   5.910
 6136SOL     OW18751   3.143   5.931   6.530
 6136SOL    HW118752   3.057   5.881   6.517
 6136SOL    HW218753   3.205   5.877   6.586
 6137SOL     OW18754   3.438   7.248   5.893
 6137SOL    HW118755   3.527   7.294   5.896
 6137SOL    HW218756   3.417   7.224   5.798
 6138SOL     OW18757   2.853   5.996   6.828
 6138SOL    HW118758   2.776   6.030   6.882
 6138SOL    HW218759   2.819   5.945   6.749
 6139SOL     OW18760   2.903   6.287   6.015
 6139SOL    HW118761   2.929   6.283   6.111
 6139SOL    HW218762   2.818   6.236   6.001
 6140SOL     OW18763   1.938   6.397   6.375
 6140SOL    HW118764   2.037   6.385   6.384
 6140SOL    HW218765   1.914   6.492   6.396
 6141SOL     OW18766   2.727   5.934   5.781
 6141SOL    HW118767   2.786   5.997   5.732
 6141SOL    HW218768   2.746   5.840   5.752
 6142SOL     OW18769   3.224   6.730   6.131
 6142SOL    HW118770   3.307   6.701   6.083
 6142SOL    HW218771   3.175   6.797   6.075
 6143SOL     OW18772   2.412   5.782   6.471
 6143SOL    HW118773   2.407   5.777   6.571
 6143SOL    HW218774   2.414   5.878   6.442
 6144SOL     OW18775   2.870   7.042   6.063
 6144SOL    HW118776   2.824   7.114   6.011
 6144SOL    HW218777   2.866   7.062   6.161
 6145SOL     OW18778   2.213   7.387   6.439
 6145SOL    HW118779   2.263   7.301   6.445
 6145SOL    HW218780   2.278   7.464   6.436
 6146SOL     OW18781   3.657   6.652   6.459
 6146SOL    HW118782   3.595   6.637   6.383
 6146SOL    HW218783   3.605   6.663   6.544
 6147SOL     OW18784   2.183   6.529   5.828
 6147SOL    HW118785   2.265   6.568   5.786
 6147SOL    HW218786   2.156   6.447   5.779
 6148SOL     OW18787   3.320   6.321   6.314
 6148SOL    HW118788   3.315   6.256   6.389
 6148SOL    HW218789   3.400   6.380   6.327
 6149SOL     OW18790   3.494   6.963   5.667
 6149SOL    HW118791   3.462   7.057   5.657
 6149SOL    HW218792   3.418   6.900   5.655
 6150SOL     OW18793   2.326   7.329   5.909
 6150SOL    HW118794   2.359   7.368   5.995
 6150SOL    HW218795   2.402   7.322   5.844
 6151SOL     OW18796   3.262   5.693   6.012
 6151SOL    HW118797   3.238   5.656   5.922
 6151SOL    HW218798   3.361   5.709   6.016
 6152SOL     OW18799   2.111   7.371   6.827
 6152SOL    HW118800   2.168   7.306   6.877
 6152SOL    HW218801   2.095   7.338   6.734
 6153SOL     OW18802   2.802   7.284   6.490
 6153SOL    HW118803   2.882   7.227   6.511
 6153SOL    HW218804   2.753   7.244   6.413
 6154SOL     OW18805   2.244   6.286   6.066
 6154SOL    HW118806   2.289   6.196   6.063
 6154SOL    HW218807   2.150   6.275   6.099
 6155SOL     OW18808   2.476   5.708   5.703
 6155SOL    HW118809   2.574   5.686   5.710
 6155SOL    HW218810   2.445   5.691   5.610
 6156SOL     OW18811   2.750   7.100   6.781
 6156SOL    HW118812   2.727   7.075   6.687
 6156SOL    HW218813   2.811   7.031   6.820
 6157SOL     OW18814   2.665   6.988   6.510
 6157SOL    HW118815   2.755   7.002   6.468
 6157SOL    HW218816   2.594   6.990   6.439
 6158SOL     OW18817   2.784   6.089   6.485
 6158SOL    HW118818   2.759   6.080   6.389
 6158SOL    HW218819   2.832   6.007   6.516
 6159SOL     OW18820   2.401   5.650   6.098
 6159SOL    HW118821   2.320   5.651   6.156
 6159SOL    HW218822   2.404   5.733   6.043
 6160SOL     OW18823   3.296   6.774   5.627
 6160SOL    HW118824   3.328   6.698   5.684
 6160SOL    HW218825   3.204   6.801   5.657
 6161SOL     OW18826   2.159   5.621   5.757
 6161SOL    HW118827   2.208   5.705   5.736
 6161SOL    HW218828   2.221   5.556   5.802
 6162SOL     OW18829   2.797   5.822   6.066
 6162SOL    HW118830   2.749   5.863   5.988
 6162SOL    HW218831   2.896   5.820   6.047
 6163SOL     OW18832   3.089   7.156   6.379
 6163SOL    HW118833   3.110   7.230   6.314
 6163SOL    HW218834   3.157   7.156   6.452
 6164SOL     OW18835   2.321   6.738   6.327
 6164SOL    HW118836   2.250   6.711   6.392
 6164SOL    HW218837   2.295   6.710   6.234
 6165SOL     OW18838   2.894   6.135   5.602
 6165SOL    HW118839   2.853   6.217   5.563
 6165SOL    HW218840   2.958   6.161   5.675
 6166SOL     OW18841   2.423   5.808   6.733
 6166SOL    HW118842   2.461   5.724   6.770
 6166SOL    HW218843   2.335   5.827   6.777
 6167SOL     OW18844   2.728   6.040   6.228
 6167SOL    HW118845   2.696   6.112   6.166
 6167SOL    HW218846   2.752   5.959   6.175
 6168SOL     OW18847   2.879   5.625   6.339
 6168SOL    HW118848   2.807   5.630   6.270
 6168SOL    HW218849   2.855   5.556   6.408
 6169SOL     OW18850   3.291   6.759   6.453
 6169SOL    HW118851   3.236   6.675   6.446
 6169SOL    HW218852   3.317   6.788   6.361
 6170SOL     OW18853   3.328   6.176   6.578
 6170SOL    HW118854   3.298   6.081   6.585
 6170SOL    HW218855   3.401   6.192   6.644
 6171SOL     OW18856   3.719   6.419   5.963
 6171SOL    HW118857   3.761   6.355   6.027
 6171SOL    HW218858   3.681   6.368   5.885
 6172SOL     OW18859   2.350   6.971   5.760
 6172SOL    HW118860   2.263   6.956   5.807
 6172SOL    HW218861   2.333   6.997   5.665
 6173SOL     OW18862   3.526   6.866   6.243
 6173SOL    HW118863   3.625   6.874   6.257
 6173SOL    HW218864   3.481   6.950   6.274
 6174SOL     OW18865   3.252   6.161   5.664
 6174SOL    HW118866   3.198   6.140   5.745
 6174SOL    HW218867   3.343   6.120   5.673
 6175SOL     OW18868   2.389   5.842   5.914
 6175SOL    HW118869   2.416   5.783   5.839
 6175SOL    HW218870   2.389   5.937   5.883
 6176SOL     OW18871   2.973   6.781   6.686
 6176SOL    HW118872   2.933   6.825   6.767
 6176SOL    HW218873   2.932   6.818   6.603
 6177SOL     OW18874   3.500   6.685   6.665
 6177SOL    HW118875   3.505   6.766   6.724
 6177SOL    HW218876   3.414   6.687   6.614
 6178SOL     OW18877   2.567   6.636   5.954
 6178SOL    HW118878   2.553   6.643   6.053
 6178SOL    HW218879   2.651   6.585   5.936
 6179SOL     OW18880   2.229   6.686   6.087
 6179SOL    HW118881   2.222   6.769   6.031
 6179SOL    HW218882   2.233   6.606   6.027
 6180SOL     OW18883   2.428   6.123   6.451
 6180SOL    HW118884   2.440   6.189   6.377
 6180SOL    HW218885   2.474   6.157   6.534
 6181SOL     OW18886   3.114   6.934   5.974
 6181SOL    HW118887   3.164   7.011   6.014
 6181SOL    HW218888   3.019   6.936   6.006
 6182SOL     OW18889   3.134   7.031   6.728
 6182SOL    HW118890   3.181   7.044   6.815
 6182SOL    HW218891   3.068   6.957   6.737
 6183SOL     OW18892   3.444   6.225   6.058
 6183SOL    HW118893   3.413   6.286   6.131
 6183SOL    HW218894   3.494   6.277   5.989
 6184SOL     OW18895   2.435   6.456   6.615
 6184SOL    HW118896   2.479   6.545   6.606
 6184SOL    HW218897   2.372   6.456   6.692
 6185SOL     OW18898   3.222   6.448   6.631
 6185SOL    HW118899   3.147   6.448   6.565
 6185SOL    HW218900   3.259   6.356   6.640
 6186SOL     OW18901   3.071   6.111   5.861
 6186SOL    HW118902   3.084   6.027   5.915
 6186SOL    HW218903   3.042   6.185   5.921
 6187SOL     OW18904   2.594   6.220   6.650
 6187SOL    HW118905   2.653   6.194   6.574
 6187SOL    HW218906   2.566   6.316   6.639
 6188SOL     OW18907   2.169   5.649   6.204
 6188SOL    HW118908   2.158   5.743   6.237
 6188SOL    HW218909   2.164   5.586   6.281
 6189SOL     OW18910   3.484   5.953   5.960
 6189SOL    HW118911   3.486   5.877   6.024
 6189SOL    HW218912   3.436   6.030   6.000
 6190SOL     OW18913   2.885   6.352   6.552
 6190SOL    HW118914   2.900   6.373   6.648
 6190SOL    HW218915   2.855   6.257   6.543
 6191SOL     OW18916   3.402   5.860   5.711
 6191SOL    HW118917   3.341   5.785   5.734
 6191SOL    HW218918   3.424   5.912   5.794
 6192SOL     OW18919   3.165   6.424   5.628
 6192SOL    HW118920   3.199   6.331   5.643
 6192SOL    HW218921   3.183   6.451   5.533
 6193SOL     OW18922   2.930   6.919   6.435
 6193SOL    HW118923   2.937   6.835   6.380
 6193SOL    HW218924   2.992   6.988   6.399
 6194SOL     OW18925   2.181   6.396   6.535
 6194SOL    HW118926   2.274   6.432   6.540
 6194SOL    HW218927   2.175   6.311   6.587
 6195SOL     OW18928   2.201   6.095   6.592
 6195SOL    HW118929   2.149   6.012   6.575
 6195SOL    HW218930   2.278   6.100   6.528
 6196SOL     OW18931   1.870   6.912   5.786
 6196SOL    HW118932   1.777   6.933   5.755
 6196SOL    HW218933   1.880   6.813   5.799
 6197SOL     OW18934   1.950   7.387   6.513
 6197SOL    HW118935   1.908   7.301   6.486
 6197SOL    HW218936   2.044   7.390   6.479
 6198SOL     OW18937   2.366   7.154   6.496
 6198SOL    HW118938   2.432   7.228   6.505
 6198SOL    HW218939   2.410   7.075   6.454
 6199SOL     OW18940   1.902   6.130   6.700
 6199SOL    HW118941   1.987   6.097   6.659
 6199SOL    HW218942   1.915   6.145   6.798
 6200SOL     OW18943   2.677   6.158   5.911
 6200SOL    HW118944   2.684   6.069   5.865
 6200SOL    HW218945   2.583   6.192   5.903
 6201SOL     OW18946   3.519   6.190   6.792
 6201SOL    HW118947   3.481   6.121   6.854
 6201SOL    HW218948   3.601   6.154   6.748
 6202SOL     OW18949   2.533   6.050   6.855
 6202SOL    HW118950   2.499   5.961   6.825
 6202SOL    HW218951   2.559   6.104   6.775
 6203SOL     OW18952   2.335   6.086   5.777
 6203SOL    HW118953   2.396   6.166   5.781
 6203SOL    HW218954   2.240   6.117   5.784
 6204SOL     OW18955   3.209   6.645   6.820
 6204SOL    HW118956   3.233   6.582   6.746
 6204SOL    HW218957   3.119   6.685   6.802
 6205SOL     OW18958   3.164   6.441   5.895
 6205SOL    HW118959   3.078   6.410   5.937
 6205SOL    HW218960   3.160   6.427   5.796
 6206SOL     OW18961   3.621   7.333   6.740
 6206SOL    HW118962   3.682   7.363   6.667
 6206SOL    HW218963   3.583   7.244   6.718
 6207SOL     OW18964   3.114   7.317   6.714
 6207SOL    HW118965   3.198   7.322   6.660
 6207SOL    HW218966   3.091   7.221   6.732
 6208SOL     OW18967   1.945   6.844   6.608
 6208SOL    HW118968   1.940   6.843   6.708
 6208SOL    HW218969   1.862   6.803   6.570
 6209SOL     OW18970   3.588   5.721   6.109
 6209SOL    HW118971   3.661   5.704   6.042
 6209SOL    HW218972   3.557   5.634   6.147
 6210SOL     OW18973   3.250   7.159   6.063
 6210SOL    HW118974   3.317   7.171   5.989
 6210SOL    HW218975   3.210   7.248   6.086
 6211SOL     OW18976   3.142   6.513   6.258
 6211SOL    HW118977   3.202   6.432   6.260
 6211SOL    HW218978   3.182   6.582   6.198
 6212SOL     OW18979   2.534   7.202   5.740
 6212SOL    HW118980   2.543   7.212   5.641
 6212SOL    HW218981   2.494   7.113   5.761
 6213SOL     OW18982   3.703   5.761   6.549
 6213SOL    HW118983   3.742   5.676   6.513
 6213SOL    HW218984   3.605   5.763   6.530
 6214SOL     OW18985   2.125   5.912   6.306
 6214SOL    HW118986   2.046   5.963   6.272
 6214SOL    HW218987   2.116   5.897   6.404
 6215SOL     OW18988   3.056   7.198   5.617
 6215SOL    HW118989   3.062   7.105   5.654
 6215SOL    HW218990   2.997   7.198   5.537
 6216SOL     OW18991   2.778   6.496   5.877
 6216SOL    HW118992   2.841   6.534   5.809
 6216SOL    HW218993   2.818   6.413   5.916
 6217SOL     OW18994   3.366   7.193   5.630
 6217SOL    HW118995   3.274   7.230   5.637
 6217SOL    HW218996   3.404   7.213   5.540
 6218SOL     OW18997   2.901   6.684   6.282
 6218SOL    HW118998   2.831   6.637   6.336
 6218SOL    HW218999   2.960   6.616   6.239
 6219SOL     OW19000   2.876   5.822   6.557
 6219SOL    HW119001   2.868   5.786   6.464
 6219SOL    HW219002   2.874   5.746   6.622
 6220SOL     OW19003   2.452   7.073   6.077
 6220SOL    HW119004   2.494   7.015   6.007
 6220SOL    HW219005   2.408   7.152   6.033
 6221SOL     OW19006   2.117   6.934   5.876
 6221SOL    HW119007   2.021   6.935   5.849
 6221SOL    HW219008   2.129   6.987   5.960
 6222SOL     OW19009   1.937   5.931   5.619
 6222SOL    HW119010   1.845   5.903   5.590
 6222SOL    HW219011   1.968   6.008   5.563
 6223SOL     OW19012   1.934   5.752   5.904
 6223SOL    HW119013   1.917   5.835   5.850
 6223SOL    HW219014   2.024   5.715   5.882
 6224SOL     OW19015   3.045   6.921   5.705
 6224SOL    HW119016   2.946   6.910   5.707
 6224SOL    HW219017   3.079   6.936   5.798
 6225SOL     OW19018   3.355   7.353   6.545
 6225SOL    HW119019   3.388   7.417   6.476
 6225SOL    HW219020   3.421   7.347   6.620
 6226SOL     OW19021   3.536   6.469   6.840
 6226SOL    HW119022   3.509   6.380   6.803
 6226SOL    HW219023   3.537   6.537   6.767
 6227SOL     OW19024   3.087   5.911   6.035
 6227SOL    HW119025   3.152   5.837   6.024
 6227SOL    HW219026   3.107   5.961   6.119
 6228SOL     OW19027   2.456   6.331   6.238
 6228SOL    HW119028   2.506   6.416   6.219
 6228SOL    HW219029   2.368   6.333   6.190
 6229SOL     OW19030   2.721   6.960   5.602
 6229SOL    HW119031   2.675   6.975   5.690
 6229SOL    HW219032   2.765   7.045   5.572
 6230SOL     OW19033   2.523   7.376   6.539
 6230SOL    HW119034   2.477   7.464   6.526
 6230SOL    HW219035   2.622   7.388   6.532
 6231SOL     OW19036   2.721   6.542   6.447
 6231SOL    HW119037   2.775   6.473   6.495
 6231SOL    HW219038   2.689   6.611   6.513
 6232SOL     OW19039   2.945   6.570   5.673
 6232SOL    HW119040   2.922   6.623   5.591
 6232SOL    HW219041   3.026   6.514   5.654
 6233SOL     OW19042   3.723   7.155   6.437
 6233SOL    HW119043   3.652   7.143   6.367
 6233SOL    HW219044   3.724   7.076   6.497
 6234SOL     OW19045   1.941   6.826   6.239
 6234SOL    HW119046   1.940   6.779   6.327
 6234SOL    HW219047   2.023   6.798   6.188
 6235SOL     OW19048   3.686   5.778   6.813
 6235SOL    HW119049   3.682   5.688   6.857
 6235SOL    HW219050   3.689   5.767   6.714
 6236SOL     OW19051   2.290   6.010   6.106
 6236SOL    HW119052   2.320   5.938   6.044
 6236SOL    HW219053   2.251   5.970   6.189
 6237SOL     OW19054   3.567   7.073   6.690
 6237SOL    HW119055   3.474   7.048   6.663
 6237SOL    HW219056   3.593   7.023   6.772
 6238SOL     OW19057   2.179   6.133   6.866
 6238SOL    HW119058   2.217   6.074   6.938
 6238SOL    HW219059   2.219   6.107   6.778
 6239SOL     OW19060   2.674   7.172   6.273
 6239SOL    HW119061   2.706   7.182   6.179
 6239SOL    HW219062   2.595   7.110   6.275
 6240SOL     OW19063   3.286   5.800   6.698
 6240SOL    HW119064   3.338   5.735   6.753
 6240SOL    HW219065   3.237   5.863   6.759
 6241SOL     OW19066   2.863   5.620   6.740
 6241SOL    HW119067   2.800   5.548   6.709
 6241SOL    HW219068   2.956   5.584   6.740
 6242SOL     OW19069   2.632   6.916   5.887
 6242SOL    HW119070   2.586   6.829   5.904
 6242SOL    HW219071   2.723   6.913   5.928
 6243SOL     OW19072   3.214   5.638   5.754
 6243SOL    HW119073   3.249   5.597   5.670
 6243SOL    HW219074   3.124   5.600   5.774
 6244SOL     OW19075   3.162   6.039   6.277
 6244SOL    HW119076   3.103   6.119   6.281
 6244SOL    HW219077   3.177   6.004   6.370
 6245SOL     OW19078   3.455   5.807   6.468
 6245SOL    HW119079   3.371   5.806   6.522
 6245SOL    HW219080   3.457   5.890   6.412
 6246SOL     OW19081   1.901   6.663   5.886
 6246SOL    HW119082   2.000   6.652   5.877
 6246SOL    HW219083   1.861   6.577   5.918
 6247SOL     OW19084   2.737   7.232   5.923
 6247SOL    HW119085   2.660   7.197   5.869
 6247SOL    HW219086   2.705   7.303   5.985
 6248SOL     OW19087   2.087   7.723   0.996
 6248SOL    HW119088   2.122   7.706   1.088
 6248SOL    HW219089   1.999   7.678   0.984
 6249SOL     OW19090   1.881   7.816   0.647
 6249SOL    HW119091   1.799   7.859   0.686
 6249SOL    HW219092   1.853   7.743   0.584
 6250SOL     OW19093   2.300   7.840   1.499
 6250SOL    HW119094   2.382   7.784   1.508
 6250SOL    HW219095   2.219   7.782   1.503
 6251SOL     OW19096   2.671   7.452   0.502
 6251SOL    HW119097   2.711   7.543   0.493
 6251SOL    HW219098   2.571   7.460   0.508
 6252SOL     OW19099   2.179   7.699   1.801
 6252SOL    HW119100   2.250   7.770   1.807
 6252SOL    HW219101   2.091   7.738   1.829
 6253SOL     OW19102   2.412   7.644   0.885
 6253SOL    HW119103   2.407   7.639   0.985
 6253SOL    HW219104   2.414   7.740   0.856
 6254SOL     OW19105   2.064   7.733   1.498
 6254SOL    HW119106   1.984   7.793   1.485
 6254SOL    HW219107   2.054   7.684   1.584
 6255SOL     OW19108   2.476   7.570   0.117
 6255SOL    HW119109   2.574   7.548   0.124
 6255SOL    HW219110   2.445   7.553   0.024
 6256SOL     OW19111   2.643   7.712   1.749
 6256SOL    HW119112   2.710   7.651   1.792
 6256SOL    HW219113   2.570   7.731   1.814
 6257SOL     OW19114   2.401   7.512   0.512
 6257SOL    HW119115   2.320   7.513   0.570
 6257SOL    HW219116   2.404   7.595   0.457
 6258SOL     OW19117   2.159   7.483   0.171
 6258SOL    HW119118   2.208   7.567   0.150
 6258SOL    HW219119   2.221   7.418   0.216
 6259SOL     OW19120   2.423   7.670   1.147
 6259SOL    HW119121   2.461   7.586   1.184
 6259SOL    HW219122   2.335   7.689   1.191
 6260SOL     OW19123   2.389   7.704   0.328
 6260SOL    HW119124   2.416   7.645   0.253
 6260SOL    HW219125   2.389   7.799   0.297
 6261SOL     OW19126   2.777   7.537   1.402
 6261SOL    HW119127   2.802   7.517   1.307
 6261SOL    HW219128   2.849   7.593   1.444
 6262SOL     OW19129   2.875   7.553   1.770
 6262SOL    HW119130   2.881   7.638   1.718
 6262SOL    HW219131   2.907   7.477   1.713
 6263SOL     OW19132   2.366   7.498   1.740
 6263SOL    HW119133   2.324   7.441   1.670
 6263SOL    HW219134   2.300   7.567   1.772
 6264SOL     OW19135   2.169   7.661   1.231
 6264SOL    HW119136   2.146   7.698   1.321
 6264SOL    HW219137   2.139   7.566   1.225
 6265SOL     OW19138   2.169   7.511   0.618
 6265SOL    HW119139   2.158   7.605   0.651
 6265SOL    HW219140   2.164   7.448   0.695
 6266SOL     OW19141   3.022   7.655   1.477
 6266SOL    HW119142   3.022   7.719   1.554
 6266SOL    HW219143   3.050   7.703   1.394
 6267SOL     OW19144   2.765   7.534   0.133
 6267SOL    HW119145   2.816   7.535   0.047
 6267SOL    HW219146   2.821   7.492   0.204
 6268SOL     OW19147   2.125   7.774   0.720
 6268SOL    HW119148   2.046   7.825   0.686
 6268SOL    HW219149   2.116   7.759   0.818
 6269SOL     OW19150   2.534   7.651   1.489
 6269SOL    HW119151   2.624   7.635   1.449
 6269SOL    HW219152   2.542   7.656   1.588
 6270SOL     OW19153   1.937   7.793   0.033
 6270SOL    HW119154   1.845   7.765   0.004
 6270SOL    HW219155   1.968   7.870  -0.023
 6271SOL     OW19156   1.934   7.614   0.318
 6271SOL    HW119157   1.917   7.697   0.264
 6271SOL    HW219158   2.024   7.577   0.296
 6272SOL     OW19159   2.863   7.482   1.154
 6272SOL    HW119160   2.800   7.410   1.123
 6272SOL    HW219161   2.956   7.446   1.154
 6273SOL     OW19162   3.455   7.669   0.882
 6273SOL    HW119163   3.371   7.668   0.936
 6273SOL    HW219164   3.457   7.752   0.826
 6274SOL     OW19165   2.087   7.723   2.858
 6274SOL    HW119166   2.122   7.706   2.950
 6274SOL    HW219167   1.999   7.678   2.846
 6275SOL     OW19168   1.881   7.816   2.509
 6275SOL    HW119169   1.799   7.859   2.548
 6275SOL    HW219170   1.853   7.743   2.446
 6276SOL     OW19171   2.300   7.840   3.361
 6276SOL    HW119172   2.382   7.784   3.370
 6276SOL    HW219173   2.219   7.782   3.365
 6277SOL     OW19174   2.671   7.452   2.364
 6277SOL    HW119175   2.711   7.543   2.355
 6277SOL    HW219176   2.571   7.460   2.370
 6278SOL     OW19177   2.179   7.699   3.663
 6278SOL    HW119178   2.250   7.770   3.669
 6278SOL    HW219179   2.091   7.738   3.691
 6279SOL     OW19180   2.412   7.644   2.747
 6279SOL    HW119181   2.407   7.639   2.847
 6279SOL    HW219182   2.414   7.740   2.718
 6280SOL     OW19183   2.064   7.733   3.360
 6280SOL    HW119184   1.984   7.793   3.347
 6280SOL    HW219185   2.054   7.684   3.446
 6281SOL     OW19186   2.476   7.570   1.979
 6281SOL    HW119187   2.574   7.548   1.986
 6281SOL    HW219188   2.445   7.553   1.886
 6282SOL     OW19189   2.643   7.712   3.611
 6282SOL    HW119190   2.710   7.651   3.654
 6282SOL    HW219191   2.570   7.731   3.676
 6283SOL     OW19192   2.401   7.512   2.374
 6283SOL    HW119193   2.320   7.513   2.432
 6283SOL    HW219194   2.404   7.595   2.319
 6284SOL     OW19195   2.159   7.483   2.033
 6284SOL    HW119196   2.208   7.567   2.012
 6284SOL    HW219197   2.221   7.418   2.078
 6285SOL     OW19198   2.423   7.670   3.009
 6285SOL    HW119199   2.461   7.586   3.046
 6285SOL    HW219200   2.335   7.689   3.053
 6286SOL     OW19201   2.389   7.704   2.190
 6286SOL    HW119202   2.416   7.645   2.115
 6286SOL    HW219203   2.389   7.799   2.159
 6287SOL     OW19204   2.777   7.537   3.264
 6287SOL    HW119205   2.802   7.517   3.169
 6287SOL    HW219206   2.849   7.593   3.306
 6288SOL     OW19207   2.875   7.553   3.632
 6288SOL    HW119208   2.881   7.638   3.580
 6288SOL    HW219209   2.907   7.477   3.575
 6289SOL     OW19210   2.366   7.498   3.602
 6289SOL    HW119211   2.324   7.441   3.532
 6289SOL    HW219212   2.300   7.567   3.634
 6290SOL     OW19213   2.169   7.661   3.093
 6290SOL    HW119214   2.146   7.698   3.183
 6290SOL    HW219215   2.139   7.566   3.087
 6291SOL     OW19216   2.169   7.511   2.480
 6291SOL    HW119217   2.158   7.605   2.513
 6291SOL    HW219218   2.164   7.448   2.557
 6292SOL     OW19219   3.022   7.655   3.339
 6292SOL    HW119220   3.022   7.719   3.416
 6292SOL    HW219221   3.050   7.703   3.256
 6293SOL     OW19222   2.125   7.774   2.582
 6293SOL    HW119223   2.046   7.825   2.548
 6293SOL    HW219224   2.116   7.759   2.680
 6294SOL     OW19225   2.534   7.651   3.351
 6294SOL    HW119226   2.624   7.635   3.311
 6294SOL    HW219227   2.542   7.656   3.450
 6295SOL     OW19228   1.937   7.793   1.895
 6295SOL    HW119229   1.845   7.765   1.866
 6295SOL    HW219230   1.968   7.870   1.839
 6296SOL     OW19231   1.934   7.614   2.180
 6296SOL    HW119232   1.917   7.697   2.126
 6296SOL    HW219233   2.024   7.577   2.158
 6297SOL     OW19234   2.863   7.482   3.016
 6297SOL    HW119235   2.800   7.410   2.985
 6297SOL    HW219236   2.956   7.446   3.016
 6298SOL     OW19237   3.455   7.669   2.744
 6298SOL    HW119238   3.371   7.668   2.798
 6298SOL    HW219239   3.457   7.752   2.688
 6299SOL     OW19240   2.087   7.723   4.720
 6299SOL    HW119241   2.122   7.706   4.812
 6299SOL    HW219242   1.999   7.678   4.708
 6300SOL     OW19243   1.881   7.816   4.371
 6300SOL    HW119244   1.799   7.859   4.410
 6300SOL    HW219245   1.853   7.743   4.308
 6301SOL     OW19246   2.300   7.840   5.223
 6301SOL    HW119247   2.382   7.784   5.232
 6301SOL    HW219248   2.219   7.782   5.227
 6302SOL     OW19249   2.671   7.452   4.226
 6302SOL    HW119250   2.711   7.543   4.217
 6302SOL    HW219251   2.571   7.460   4.232
 6303SOL     OW19252   2.179   7.699   5.525
 6303SOL    HW119253   2.250   7.770   5.531
 6303SOL    HW219254   2.091   7.738   5.553
 6304SOL     OW19255   2.412   7.644   4.609
 6304SOL    HW119256   2.407   7.639   4.709
 6304SOL    HW219257   2.414   7.740   4.580
 6305SOL     OW19258   2.064   7.733   5.222
 6305SOL    HW119259   1.984   7.793   5.209
 6305SOL    HW219260   2.054   7.684   5.308
 6306SOL     OW19261   2.476   7.570   3.841
 6306SOL    HW119262   2.574   7.548   3.848
 6306SOL    HW219263   2.445   7.553   3.748
 6307SOL     OW19264   2.643   7.712   5.473
 6307SOL    HW119265   2.710   7.651   5.516
 6307SOL    HW219266   2.570   7.731   5.538
 6308SOL     OW19267   2.401   7.512   4.236
 6308SOL    HW119268   2.320   7.513   4.294
 6308SOL    HW219269   2.404   7.595   4.181
 6309SOL     OW19270   2.159   7.483   3.895
 6309SOL    HW119271   2.208   7.567   3.874
 6309SOL    HW219272   2.221   7.418   3.940
 6310SOL     OW19273   2.423   7.670   4.871
 6310SOL    HW119274   2.461   7.586   4.908
 6310SOL    HW219275   2.335   7.689   4.915
 6311SOL     OW19276   2.389   7.704   4.052
 6311SOL    HW119277   2.416   7.645   3.977
 6311SOL    HW219278   2.389   7.799   4.021
 6312SOL     OW19279   2.777   7.537   5.126
 6312SOL    HW119280   2.802   7.517   5.031
 6312SOL    HW219281   2.849   7.593   5.168
 6313SOL     OW19282   2.875   7.553   5.494
 6313SOL    HW119283   2.881   7.638   5.442
 6313SOL    HW219284   2.907   7.477   5.437
 6314SOL     OW19285   2.366   7.498   5.464
 6314SOL    HW119286   2.324   7.441   5.394
 6314SOL    HW219287   2.300   7.567   5.496
 6315SOL     OW19288   2.169   7.661   4.955
 6315SOL    HW119289   2.146   7.698   5.045
 6315SOL    HW219290   2.139   7.566   4.949
 6316SOL     OW19291   2.169   7.511   4.342
 6316SOL    HW119292   2.158   7.605   4.375
 6316SOL    HW219293   2.164   7.448   4.419
 6317SOL     OW19294   3.022   7.655   5.201
 6317SOL    HW119295   3.022   7.719   5.278
 6317SOL    HW219296   3.050   7.703   5.118
 6318SOL     OW19297   2.125   7.774   4.444
 6318SOL    HW119298   2.046   7.825   4.410
 6318SOL    HW219299   2.116   7.759   4.542
 6319SOL     OW19300   2.534   7.651   5.213
 6319SOL    HW119301   2.624   7.635   5.173
 6319SOL    HW219302   2.542   7.656   5.312
 6320SOL     OW19303   1.937   7.793   3.757
 6320SOL    HW119304   1.845   7.765   3.728
 6320SOL    HW219305   1.968   7.870   3.701
 6321SOL     OW19306   1.934   7.614   4.042
 6321SOL    HW119307   1.917   7.697   3.988
 6321SOL    HW219308   2.024   7.577   4.020
 6322SOL     OW19309   2.863   7.482   4.878
 6322SOL    HW119310   2.800   7.410   4.847
 6322SOL    HW219311   2.956   7.446   4.878
 6323SOL     OW19312   3.455   7.669   4.606
 6323SOL    HW119313   3.371   7.668   4.660
 6323SOL    HW219314   3.457   7.752   4.550
 6324SOL     OW19315   2.087   7.723   6.582
 6324SOL    HW119316   2.122   7.706   6.674
 6324SOL    HW219317   1.999   7.678   6.570
 6325SOL     OW19318   1.881   7.816   6.233
 6325SOL    HW119319   1.799   7.859   6.272
 6325SOL    HW219320   1.853   7.743   6.170
 6326SOL     OW19321   2.671   7.452   6.088
 6326SOL    HW119322   2.711   7.543   6.079
 6326SOL    HW219323   2.571   7.460   6.094
 6327SOL     OW19324   2.412   7.644   6.471
 6327SOL    HW119325   2.407   7.639   6.571
 6327SOL    HW219326   2.414   7.740   6.442
 6328SOL     OW19327   2.476   7.570   5.703
 6328SOL    HW119328   2.574   7.548   5.710
 6328SOL    HW219329   2.445   7.553   5.610
 6329SOL     OW19330   2.401   7.512   6.098
 6329SOL    HW119331   2.320   7.513   6.156
 6329SOL    HW219332   2.404   7.595   6.043
 6330SOL     OW19333   2.159   7.483   5.757
 6330SOL    HW119334   2.208   7.567   5.736
 6330SOL    HW219335   2.221   7.418   5.802
 6331SOL     OW19336   2.423   7.670   6.733
 6331SOL    HW119337   2.461   7.586   6.770
 6331SOL    HW219338   2.335   7.689   6.777
 6332SOL     OW19339   2.389   7.704   5.914
 6332SOL    HW119340   2.416   7.645   5.839
 6332SOL    HW219341   2.389   7.799   5.883
 6333SOL     OW19342   2.169   7.511   6.204
 6333SOL    HW119343   2.158   7.605   6.237
 6333SOL    HW219344   2.164   7.448   6.281
 6334SOL     OW19345   2.125   7.774   6.306
 6334SOL    HW119346   2.046   7.825   6.272
 6334SOL    HW219347   2.116   7.759   6.404
 6335SOL     OW19348   1.937   7.793   5.619
 6335SOL    HW119349   1.845   7.765   5.590
 6335SOL    HW219350   1.968   7.870   5.563
 6336SOL     OW19351   1.934   7.614   5.904
 6336SOL    HW119352   1.917   7.697   5.850
 6336SOL    HW219353   2.024   7.577   5.882
 6337SOL     OW19354   2.863   7.482   6.740
 6337SOL    HW119355   2.800   7.410   6.709
 6337SOL    HW219356   2.956   7.446   6.740
 6338SOL     OW19357   3.455   7.669   6.468
 6338SOL    HW119358   3.371   7.668   6.522
 6338SOL    HW219359   3.457   7.752   6.412
 6339SOL     OW19360   3.949   0.275   0.996
 6339SOL    HW119361   3.984   0.258   1.088
 6339SOL    HW219362   3.861   0.230   0.984
 6340SOL     OW19363   3.743   0.368   0.647
 6340SOL    HW119364   3.661   0.411   0.686
 6340SOL    HW219365   3.715   0.295   0.584
 6341SOL     OW19366   4.293   1.275   1.165
 6341SOL    HW119367   4.200   1.268   1.128
 6341SOL    HW219368   4.304   1.364   1.209
 6342SOL     OW19369   5.279   1.511   0.703
 6342SOL    HW119370   5.222   1.495   0.784
 6342SOL    HW219371   5.220   1.521   0.623
 6343SOL     OW19372   5.467   0.618   0.856
 6343SOL    HW119373   5.500   0.712   0.856
 6343SOL    HW219374   5.518   0.564   0.922
 6344SOL     OW19375   4.859   0.703   0.717
 6344SOL    HW119376   4.916   0.781   0.692
 6344SOL    HW219377   4.799   0.729   0.793
 6345SOL     OW19378   4.492   1.144   1.023
 6345SOL    HW119379   4.414   1.161   1.083
 6345SOL    HW219380   4.526   1.231   0.987
 6346SOL     OW19381   4.574   0.798   1.823
 6346SOL    HW119382   4.570   0.874   1.888
 6346SOL    HW219383   4.596   0.834   1.732
 6347SOL     OW19384   4.409   1.012   0.665
 6347SOL    HW119385   4.478   0.996   0.735
 6347SOL    HW219386   4.336   1.069   0.703
 6348SOL     OW19387   4.410   1.161   1.803
 6348SOL    HW119388   4.470   1.240   1.817
 6348SOL    HW219389   4.324   1.192   1.762
 6349SOL     OW19390   4.059   1.435   1.061
 6349SOL    HW119391   3.981   1.404   1.008
 6349SOL    HW219392   4.117   1.493   1.004
 6350SOL     OW19393   5.184   1.505   1.339
 6350SOL    HW119394   5.208   1.599   1.365
 6350SOL    HW219395   5.168   1.451   1.421
 6351SOL     OW19396   4.162   0.392   1.499
 6351SOL    HW119397   4.244   0.336   1.508
 6351SOL    HW219398   4.081   0.334   1.503
 6352SOL     OW19399   3.955   1.713   0.483
 6352SOL    HW119400   3.989   1.790   0.537
 6352SOL    HW219401   3.999   1.713   0.393
 6353SOL     OW19402   4.851   1.341   1.690
 6353SOL    HW119403   4.898   1.341   1.778
 6353SOL    HW219404   4.803   1.254   1.679
 6354SOL     OW19405   3.954   1.434   0.538
 6354SOL    HW119406   3.928   1.530   0.538
 6354SOL    HW219407   3.883   1.380   0.583
 6355SOL     OW19408   3.964   1.091   0.886
 6355SOL    HW119409   3.978   1.007   0.938
 6355SOL    HW219410   3.909   1.155   0.941
 6356SOL     OW19411   4.344   1.786   1.439
 6356SOL    HW119412   4.252   1.769   1.474
 6356SOL    HW219413   4.372   1.878   1.465
 6357SOL     OW19414   5.318   0.114   1.480
 6357SOL    HW119415   5.300   0.181   1.408
 6357SOL    HW219416   5.315   0.160   1.569
 6358SOL     OW19417   3.846   0.643   0.563
 6358SOL    HW119418   3.801   0.555   0.580
 6358SOL    HW219419   3.845   0.697   0.647
 6359SOL     OW19420   5.413   0.922   0.612
 6359SOL    HW119421   5.508   0.893   0.620
 6359SOL    HW219422   5.405   0.987   0.537
 6360SOL     OW19423   5.365   1.108   0.432
 6360SOL    HW119424   5.451   1.110   0.380
 6360SOL    HW219425   5.379   1.155   0.520
 6361SOL     OW19426   3.837   0.737   1.597
 6361SOL    HW119427   3.925   0.724   1.642
 6361SOL    HW219428   3.824   0.834   1.575
 6362SOL     OW19429   4.337   1.365   0.726
 6362SOL    HW119430   4.288   1.278   0.735
 6362SOL    HW219431   4.314   1.408   0.639
 6363SOL     OW19432   5.017   1.228   1.423
 6363SOL    HW119433   5.054   1.155   1.365
 6363SOL    HW219434   5.069   1.233   1.508
 6364SOL     OW19435   4.533   0.004   0.502
 6364SOL    HW119436   4.573   0.095   0.493
 6364SOL    HW219437   4.433   0.012   0.508
 6365SOL     OW19438   3.921   0.976   1.264
 6365SOL    HW119439   4.010   0.931   1.250
 6365SOL    HW219440   3.848   0.911   1.245
 6366SOL     OW19441   4.911   1.792   1.616
 6366SOL    HW119442   4.935   1.852   1.540
 6366SOL    HW219443   4.918   1.697   1.586
 6367SOL     OW19444   4.041   0.251   1.801
 6367SOL    HW119445   4.112   0.322   1.807
 6367SOL    HW219446   3.953   0.290   1.829
 6368SOL     OW19447   5.190   1.417   0.953
 6368SOL    HW119448   5.131   1.423   1.033
 6368SOL    HW219449   5.175   1.329   0.907
 6369SOL     OW19450   5.391   1.714   0.572
 6369SOL    HW119451   5.350   1.691   0.484
 6369SOL    HW219452   5.373   1.640   0.637
 6370SOL     OW19453   5.005   0.345   0.944
 6370SOL    HW119454   4.919   0.295   0.931
 6370SOL    HW219455   5.067   0.291   1.000
 6371SOL     OW19456   5.300   1.662   0.307
 6371SOL    HW119457   5.389   1.708   0.310
 6371SOL    HW219458   5.279   1.638   0.212
 6372SOL     OW19459   4.531   0.605   1.465
 6372SOL    HW119460   4.484   0.602   1.554
 6372SOL    HW219461   4.480   0.550   1.399
 6373SOL     OW19462   5.118   0.469   1.674
 6373SOL    HW119463   5.098   0.512   1.762
 6373SOL    HW219464   5.196   0.407   1.683
 6374SOL     OW19465   4.697   0.890   1.572
 6374SOL    HW119466   4.743   0.806   1.543
 6374SOL    HW219467   4.641   0.924   1.497
 6375SOL     OW19468   4.715   0.410   1.242
 6375SOL    HW119469   4.638   0.444   1.296
 6375SOL    HW219470   4.681   0.359   1.163
 6376SOL     OW19471   4.765   0.701   0.429
 6376SOL    HW119472   4.791   0.697   0.525
 6376SOL    HW219473   4.680   0.650   0.415
 6377SOL     OW19474   3.800   0.811   0.789
 6377SOL    HW119475   3.899   0.799   0.798
 6377SOL    HW219476   3.776   0.906   0.810
 6378SOL     OW19477   3.854   1.821   1.571
 6378SOL    HW119478   3.844   1.806   1.670
 6378SOL    HW219479   3.768   1.857   1.535
 6379SOL     OW19480   5.443   0.585   1.831
 6379SOL    HW119481   5.417   0.674   1.795
 6379SOL    HW219482   5.441   0.517   1.758
 6380SOL     OW19483   5.086   1.144   0.545
 6380SOL    HW119484   5.169   1.115   0.497
 6380SOL    HW219485   5.037   1.211   0.489
 6381SOL     OW19486   4.274   0.196   0.885
 6381SOL    HW119487   4.269   0.191   0.985
 6381SOL    HW219488   4.276   0.292   0.856
 6382SOL     OW19489   4.732   1.456   0.477
 6382SOL    HW119490   4.686   1.528   0.425
 6382SOL    HW219491   4.728   1.476   0.575
 6383SOL     OW19492   4.075   1.801   0.853
 6383SOL    HW119493   4.125   1.715   0.859
 6383SOL    HW219494   4.140   1.878   0.850
 6384SOL     OW19495   5.519   1.066   0.873
 6384SOL    HW119496   5.457   1.051   0.797
 6384SOL    HW219497   5.467   1.077   0.958
 6385SOL     OW19498   4.951   1.550   1.506
 6385SOL    HW119499   4.957   1.473   1.570
 6385SOL    HW219500   4.899   1.524   1.426
 6386SOL     OW19501   5.182   0.735   0.728
 6386SOL    HW119502   5.177   0.670   0.803
 6386SOL    HW219503   5.262   0.794   0.741
 6387SOL     OW19504   4.185   1.266   1.727
 6387SOL    HW119505   4.135   1.267   1.641
 6387SOL    HW219506   4.122   1.248   1.803
 6388SOL     OW19507   3.926   0.285   1.498
 6388SOL    HW119508   3.846   0.345   1.485
 6388SOL    HW219509   3.916   0.236   1.584
 6389SOL     OW19510   4.188   1.743   0.323
 6389SOL    HW119511   4.221   1.782   0.409
 6389SOL    HW219512   4.264   1.736   0.258
 6390SOL     OW19513   3.973   1.785   1.241
 6390SOL    HW119514   4.030   1.720   1.291
 6390SOL    HW219515   3.957   1.752   1.148
 6391SOL     OW19516   4.664   1.698   0.904
 6391SOL    HW119517   4.744   1.641   0.925
 6391SOL    HW219518   4.615   1.658   0.827
 6392SOL     OW19519   4.106   0.700   0.480
 6392SOL    HW119520   4.151   0.610   0.477
 6392SOL    HW219521   4.012   0.689   0.513
 6393SOL     OW19522   4.505   0.264   1.749
 6393SOL    HW119523   4.572   0.203   1.792
 6393SOL    HW219524   4.432   0.283   1.814
 6394SOL     OW19525   4.612   1.514   1.195
 6394SOL    HW119526   4.589   1.489   1.101
 6394SOL    HW219527   4.673   1.445   1.234
 6395SOL     OW19528   5.075   0.590   1.433
 6395SOL    HW119529   5.103   0.547   1.518
 6395SOL    HW219530   5.100   0.686   1.434
 6396SOL     OW19531   4.527   1.402   0.924
 6396SOL    HW119532   4.617   1.416   0.882
 6396SOL    HW219533   4.456   1.404   0.853
 6397SOL     OW19534   4.646   0.503   0.899
 6397SOL    HW119535   4.621   0.494   0.803
 6397SOL    HW219536   4.694   0.421   0.930
 6398SOL     OW19537   4.263   0.064   0.512
 6398SOL    HW119538   4.182   0.065   0.570
 6398SOL    HW219539   4.266   0.147   0.457
 6399SOL     OW19540   4.659   0.236   0.480
 6399SOL    HW119541   4.611   0.277   0.402
 6399SOL    HW219542   4.758   0.234   0.461
 6400SOL     OW19543   4.800   0.683   1.464
 6400SOL    HW119544   4.720   0.622   1.467
 6400SOL    HW219545   4.881   0.630   1.440
 6401SOL     OW19546   4.951   1.570   0.793
 6401SOL    HW119547   4.972   1.644   0.728
 6401SOL    HW219548   5.019   1.570   0.866
 6402SOL     OW19549   4.183   1.152   0.741
 6402SOL    HW119550   4.112   1.125   0.806
 6402SOL    HW219551   4.157   1.124   0.648
 6403SOL     OW19552   4.995   1.797   0.591
 6403SOL    HW119553   5.039   1.861   0.527
 6403SOL    HW219554   4.945   1.849   0.661
 6404SOL     OW19555   3.802   0.556   1.386
 6404SOL    HW119556   3.894   0.555   1.345
 6404SOL    HW219557   3.796   0.630   1.453
 6405SOL     OW19558   4.285   0.222   1.147
 6405SOL    HW119559   4.323   0.138   1.184
 6405SOL    HW219560   4.197   0.241   1.191
 6406SOL     OW19561   4.590   0.454   0.642
 6406SOL    HW119562   4.558   0.526   0.580
 6406SOL    HW219563   4.614   0.373   0.589
 6407SOL     OW19564   4.741   0.039   0.753
 6407SOL    HW119565   4.669   0.044   0.684
 6407SOL    HW219566   4.717  -0.030   0.822
 6408SOL     OW19567   5.153   1.173   0.867
 6408SOL    HW119568   5.098   1.089   0.860
 6408SOL    HW219569   5.179   1.202   0.775
 6409SOL     OW19570   5.190   0.590   0.992
 6409SOL    HW119571   5.160   0.495   0.999
 6409SOL    HW219572   5.263   0.606   1.058
 6410SOL     OW19573   5.581   0.833   0.377
 6410SOL    HW119574   5.623   0.769   0.441
 6410SOL    HW219575   5.543   0.782   0.299
 6411SOL     OW19576   5.388   1.280   0.657
 6411SOL    HW119577   5.487   1.288   0.671
 6411SOL    HW219578   5.343   1.364   0.688
 6412SOL     OW19579   4.251   0.256   0.328
 6412SOL    HW119580   4.278   0.197   0.253
 6412SOL    HW219581   4.251   0.351   0.297
 6413SOL     OW19582   5.478   1.223   1.588
 6413SOL    HW119583   5.569   1.184   1.575
 6413SOL    HW219584   5.486   1.319   1.612
 6414SOL     OW19585   4.788   1.347   1.340
 6414SOL    HW119586   4.708   1.324   1.395
 6414SOL    HW219587   4.871   1.321   1.389
 6415SOL     OW19588   5.316   1.629   1.625
 6415SOL    HW119589   5.343   1.663   1.535
 6415SOL    HW219590   5.395   1.591   1.671
 6416SOL     OW19591   4.835   1.195   1.100
 6416SOL    HW119592   4.795   1.239   1.181
 6416SOL    HW219593   4.794   1.232   1.017
 6417SOL     OW19594   5.362   1.099   1.079
 6417SOL    HW119595   5.367   1.180   1.138
 6417SOL    HW219596   5.276   1.101   1.028
 6418SOL     OW19597   4.639   0.089   1.402
 6418SOL    HW119598   4.664   0.069   1.307
 6418SOL    HW219599   4.711   0.145   1.444
 6419SOL     OW19600   4.704   1.116   1.719
 6419SOL    HW119601   4.605   1.122   1.729
 6419SOL    HW219602   4.727   1.036   1.663
 6420SOL     OW19603   4.429   1.050   0.368
 6420SOL    HW119604   4.415   1.057   0.467
 6420SOL    HW219605   4.513   0.999   0.350
 6421SOL     OW19606   4.134   0.813   1.251
 6421SOL    HW119607   4.220   0.825   1.301
 6421SOL    HW219608   4.092   0.726   1.278
 6422SOL     OW19609   4.998   0.386   1.262
 6422SOL    HW119610   5.019   0.460   1.326
 6422SOL    HW219611   4.909   0.403   1.219
 6423SOL     OW19612   3.788   1.564   1.331
 6423SOL    HW119613   3.742   1.646   1.297
 6423SOL    HW219614   3.886   1.583   1.340
 6424SOL     OW19615   4.091   1.100   0.501
 6424SOL    HW119616   4.084   1.183   0.445
 6424SOL    HW219617   4.095   1.020   0.441
 6425SOL     OW19618   4.290   0.537   0.865
 6425SOL    HW119619   4.302   0.603   0.791
 6425SOL    HW219620   4.336   0.571   0.948
 6426SOL     OW19621   4.976   1.348   0.388
 6426SOL    HW119622   5.026   1.425   0.428
 6426SOL    HW219623   4.881   1.350   0.420
 6427SOL     OW19624   4.996   1.445   1.142
 6427SOL    HW119625   5.043   1.458   1.229
 6427SOL    HW219626   4.930   1.371   1.151
 6428SOL     OW19627   5.306   0.639   0.472
 6428SOL    HW119628   5.275   0.700   0.545
 6428SOL    HW219629   5.356   0.691   0.403
 6429SOL     OW19630   4.078   1.510   1.329
 6429SOL    HW119631   4.057   1.466   1.242
 6429SOL    HW219632   4.175   1.536   1.332
 6430SOL     OW19633   4.126   0.751   1.598
 6430SOL    HW119634   4.194   0.806   1.551
 6430SOL    HW219635   4.166   0.663   1.625
 6431SOL     OW19636   5.311   0.779   1.670
 6431SOL    HW119637   5.219   0.817   1.665
 6431SOL    HW219638   5.371   0.826   1.605
 6432SOL     OW19639   4.737   0.105   1.770
 6432SOL    HW119640   4.743   0.190   1.718
 6432SOL    HW219641   4.769   0.029   1.713
 6433SOL     OW19642   4.228   0.050   1.740
 6433SOL    HW119643   4.186  -0.007   1.670
 6433SOL    HW219644   4.162   0.119   1.772
 6434SOL     OW19645   4.297   0.870   1.029
 6434SOL    HW119646   4.341   0.959   1.020
 6434SOL    HW219647   4.234   0.870   1.106
 6435SOL     OW19648   5.084   0.862   1.045
 6435SOL    HW119649   5.009   0.862   0.979
 6435SOL    HW219650   5.121   0.770   1.054
 6436SOL     OW19651   4.031   0.213   1.231
 6436SOL    HW119652   4.008   0.250   1.321
 6436SOL    HW219653   4.001   0.118   1.225
 6437SOL     OW19654   3.761   1.310   1.282
 6437SOL    HW119655   3.814   1.261   1.350
 6437SOL    HW219656   3.783   1.408   1.287
 6438SOL     OW19657   4.456   0.634   1.064
 6438SOL    HW119658   4.515   0.608   0.988
 6438SOL    HW219659   4.428   0.730   1.053
 6439SOL     OW19660   5.452   0.935   1.854
 6439SOL    HW119661   5.406   0.928   1.765
 6439SOL    HW219662   5.390   0.979   1.920
 6440SOL     OW19663   4.031   0.063   0.618
 6440SOL    HW119664   4.020   0.157   0.651
 6440SOL    HW219665   4.026   0.000   0.695
 6441SOL     OW19666   4.747   0.766   0.966
 6441SOL    HW119667   4.762   0.787   1.062
 6441SOL    HW219668   4.717   0.671   0.957
 6442SOL     OW19669   4.704   1.573   1.700
 6442SOL    HW119670   4.684   1.617   1.612
 6442SOL    HW219671   4.743   1.482   1.684
 6443SOL     OW19672   5.583   1.518   1.605
 6443SOL    HW119673   5.597   1.545   1.510
 6443SOL    HW219674   5.666   1.540   1.658
 6444SOL     OW19675   4.074   0.898   1.804
 6444SOL    HW119676   4.150   0.942   1.852
 6444SOL    HW219677   4.109   0.851   1.722
 6445SOL     OW19678   4.792   1.333   0.849
 6445SOL    HW119679   4.799   1.249   0.794
 6445SOL    HW219680   4.854   1.402   0.813
 6446SOL     OW19681   4.043   0.810   0.949
 6446SOL    HW119682   4.136   0.846   0.954
 6446SOL    HW219683   4.037   0.725   1.001
 6447SOL     OW19684   4.063   0.509   1.006
 6447SOL    HW119685   4.011   0.426   0.989
 6447SOL    HW219686   4.140   0.514   0.942
 6448SOL     OW19687   4.862   0.380   1.678
 6448SOL    HW119688   4.817   0.443   1.742
 6448SOL    HW219689   4.955   0.411   1.661
 6449SOL     OW19690   4.884   0.207   1.477
 6449SOL    HW119691   4.884   0.271   1.554
 6449SOL    HW219692   4.912   0.255   1.394
 6450SOL     OW19693   3.812   1.801   0.927
 6450SOL    HW119694   3.770   1.715   0.900
 6450SOL    HW219695   3.906   1.804   0.893
 6451SOL     OW19696   4.228   1.568   0.910
 6451SOL    HW119697   4.294   1.642   0.919
 6451SOL    HW219698   4.272   1.489   0.868
 6452SOL     OW19699   4.726   0.796   1.238
 6452SOL    HW119700   4.767   0.764   1.324
 6452SOL    HW219701   4.630   0.769   1.235
 6453SOL     OW19702   3.764   0.544   1.114
 6453SOL    HW119703   3.849   0.511   1.073
 6453SOL    HW219704   3.777   0.559   1.212
 6454SOL     OW19705   3.913   0.520   1.722
 6454SOL    HW119706   3.972   0.480   1.652
 6454SOL    HW219707   3.855   0.591   1.681
 6455SOL     OW19708   5.093   0.950   1.660
 6455SOL    HW119709   5.132   1.039   1.680
 6455SOL    HW219710   5.103   0.930   1.563
 6456SOL     OW19711   5.381   0.604   1.206
 6456SOL    HW119712   5.343   0.535   1.268
 6456SOL    HW219713   5.463   0.568   1.162
 6457SOL     OW19714   3.976   1.564   1.744
 6457SOL    HW119715   3.946   1.621   1.820
 6457SOL    HW219716   3.969   1.467   1.770
 6458SOL     OW19717   4.395   0.464   1.269
 6458SOL    HW119718   4.361   0.375   1.239
 6458SOL    HW219719   4.421   0.518   1.189
 6459SOL     OW19720   4.654   1.678   1.465
 6459SOL    HW119721   4.630   1.660   1.370
 6459SOL    HW219722   4.684   1.772   1.475
 6460SOL     OW19723   3.883   1.137   1.466
 6460SOL    HW119724   3.905   1.076   1.542
 6460SOL    HW219725   3.893   1.088   1.380
 6461SOL     OW19726   5.071   1.059   1.234
 6461SOL    HW119727   5.095   0.996   1.160
 6461SOL    HW219728   4.981   1.099   1.216
 6462SOL     OW19729   5.483   1.747   1.154
 6462SOL    HW119730   5.544   1.777   1.081
 6462SOL    HW219731   5.445   1.658   1.132
 6463SOL     OW19732   4.976   1.731   1.128
 6463SOL    HW119733   5.060   1.736   1.074
 6463SOL    HW219734   4.953   1.635   1.146
 6464SOL     OW19735   3.807   1.258   1.022
 6464SOL    HW119736   3.802   1.257   1.122
 6464SOL    HW219737   3.724   1.217   0.984
 6465SOL     OW19738   4.412   1.662   1.716
 6465SOL    HW119739   4.356   1.743   1.725
 6465SOL    HW219740   4.464   1.666   1.630
 6466SOL     OW19741   5.450   0.135   0.523
 6466SOL    HW119742   5.523   0.118   0.456
 6466SOL    HW219743   5.419   0.048   0.561
 6467SOL     OW19744   5.112   1.573   0.477
 6467SOL    HW119745   5.179   1.585   0.403
 6467SOL    HW219746   5.072   1.662   0.500
 6468SOL     OW19747   3.854   1.794   1.851
 6468SOL    HW119748   3.813   1.720   1.904
 6468SOL    HW219749   3.918   1.845   1.909
 6469SOL     OW19750   5.004   0.927   0.672
 6469SOL    HW119751   5.064   0.846   0.674
 6469SOL    HW219752   5.044   0.996   0.612
 6470SOL     OW19753   4.554   1.273   1.422
 6470SOL    HW119754   4.549   1.306   1.517
 6470SOL    HW219755   4.468   1.292   1.376
 6471SOL     OW19756   5.374   1.720   1.394
 6471SOL    HW119757   5.427   1.730   1.310
 6471SOL    HW219758   5.347   1.810   1.428
 6472SOL     OW19759   3.987   0.326   0.720
 6472SOL    HW119760   3.908   0.377   0.686
 6472SOL    HW219761   3.978   0.311   0.818
 6473SOL     OW19762   4.546   1.002   1.372
 6473SOL    HW119763   4.586   1.001   1.280
 6473SOL    HW219764   4.556   1.094   1.412
 6474SOL     OW19765   4.640   0.910   0.291
 6474SOL    HW119766   4.703   0.948   0.223
 6474SOL    HW219767   4.680   0.827   0.330
 6475SOL     OW19768   4.096   1.288   1.490
 6475SOL    HW119769   4.083   1.381   1.456
 6475SOL    HW219770   4.012   1.236   1.477
 6476SOL     OW19771   5.338   1.292   1.289
 6476SOL    HW119772   5.398   1.295   1.369
 6476SOL    HW219773   5.263   1.356   1.302
 6477SOL     OW19774   4.763   1.098   0.696
 6477SOL    HW119775   4.693   1.051   0.750
 6477SOL    HW219776   4.822   1.030   0.653
 6478SOL     OW19777   4.738   0.236   0.971
 6478SOL    HW119778   4.730   0.200   0.878
 6478SOL    HW219779   4.736   0.160   1.036
 6479SOL     OW19780   4.314   1.487   0.491
 6479SOL    HW119781   4.356   1.429   0.421
 6479SOL    HW219782   4.270   1.566   0.447
 6480SOL     OW19783   5.433   0.385   1.381
 6480SOL    HW119784   5.506   0.454   1.385
 6480SOL    HW219785   5.461   0.310   1.322
 6481SOL     OW19786   3.829   1.013   1.726
 6481SOL    HW119787   3.752   0.980   1.780
 6481SOL    HW219788   3.914   0.983   1.768
 6482SOL     OW19789   4.396   0.203   1.489
 6482SOL    HW119790   4.486   0.187   1.449
 6482SOL    HW219791   4.404   0.208   1.588
 6483SOL     OW19792   5.164   0.856   1.398
 6483SOL    HW119793   5.107   0.908   1.335
 6483SOL    HW219794   5.260   0.868   1.374
 6484SOL     OW19795   3.796   0.166   0.318
 6484SOL    HW119796   3.779   0.249   0.264
 6484SOL    HW219797   3.886   0.129   0.296
 6485SOL     OW19798   4.337   0.842   1.431
 6485SOL    HW119799   4.393   0.923   1.414
 6485SOL    HW219800   4.396   0.762   1.434
 6486SOL     OW19801   5.217   1.767   0.959
 6486SOL    HW119802   5.250   1.831   0.890
 6486SOL    HW219803   5.283   1.761   1.034
 6487SOL     OW19804   4.440   0.565   1.708
 6487SOL    HW119805   4.459   0.630   1.782
 6487SOL    HW219806   4.500   0.485   1.717
 6488SOL     OW19807   5.174   1.220   1.633
 6488SOL    HW119808   5.165   1.210   1.732
 6488SOL    HW219809   5.270   1.213   1.607
 6489SOL     OW19810   4.114   1.741   1.560
 6489SOL    HW119811   4.023   1.782   1.558
 6489SOL    HW219812   4.107   1.647   1.592
 6490SOL     OW19813   5.398   0.883   1.254
 6490SOL    HW119814   5.371   0.794   1.217
 6490SOL    HW219815   5.399   0.951   1.181
 6491SOL     OW19816   4.318   0.745   0.652
 6491SOL    HW119817   4.368   0.830   0.633
 6491SOL    HW219818   4.230   0.747   0.604
 6492SOL     OW19819   5.454   0.934   1.517
 6492SOL    HW119820   5.492   1.025   1.532
 6492SOL    HW219821   5.446   0.917   1.418
 6493SOL     OW19822   4.385   1.790   0.953
 6493SOL    HW119823   4.339   1.878   0.940
 6493SOL    HW219824   4.484   1.802   0.946
 6494SOL     OW19825   4.583   0.956   0.861
 6494SOL    HW119826   4.637   0.887   0.909
 6494SOL    HW219827   4.551   1.025   0.927
 6495SOL     OW19828   5.585   1.569   0.851
 6495SOL    HW119829   5.514   1.557   0.781
 6495SOL    HW219830   5.586   1.490   0.911
 6496SOL     OW19831   3.945   1.314   1.844
 6496SOL    HW119832   3.880   1.241   1.823
 6496SOL    HW219833   3.949   1.328   1.942
 6497SOL     OW19834   3.803   1.240   0.653
 6497SOL    HW119835   3.802   1.193   0.741
 6497SOL    HW219836   3.885   1.212   0.602
 6498SOL     OW19837   4.396   1.391   1.624
 6498SOL    HW119838   4.318   1.341   1.662
 6498SOL    HW219839   4.393   1.486   1.655
 6499SOL     OW19840   4.152   0.424   0.520
 6499SOL    HW119841   4.182   0.352   0.458
 6499SOL    HW219842   4.113   0.384   0.603
 6500SOL     OW19843   5.429   1.487   1.104
 6500SOL    HW119844   5.336   1.462   1.077
 6500SOL    HW219845   5.455   1.437   1.186
 6501SOL     OW19846   4.041   0.547   1.280
 6501SOL    HW119847   4.079   0.488   1.352
 6501SOL    HW219848   4.081   0.521   1.192
 6502SOL     OW19849   4.536   1.586   0.687
 6502SOL    HW119850   4.568   1.596   0.593
 6502SOL    HW219851   4.457   1.524   0.689
 6503SOL     OW19852   5.148   0.214   1.112
 6503SOL    HW119853   5.200   0.149   1.167
 6503SOL    HW219854   5.099   0.277   1.173
 6504SOL     OW19855   4.725   0.034   1.154
 6504SOL    HW119856   4.662  -0.038   1.123
 6504SOL    HW219857   4.818  -0.002   1.154
 6505SOL     OW19858   4.342   1.567   1.284
 6505SOL    HW119859   4.337   1.649   1.341
 6505SOL    HW219860   4.431   1.564   1.239
 6506SOL     OW19861   5.024   0.453   0.691
 6506SOL    HW119862   4.965   0.533   0.695
 6506SOL    HW219863   5.039   0.418   0.784
 6507SOL     OW19864   5.317   0.221   0.882
 6507SOL    HW119865   5.233   0.220   0.936
 6507SOL    HW219866   5.319   0.304   0.826
 6508SOL     OW19867   3.954   0.628   1.975
 6508SOL    HW119868   3.861   0.626   2.012
 6508SOL    HW219869   3.955   0.589   1.883
 6509SOL     OW19870   3.949   0.275   2.858
 6509SOL    HW119871   3.984   0.258   2.950
 6509SOL    HW219872   3.861   0.230   2.846
 6510SOL     OW19873   3.743   0.368   2.509
 6510SOL    HW119874   3.661   0.411   2.548
 6510SOL    HW219875   3.715   0.295   2.446
 6511SOL     OW19876   4.293   1.275   3.027
 6511SOL    HW119877   4.200   1.268   2.990
 6511SOL    HW219878   4.304   1.364   3.071
 6512SOL     OW19879   5.279   1.511   2.565
 6512SOL    HW119880   5.222   1.495   2.646
 6512SOL    HW219881   5.220   1.521   2.485
 6513SOL     OW19882   5.467   0.618   2.718
 6513SOL    HW119883   5.500   0.712   2.718
 6513SOL    HW219884   5.518   0.564   2.784
 6514SOL     OW19885   4.859   0.703   2.579
 6514SOL    HW119886   4.916   0.781   2.554
 6514SOL    HW219887   4.799   0.729   2.655
 6515SOL     OW19888   5.479   0.607   2.093
 6515SOL    HW119889   5.467   0.594   1.994
 6515SOL    HW219890   5.449   0.526   2.142
 6516SOL     OW19891   4.492   1.144   2.885
 6516SOL    HW119892   4.414   1.161   2.945
 6516SOL    HW219893   4.526   1.231   2.849
 6517SOL     OW19894   4.574   0.798   3.685
 6517SOL    HW119895   4.570   0.874   3.750
 6517SOL    HW219896   4.596   0.834   3.594
 6518SOL     OW19897   4.409   1.012   2.527
 6518SOL    HW119898   4.478   0.996   2.597
 6518SOL    HW219899   4.336   1.069   2.565
 6519SOL     OW19900   4.410   1.161   3.665
 6519SOL    HW119901   4.470   1.240   3.679
 6519SOL    HW219902   4.324   1.192   3.624
 6520SOL     OW19903   4.059   1.435   2.923
 6520SOL    HW119904   3.981   1.404   2.870
 6520SOL    HW219905   4.117   1.493   2.866
 6521SOL     OW19906   5.184   1.505   3.201
 6521SOL    HW119907   5.208   1.599   3.227
 6521SOL    HW219908   5.168   1.451   3.283
 6522SOL     OW19909   4.162   0.392   3.361
 6522SOL    HW119910   4.244   0.336   3.370
 6522SOL    HW219911   4.081   0.334   3.365
 6523SOL     OW19912   3.955   1.713   2.345
 6523SOL    HW119913   3.989   1.790   2.399
 6523SOL    HW219914   3.999   1.713   2.255
 6524SOL     OW19915   4.851   1.341   3.552
 6524SOL    HW119916   4.898   1.341   3.640
 6524SOL    HW219917   4.803   1.254   3.541
 6525SOL     OW19918   3.954   1.434   2.400
 6525SOL    HW119919   3.928   1.530   2.400
 6525SOL    HW219920   3.883   1.380   2.445
 6526SOL     OW19921   3.964   1.091   2.748
 6526SOL    HW119922   3.978   1.007   2.800
 6526SOL    HW219923   3.909   1.155   2.803
 6527SOL     OW19924   4.344   1.786   3.301
 6527SOL    HW119925   4.252   1.769   3.336
 6527SOL    HW219926   4.372   1.878   3.327
 6528SOL     OW19927   4.330   0.964   1.985
 6528SOL    HW119928   4.337   1.048   1.931
 6528SOL    HW219929   4.376   0.977   2.073
 6529SOL     OW19930   5.318   0.114   3.342
 6529SOL    HW119931   5.300   0.181   3.270
 6529SOL    HW219932   5.315   0.160   3.431
 6530SOL     OW19933   3.846   0.643   2.425
 6530SOL    HW119934   3.801   0.555   2.442
 6530SOL    HW219935   3.845   0.697   2.509
 6531SOL     OW19936   5.566   1.767   2.221
 6531SOL    HW119937   5.620   1.738   2.301
 6531SOL    HW219938   5.596   1.857   2.192
 6532SOL     OW19939   3.751   1.596   1.979
 6532SOL    HW119940   3.732   1.500   2.000
 6532SOL    HW219941   3.718   1.654   2.054
 6533SOL     OW19942   5.413   0.922   2.474
 6533SOL    HW119943   5.508   0.893   2.482
 6533SOL    HW219944   5.405   0.987   2.399
 6534SOL     OW19945   5.365   1.108   2.294
 6534SOL    HW119946   5.451   1.110   2.242
 6534SOL    HW219947   5.379   1.155   2.382
 6535SOL     OW19948   3.837   0.737   3.459
 6535SOL    HW119949   3.925   0.724   3.504
 6535SOL    HW219950   3.824   0.834   3.437
 6536SOL     OW19951   4.337   1.365   2.588
 6536SOL    HW119952   4.288   1.278   2.597
 6536SOL    HW219953   4.314   1.408   2.501
 6537SOL     OW19954   5.017   1.228   3.285
 6537SOL    HW119955   5.054   1.155   3.227
 6537SOL    HW219956   5.069   1.233   3.370
 6538SOL     OW19957   4.533   0.004   2.364
 6538SOL    HW119958   4.573   0.095   2.355
 6538SOL    HW219959   4.433   0.012   2.370
 6539SOL     OW19960   3.921   0.976   3.126
 6539SOL    HW119961   4.010   0.931   3.112
 6539SOL    HW219962   3.848   0.911   3.107
 6540SOL     OW19963   5.249   0.999   2.052
 6540SOL    HW119964   5.186   0.923   2.065
 6540SOL    HW219965   5.297   1.017   2.138
 6541SOL     OW19966   4.911   1.792   3.478
 6541SOL    HW119967   4.935   1.852   3.402
 6541SOL    HW219968   4.918   1.697   3.448
 6542SOL     OW19969   4.041   0.251   3.663
 6542SOL    HW119970   4.112   0.322   3.669
 6542SOL    HW219971   3.953   0.290   3.691
 6543SOL     OW19972   5.190   1.417   2.815
 6543SOL    HW119973   5.131   1.423   2.895
 6543SOL    HW219974   5.175   1.329   2.769
 6544SOL     OW19975   5.391   1.714   2.434
 6544SOL    HW119976   5.350   1.691   2.346
 6544SOL    HW219977   5.373   1.640   2.499
 6545SOL     OW19978   4.322   0.729   2.132
 6545SOL    HW119979   4.346   0.798   2.064
 6545SOL    HW219980   4.244   0.762   2.186
 6546SOL     OW19981   5.005   0.345   2.806
 6546SOL    HW119982   4.919   0.295   2.793
 6546SOL    HW219983   5.067   0.291   2.862
 6547SOL     OW19984   5.300   1.662   2.169
 6547SOL    HW119985   5.389   1.708   2.172
 6547SOL    HW219986   5.279   1.638   2.074
 6548SOL     OW19987   4.531   0.605   3.327
 6548SOL    HW119988   4.484   0.602   3.416
 6548SOL    HW219989   4.480   0.550   3.261
 6549SOL     OW19990   5.118   0.469   3.536
 6549SOL    HW119991   5.098   0.512   3.624
 6549SOL    HW219992   5.196   0.407   3.545
 6550SOL     OW19993   4.697   0.890   3.434
 6550SOL    HW119994   4.743   0.806   3.405
 6550SOL    HW219995   4.641   0.924   3.359
 6551SOL     OW19996   4.715   0.410   3.104
 6551SOL    HW119997   4.638   0.444   3.158
 6551SOL    HW219998   4.681   0.359   3.025
 6552SOL     OW19999   4.765   0.701   2.291
 6552SOL    HW120000   4.791   0.697   2.387
 6552SOL    HW220001   4.680   0.650   2.277
 6553SOL     OW20002   3.800   0.811   2.651
 6553SOL    HW120003   3.899   0.799   2.660
 6553SOL    HW220004   3.776   0.906   2.672
 6554SOL     OW20005   3.854   1.821   3.433
 6554SOL    HW120006   3.844   1.806   3.532
 6554SOL    HW220007   3.768   1.857   3.397
 6555SOL     OW20008   4.589   0.348   2.057
 6555SOL    HW120009   4.648   0.411   2.008
 6555SOL    HW220010   4.608   0.254   2.028
 6556SOL     OW20011   5.443   0.585   3.693
 6556SOL    HW120012   5.417   0.674   3.657
 6556SOL    HW220013   5.441   0.517   3.620
 6557SOL     OW20014   5.086   1.144   2.407
 6557SOL    HW120015   5.169   1.115   2.359
 6557SOL    HW220016   5.037   1.211   2.351
 6558SOL     OW20017   4.274   0.196   2.747
 6558SOL    HW120018   4.269   0.191   2.847
 6558SOL    HW220019   4.276   0.292   2.718
 6559SOL     OW20020   4.732   1.456   2.339
 6559SOL    HW120021   4.686   1.528   2.287
 6559SOL    HW220022   4.728   1.476   2.437
 6560SOL     OW20023   4.075   1.801   2.715
 6560SOL    HW120024   4.125   1.715   2.721
 6560SOL    HW220025   4.140   1.878   2.712
 6561SOL     OW20026   5.519   1.066   2.735
 6561SOL    HW120027   5.457   1.051   2.659
 6561SOL    HW220028   5.467   1.077   2.820
 6562SOL     OW20029   4.951   1.550   3.368
 6562SOL    HW120030   4.957   1.473   3.432
 6562SOL    HW220031   4.899   1.524   3.288
 6563SOL     OW20032   4.045   0.943   2.104
 6563SOL    HW120033   4.127   0.982   2.062
 6563SOL    HW220034   4.018   0.861   2.055
 6564SOL     OW20035   5.182   0.735   2.590
 6564SOL    HW120036   5.177   0.670   2.665
 6564SOL    HW220037   5.262   0.794   2.603
 6565SOL     OW20038   4.185   1.266   3.589
 6565SOL    HW120039   4.135   1.267   3.503
 6565SOL    HW220040   4.122   1.248   3.665
 6566SOL     OW20041   4.835   1.776   2.099
 6566SOL    HW120042   4.775   1.714   2.149
 6566SOL    HW220043   4.866   1.732   2.014
 6567SOL     OW20044   3.926   0.285   3.360
 6567SOL    HW120045   3.846   0.345   3.347
 6567SOL    HW220046   3.916   0.236   3.446
 6568SOL     OW20047   5.356   1.377   1.943
 6568SOL    HW120048   5.324   1.471   1.933
 6568SOL    HW220049   5.280   1.314   1.931
 6569SOL     OW20050   4.188   1.743   2.185
 6569SOL    HW120051   4.221   1.782   2.271
 6569SOL    HW220052   4.264   1.736   2.120
 6570SOL     OW20053   5.124   0.107   2.288
 6570SOL    HW120054   5.100   0.070   2.198
 6570SOL    HW220055   5.223   0.123   2.292
 6571SOL     OW20056   3.973   1.785   3.103
 6571SOL    HW120057   4.030   1.720   3.153
 6571SOL    HW220058   3.957   1.752   3.010
 6572SOL     OW20059   4.664   1.698   2.766
 6572SOL    HW120060   4.744   1.641   2.787
 6572SOL    HW220061   4.615   1.658   2.689
 6573SOL     OW20062   4.106   0.700   2.342
 6573SOL    HW120063   4.151   0.610   2.339
 6573SOL    HW220064   4.012   0.689   2.375
 6574SOL     OW20065   4.338   0.122   1.979
 6574SOL    HW120066   4.436   0.100   1.986
 6574SOL    HW220067   4.307   0.105   1.886
 6575SOL     OW20068   4.505   0.264   3.611
 6575SOL    HW120069   4.572   0.203   3.654
 6575SOL    HW220070   4.432   0.283   3.676
 6576SOL     OW20071   4.612   1.514   3.057
 6576SOL    HW120072   4.589   1.489   2.963
 6576SOL    HW220073   4.673   1.445   3.096
 6577SOL     OW20074   5.075   0.590   3.295
 6577SOL    HW120075   5.103   0.547   3.380
 6577SOL    HW220076   5.100   0.686   3.296
 6578SOL     OW20077   4.527   1.402   2.786
 6578SOL    HW120078   4.617   1.416   2.744
 6578SOL    HW220079   4.456   1.404   2.715
 6579SOL     OW20080   4.646   0.503   2.761
 6579SOL    HW120081   4.621   0.494   2.665
 6579SOL    HW220082   4.694   0.421   2.792
 6580SOL     OW20083   4.263   0.064   2.374
 6580SOL    HW120084   4.182   0.065   2.432
 6580SOL    HW220085   4.266   0.147   2.319
 6581SOL     OW20086   5.158   1.188   1.903
 6581SOL    HW120087   5.190   1.112   1.960
 6581SOL    HW220088   5.066   1.215   1.933
 6582SOL     OW20089   4.021   0.035   2.033
 6582SOL    HW120090   4.070   0.119   2.012
 6582SOL    HW220091   4.083  -0.030   2.078
 6583SOL     OW20092   4.659   0.236   2.342
 6583SOL    HW120093   4.611   0.277   2.264
 6583SOL    HW220094   4.758   0.234   2.323
 6584SOL     OW20095   4.800   0.683   3.326
 6584SOL    HW120096   4.720   0.622   3.329
 6584SOL    HW220097   4.881   0.630   3.302
 6585SOL     OW20098   4.951   1.570   2.655
 6585SOL    HW120099   4.972   1.644   2.590
 6585SOL    HW220100   5.019   1.570   2.728
 6586SOL     OW20101   4.183   1.152   2.603
 6586SOL    HW120102   4.112   1.125   2.668
 6586SOL    HW220103   4.157   1.124   2.510
 6587SOL     OW20104   4.995   1.797   2.453
 6587SOL    HW120105   5.039   1.861   2.389
 6587SOL    HW220106   4.945   1.849   2.523
 6588SOL     OW20107   4.756   0.549   1.878
 6588SOL    HW120108   4.715   0.631   1.839
 6588SOL    HW220109   4.820   0.575   1.951
 6589SOL     OW20110   3.802   0.556   3.248
 6589SOL    HW120111   3.894   0.555   3.207
 6589SOL    HW220112   3.796   0.630   3.315
 6590SOL     OW20113   4.285   0.222   3.009
 6590SOL    HW120114   4.323   0.138   3.046
 6590SOL    HW220115   4.197   0.241   3.053
 6591SOL     OW20116   4.590   0.454   2.504
 6591SOL    HW120117   4.558   0.526   2.442
 6591SOL    HW220118   4.614   0.373   2.451
 6592SOL     OW20119   4.741   0.039   2.615
 6592SOL    HW120120   4.669   0.044   2.546
 6592SOL    HW220121   4.717  -0.030   2.684
 6593SOL     OW20122   5.153   1.173   2.729
 6593SOL    HW120123   5.098   1.089   2.722
 6593SOL    HW220124   5.179   1.202   2.637
 6594SOL     OW20125   5.190   0.590   2.854
 6594SOL    HW120126   5.160   0.495   2.861
 6594SOL    HW220127   5.263   0.606   2.920
 6595SOL     OW20128   5.581   0.833   2.239
 6595SOL    HW120129   5.623   0.769   2.303
 6595SOL    HW220130   5.543   0.782   2.161
 6596SOL     OW20131   4.212   1.385   2.036
 6596SOL    HW120132   4.125   1.370   2.083
 6596SOL    HW220133   4.195   1.411   1.941
 6597SOL     OW20134   5.388   1.280   2.519
 6597SOL    HW120135   5.487   1.288   2.533
 6597SOL    HW220136   5.343   1.364   2.550
 6598SOL     OW20137   5.114   0.575   1.940
 6598SOL    HW120138   5.060   0.554   2.021
 6598SOL    HW220139   5.205   0.534   1.949
 6599SOL     OW20140   4.251   0.256   2.190
 6599SOL    HW120141   4.278   0.197   2.115
 6599SOL    HW220142   4.251   0.351   2.159
 6600SOL     OW20143   5.478   1.223   3.450
 6600SOL    HW120144   5.569   1.184   3.437
 6600SOL    HW220145   5.486   1.319   3.474
 6601SOL     OW20146   4.788   1.347   3.202
 6601SOL    HW120147   4.708   1.324   3.257
 6601SOL    HW220148   4.871   1.321   3.251
 6602SOL     OW20149   5.316   1.629   3.487
 6602SOL    HW120150   5.343   1.663   3.397
 6602SOL    HW220151   5.395   1.591   3.533
 6603SOL     OW20152   4.835   1.195   2.962
 6603SOL    HW120153   4.795   1.239   3.043
 6603SOL    HW220154   4.794   1.232   2.879
 6604SOL     OW20155   5.362   1.099   2.941
 6604SOL    HW120156   5.367   1.180   3.000
 6604SOL    HW220157   5.276   1.101   2.890
 6605SOL     OW20158   4.639   0.089   3.264
 6605SOL    HW120159   4.664   0.069   3.169
 6605SOL    HW220160   4.711   0.145   3.306
 6606SOL     OW20161   4.704   1.116   3.581
 6606SOL    HW120162   4.605   1.122   3.591
 6606SOL    HW220163   4.727   1.036   3.525
 6607SOL     OW20164   4.429   1.050   2.230
 6607SOL    HW120165   4.415   1.057   2.329
 6607SOL    HW220166   4.513   0.999   2.212
 6608SOL     OW20167   4.134   0.813   3.113
 6608SOL    HW120168   4.220   0.825   3.163
 6608SOL    HW220169   4.092   0.726   3.140
 6609SOL     OW20170   4.998   0.386   3.124
 6609SOL    HW120171   5.019   0.460   3.188
 6609SOL    HW220172   4.909   0.403   3.081
 6610SOL     OW20173   3.788   1.564   3.193
 6610SOL    HW120174   3.742   1.646   3.159
 6610SOL    HW220175   3.886   1.583   3.202
 6611SOL     OW20176   4.091   1.100   2.363
 6611SOL    HW120177   4.084   1.183   2.307
 6611SOL    HW220178   4.095   1.020   2.303
 6612SOL     OW20179   4.290   0.537   2.727
 6612SOL    HW120180   4.302   0.603   2.653
 6612SOL    HW220181   4.336   0.571   2.810
 6613SOL     OW20182   4.976   1.348   2.250
 6613SOL    HW120183   5.026   1.425   2.290
 6613SOL    HW220184   4.881   1.350   2.282
 6614SOL     OW20185   4.996   1.445   3.004
 6614SOL    HW120186   5.043   1.458   3.091
 6614SOL    HW220187   4.930   1.371   3.013
 6615SOL     OW20188   5.306   0.639   2.334
 6615SOL    HW120189   5.275   0.700   2.407
 6615SOL    HW220190   5.356   0.691   2.265
 6616SOL     OW20191   4.078   1.510   3.191
 6616SOL    HW120192   4.057   1.466   3.104
 6616SOL    HW220193   4.175   1.536   3.194
 6617SOL     OW20194   4.126   0.751   3.460
 6617SOL    HW120195   4.194   0.806   3.413
 6617SOL    HW220196   4.166   0.663   3.487
 6618SOL     OW20197   5.311   0.779   3.532
 6618SOL    HW120198   5.219   0.817   3.527
 6618SOL    HW220199   5.371   0.826   3.467
 6619SOL     OW20200   4.737   0.105   3.632
 6619SOL    HW120201   4.743   0.190   3.580
 6619SOL    HW220202   4.769   0.029   3.575
 6620SOL     OW20203   4.228   0.050   3.602
 6620SOL    HW120204   4.186  -0.007   3.532
 6620SOL    HW220205   4.162   0.119   3.634
 6621SOL     OW20206   4.297   0.870   2.891
 6621SOL    HW120207   4.341   0.959   2.882
 6621SOL    HW220208   4.234   0.870   2.968
 6622SOL     OW20209   5.084   0.862   2.907
 6622SOL    HW120210   5.009   0.862   2.841
 6622SOL    HW220211   5.121   0.770   2.916
 6623SOL     OW20212   4.933   0.525   2.137
 6623SOL    HW120213   4.946   0.441   2.191
 6623SOL    HW220214   4.904   0.599   2.197
 6624SOL     OW20215   4.031   0.213   3.093
 6624SOL    HW120216   4.008   0.250   3.183
 6624SOL    HW220217   4.001   0.118   3.087
 6625SOL     OW20218   3.761   1.310   3.144
 6625SOL    HW120219   3.814   1.261   3.212
 6625SOL    HW220220   3.783   1.408   3.149
 6626SOL     OW20221   4.456   0.634   2.926
 6626SOL    HW120222   4.515   0.608   2.850
 6626SOL    HW220223   4.428   0.730   2.915
 6627SOL     OW20224   5.452   0.935   3.716
 6627SOL    HW120225   5.406   0.928   3.627
 6627SOL    HW220226   5.390   0.979   3.782
 6628SOL     OW20227   4.031   0.063   2.480
 6628SOL    HW120228   4.020   0.157   2.513
 6628SOL    HW220229   4.026   0.000   2.557
 6629SOL     OW20230   5.346   0.367   2.236
 6629SOL    HW120231   5.348   0.291   2.300
 6629SOL    HW220232   5.298   0.444   2.276
 6630SOL     OW20233   4.747   0.766   2.828
 6630SOL    HW120234   4.762   0.787   2.924
 6630SOL    HW220235   4.717   0.671   2.819
 6631SOL     OW20236   4.704   1.573   3.562
 6631SOL    HW120237   4.684   1.617   3.474
 6631SOL    HW220238   4.743   1.482   3.546
 6632SOL     OW20239   5.583   1.518   3.467
 6632SOL    HW120240   5.597   1.545   3.372
 6632SOL    HW220241   5.666   1.540   3.520
 6633SOL     OW20242   4.074   0.898   3.666
 6633SOL    HW120243   4.150   0.942   3.714
 6633SOL    HW220244   4.109   0.851   3.584
 6634SOL     OW20245   5.027   0.838   1.904
 6634SOL    HW120246   5.061   0.745   1.919
 6634SOL    HW220247   5.045   0.865   1.809
 6635SOL     OW20248   4.792   1.333   2.711
 6635SOL    HW120249   4.799   1.249   2.656
 6635SOL    HW220250   4.854   1.402   2.675
 6636SOL     OW20251   4.043   0.810   2.811
 6636SOL    HW120252   4.136   0.846   2.816
 6636SOL    HW220253   4.037   0.725   2.863
 6637SOL     OW20254   4.063   0.509   2.868
 6637SOL    HW120255   4.011   0.426   2.851
 6637SOL    HW220256   4.140   0.514   2.804
 6638SOL     OW20257   4.862   0.380   3.540
 6638SOL    HW120258   4.817   0.443   3.604
 6638SOL    HW220259   4.955   0.411   3.523
 6639SOL     OW20260   4.884   0.207   3.339
 6639SOL    HW120261   4.884   0.271   3.416
 6639SOL    HW220262   4.912   0.255   3.256
 6640SOL     OW20263   3.732   1.326   2.062
 6640SOL    HW120264   3.639   1.347   2.031
 6640SOL    HW220265   3.742   1.227   2.075
 6641SOL     OW20266   3.812   1.801   2.789
 6641SOL    HW120267   3.770   1.715   2.762
 6641SOL    HW220268   3.906   1.804   2.755
 6642SOL     OW20269   4.228   1.568   2.772
 6642SOL    HW120270   4.294   1.642   2.781
 6642SOL    HW220271   4.272   1.489   2.730
 6643SOL     OW20272   4.726   0.796   3.100
 6643SOL    HW120273   4.767   0.764   3.186
 6643SOL    HW220274   4.630   0.769   3.097
 6644SOL     OW20275   3.764   0.544   2.976
 6644SOL    HW120276   3.849   0.511   2.935
 6644SOL    HW220277   3.777   0.559   3.074
 6645SOL     OW20278   3.913   0.520   3.584
 6645SOL    HW120279   3.972   0.480   3.514
 6645SOL    HW220280   3.855   0.591   3.543
 6646SOL     OW20281   5.093   0.950   3.522
 6646SOL    HW120282   5.132   1.039   3.542
 6646SOL    HW220283   5.103   0.930   3.425
 6647SOL     OW20284   4.539   0.572   2.187
 6647SOL    HW120285   4.546   0.483   2.141
 6647SOL    HW220286   4.445   0.606   2.179
 6648SOL     OW20287   5.381   0.604   3.068
 6648SOL    HW120288   5.343   0.535   3.130
 6648SOL    HW220289   5.463   0.568   3.024
 6649SOL     OW20290   3.976   1.564   3.606
 6649SOL    HW120291   3.946   1.621   3.682
 6649SOL    HW220292   3.969   1.467   3.632
 6650SOL     OW20293   4.395   0.464   3.131
 6650SOL    HW120294   4.361   0.375   3.101
 6650SOL    HW220295   4.421   0.518   3.051
 6651SOL     OW20296   4.654   1.678   3.327
 6651SOL    HW120297   4.630   1.660   3.232
 6651SOL    HW220298   4.684   1.772   3.337
 6652SOL     OW20299   4.197   0.500   2.053
 6652SOL    HW120300   4.258   0.580   2.057
 6652SOL    HW220301   4.102   0.531   2.060
 6653SOL     OW20302   3.883   1.137   3.328
 6653SOL    HW120303   3.905   1.076   3.404
 6653SOL    HW220304   3.893   1.088   3.242
 6654SOL     OW20305   5.071   1.059   3.096
 6654SOL    HW120306   5.095   0.996   3.022
 6654SOL    HW220307   4.981   1.099   3.078
 6655SOL     OW20308   5.026   0.855   2.171
 6655SOL    HW120309   4.940   0.824   2.213
 6655SOL    HW220310   5.022   0.841   2.072
 6656SOL     OW20311   5.483   1.747   3.016
 6656SOL    HW120312   5.544   1.777   2.943
 6656SOL    HW220313   5.445   1.658   2.994
 6657SOL     OW20314   4.976   1.731   2.990
 6657SOL    HW120315   5.060   1.736   2.936
 6657SOL    HW220316   4.953   1.635   3.008
 6658SOL     OW20317   3.807   1.258   2.884
 6658SOL    HW120318   3.802   1.257   2.984
 6658SOL    HW220319   3.724   1.217   2.846
 6659SOL     OW20320   4.412   1.662   3.578
 6659SOL    HW120321   4.356   1.743   3.587
 6659SOL    HW220322   4.464   1.666   3.492
 6660SOL     OW20323   5.450   0.135   2.385
 6660SOL    HW120324   5.523   0.118   2.318
 6660SOL    HW220325   5.419   0.048   2.423
 6661SOL     OW20326   5.112   1.573   2.339
 6661SOL    HW120327   5.179   1.585   2.265
 6661SOL    HW220328   5.072   1.662   2.362
 6662SOL     OW20329   3.854   1.794   3.713
 6662SOL    HW120330   3.813   1.720   3.766
 6662SOL    HW220331   3.918   1.845   3.771
 6663SOL     OW20332   5.004   0.927   2.534
 6663SOL    HW120333   5.064   0.846   2.536
 6663SOL    HW220334   5.044   0.996   2.474
 6664SOL     OW20335   4.554   1.273   3.284
 6664SOL    HW120336   4.549   1.306   3.379
 6664SOL    HW220337   4.468   1.292   3.238
 6665SOL     OW20338   4.396   1.616   2.016
 6665SOL    HW120339   4.405   1.626   1.917
 6665SOL    HW220340   4.356   1.527   2.037
 6666SOL     OW20341   5.374   1.720   3.256
 6666SOL    HW120342   5.427   1.730   3.172
 6666SOL    HW220343   5.347   1.810   3.290
 6667SOL     OW20344   3.987   0.326   2.582
 6667SOL    HW120345   3.908   0.377   2.548
 6667SOL    HW220346   3.978   0.311   2.680
 6668SOL     OW20347   4.918   1.612   1.893
 6668SOL    HW120348   4.924   1.519   1.930
 6668SOL    HW220349   4.859   1.612   1.813
 6669SOL     OW20350   4.546   1.002   3.234
 6669SOL    HW120351   4.586   1.001   3.142
 6669SOL    HW220352   4.556   1.094   3.274
 6670SOL     OW20353   4.640   0.910   2.153
 6670SOL    HW120354   4.703   0.948   2.085
 6670SOL    HW220355   4.680   0.827   2.192
 6671SOL     OW20356   5.228   1.607   1.906
 6671SOL    HW120357   5.136   1.644   1.913
 6671SOL    HW220358   5.266   1.627   1.816
 6672SOL     OW20359   4.096   1.288   3.352
 6672SOL    HW120360   4.083   1.381   3.318
 6672SOL    HW220361   4.012   1.236   3.339
 6673SOL     OW20362   5.338   1.292   3.151
 6673SOL    HW120363   5.398   1.295   3.231
 6673SOL    HW220364   5.263   1.356   3.164
 6674SOL     OW20365   4.763   1.098   2.558
 6674SOL    HW120366   4.693   1.051   2.612
 6674SOL    HW220367   4.822   1.030   2.515
 6675SOL     OW20368   4.738   0.236   2.833
 6675SOL    HW120369   4.730   0.200   2.740
 6675SOL    HW220370   4.736   0.160   2.898
 6676SOL     OW20371   4.314   1.487   2.353
 6676SOL    HW120372   4.356   1.429   2.283
 6676SOL    HW220373   4.270   1.566   2.309
 6677SOL     OW20374   5.433   0.385   3.243
 6677SOL    HW120375   5.506   0.454   3.247
 6677SOL    HW220376   5.461   0.310   3.184
 6678SOL     OW20377   3.979   1.348   2.152
 6678SOL    HW120378   3.883   1.349   2.125
 6678SOL    HW220379   3.991   1.401   2.236
 6679SOL     OW20380   3.829   1.013   3.588
 6679SOL    HW120381   3.752   0.980   3.642
 6679SOL    HW220382   3.914   0.983   3.630
 6680SOL     OW20383   4.396   0.203   3.351
 6680SOL    HW120384   4.486   0.187   3.311
 6680SOL    HW220385   4.404   0.208   3.450
 6681SOL     OW20386   3.799   0.345   1.895
 6681SOL    HW120387   3.707   0.317   1.866
 6681SOL    HW220388   3.830   0.422   1.839
 6682SOL     OW20389   5.164   0.856   3.260
 6682SOL    HW120390   5.107   0.908   3.197
 6682SOL    HW220391   5.260   0.868   3.236
 6683SOL     OW20392   3.796   0.166   2.180
 6683SOL    HW120393   3.779   0.249   2.126
 6683SOL    HW220394   3.886   0.129   2.158
 6684SOL     OW20395   4.907   1.335   1.981
 6684SOL    HW120396   4.808   1.324   1.983
 6684SOL    HW220397   4.941   1.350   2.074
 6685SOL     OW20398   4.337   0.842   3.293
 6685SOL    HW120399   4.393   0.923   3.276
 6685SOL    HW220400   4.396   0.762   3.296
 6686SOL     OW20401   5.217   1.767   2.821
 6686SOL    HW120402   5.250   1.831   2.752
 6686SOL    HW220403   5.283   1.761   2.896
 6687SOL     OW20404   4.440   0.565   3.570
 6687SOL    HW120405   4.459   0.630   3.644
 6687SOL    HW220406   4.500   0.485   3.579
 6688SOL     OW20407   5.174   1.220   3.495
 6688SOL    HW120408   5.165   1.210   3.594
 6688SOL    HW220409   5.270   1.213   3.469
 6689SOL     OW20410   4.114   1.741   3.422
 6689SOL    HW120411   4.023   1.782   3.420
 6689SOL    HW220412   4.107   1.647   3.454
 6690SOL     OW20413   5.398   0.883   3.116
 6690SOL    HW120414   5.371   0.794   3.079
 6690SOL    HW220415   5.399   0.951   3.043
 6691SOL     OW20416   4.949   0.325   2.311
 6691SOL    HW120417   5.014   0.251   2.300
 6691SOL    HW220418   4.969   0.375   2.395
 6692SOL     OW20419   4.318   0.745   2.514
 6692SOL    HW120420   4.368   0.830   2.495
 6692SOL    HW220421   4.230   0.747   2.466
 6693SOL     OW20422   5.454   0.934   3.379
 6693SOL    HW120423   5.492   1.025   3.394
 6693SOL    HW220424   5.446   0.917   3.280
 6694SOL     OW20425   4.583   1.374   1.878
 6694SOL    HW120426   4.537   1.389   1.966
 6694SOL    HW220427   4.627   1.459   1.848
 6695SOL     OW20428   4.385   1.790   2.815
 6695SOL    HW120429   4.339   1.878   2.802
 6695SOL    HW220430   4.484   1.802   2.808
 6696SOL     OW20431   4.583   0.956   2.723
 6696SOL    HW120432   4.637   0.887   2.771
 6696SOL    HW220433   4.551   1.025   2.789
 6697SOL     OW20434   4.807   0.984   1.949
 6697SOL    HW120435   4.784   1.037   1.867
 6697SOL    HW220436   4.888   0.928   1.930
 6698SOL     OW20437   5.585   1.569   2.713
 6698SOL    HW120438   5.514   1.557   2.643
 6698SOL    HW220439   5.586   1.490   2.773
 6699SOL     OW20440   3.945   1.314   3.706
 6699SOL    HW120441   3.880   1.241   3.685
 6699SOL    HW220442   3.949   1.328   3.804
 6700SOL     OW20443   3.803   1.240   2.515
 6700SOL    HW120444   3.802   1.193   2.603
 6700SOL    HW220445   3.885   1.212   2.464
 6701SOL     OW20446   4.396   1.391   3.486
 6701SOL    HW120447   4.318   1.341   3.524
 6701SOL    HW220448   4.393   1.486   3.517
 6702SOL     OW20449   4.152   0.424   2.382
 6702SOL    HW120450   4.182   0.352   2.320
 6702SOL    HW220451   4.113   0.384   2.465
 6703SOL     OW20452   5.429   1.487   2.966
 6703SOL    HW120453   5.336   1.462   2.939
 6703SOL    HW220454   5.455   1.437   3.048
 6704SOL     OW20455   4.041   0.547   3.142
 6704SOL    HW120456   4.079   0.488   3.214
 6704SOL    HW220457   4.081   0.521   3.054
 6705SOL     OW20458   4.536   1.586   2.549
 6705SOL    HW120459   4.568   1.596   2.455
 6705SOL    HW220460   4.457   1.524   2.551
 6706SOL     OW20461   5.148   0.214   2.974
 6706SOL    HW120462   5.200   0.149   3.029
 6706SOL    HW220463   5.099   0.277   3.035
 6707SOL     OW20464   4.725   0.034   3.016
 6707SOL    HW120465   4.662  -0.038   2.985
 6707SOL    HW220466   4.818  -0.002   3.016
 6708SOL     OW20467   4.494   1.330   2.163
 6708SOL    HW120468   4.448   1.243   2.180
 6708SOL    HW220469   4.585   1.327   2.204
 6709SOL     OW20470   4.342   1.567   3.146
 6709SOL    HW120471   4.337   1.649   3.203
 6709SOL    HW220472   4.431   1.564   3.101
 6710SOL     OW20473   5.076   0.052   2.030
 6710SOL    HW120474   5.111   0.011   1.946
 6710SOL    HW220475   4.986   0.014   2.050
 6711SOL     OW20476   5.024   0.453   2.553
 6711SOL    HW120477   4.965   0.533   2.557
 6711SOL    HW220478   5.039   0.418   2.646
 6712SOL     OW20479   5.317   0.221   2.744
 6712SOL    HW120480   5.233   0.220   2.798
 6712SOL    HW220481   5.319   0.304   2.688
 6713SOL     OW20482   3.763   1.077   2.162
 6713SOL    HW120483   3.862   1.066   2.153
 6713SOL    HW220484   3.723   0.991   2.194
 6714SOL     OW20485   4.599   1.646   2.199
 6714SOL    HW120486   4.522   1.611   2.145
 6714SOL    HW220487   4.567   1.717   2.261
 6715SOL     OW20488   3.954   0.628   3.837
 6715SOL    HW120489   3.861   0.626   3.874
 6715SOL    HW220490   3.955   0.589   3.745
 6716SOL     OW20491   3.949   0.275   4.720
 6716SOL    HW120492   3.984   0.258   4.812
 6716SOL    HW220493   3.861   0.230   4.708
 6717SOL     OW20494   3.743   0.368   4.371
 6717SOL    HW120495   3.661   0.411   4.410
 6717SOL    HW220496   3.715   0.295   4.308
 6718SOL     OW20497   4.293   1.275   4.889
 6718SOL    HW120498   4.200   1.268   4.852
 6718SOL    HW220499   4.304   1.364   4.933
 6719SOL     OW20500   5.279   1.511   4.427
 6719SOL    HW120501   5.222   1.495   4.508
 6719SOL    HW220502   5.220   1.521   4.347
 6720SOL     OW20503   5.467   0.618   4.580
 6720SOL    HW120504   5.500   0.712   4.580
 6720SOL    HW220505   5.518   0.564   4.646
 6721SOL     OW20506   4.859   0.703   4.441
 6721SOL    HW120507   4.916   0.781   4.416
 6721SOL    HW220508   4.799   0.729   4.517
 6722SOL     OW20509   5.479   0.607   3.955
 6722SOL    HW120510   5.467   0.594   3.856
 6722SOL    HW220511   5.449   0.526   4.004
 6723SOL     OW20512   4.492   1.144   4.747
 6723SOL    HW120513   4.414   1.161   4.807
 6723SOL    HW220514   4.526   1.231   4.711
 6724SOL     OW20515   4.574   0.798   5.547
 6724SOL    HW120516   4.570   0.874   5.612
 6724SOL    HW220517   4.596   0.834   5.456
 6725SOL     OW20518   4.409   1.012   4.389
 6725SOL    HW120519   4.478   0.996   4.459
 6725SOL    HW220520   4.336   1.069   4.427
 6726SOL     OW20521   4.410   1.161   5.527
 6726SOL    HW120522   4.470   1.240   5.541
 6726SOL    HW220523   4.324   1.192   5.486
 6727SOL     OW20524   4.059   1.435   4.785
 6727SOL    HW120525   3.981   1.404   4.732
 6727SOL    HW220526   4.117   1.493   4.728
 6728SOL     OW20527   5.184   1.505   5.063
 6728SOL    HW120528   5.208   1.599   5.089
 6728SOL    HW220529   5.168   1.451   5.145
 6729SOL     OW20530   4.162   0.392   5.223
 6729SOL    HW120531   4.244   0.336   5.232
 6729SOL    HW220532   4.081   0.334   5.227
 6730SOL     OW20533   3.955   1.713   4.207
 6730SOL    HW120534   3.989   1.790   4.261
 6730SOL    HW220535   3.999   1.713   4.117
 6731SOL     OW20536   4.851   1.341   5.414
 6731SOL    HW120537   4.898   1.341   5.502
 6731SOL    HW220538   4.803   1.254   5.403
 6732SOL     OW20539   3.954   1.434   4.262
 6732SOL    HW120540   3.928   1.530   4.262
 6732SOL    HW220541   3.883   1.380   4.307
 6733SOL     OW20542   3.964   1.091   4.610
 6733SOL    HW120543   3.978   1.007   4.662
 6733SOL    HW220544   3.909   1.155   4.665
 6734SOL     OW20545   4.344   1.786   5.163
 6734SOL    HW120546   4.252   1.769   5.198
 6734SOL    HW220547   4.372   1.878   5.189
 6735SOL     OW20548   4.330   0.964   3.847
 6735SOL    HW120549   4.337   1.048   3.793
 6735SOL    HW220550   4.376   0.977   3.935
 6736SOL     OW20551   5.318   0.114   5.204
 6736SOL    HW120552   5.300   0.181   5.132
 6736SOL    HW220553   5.315   0.160   5.293
 6737SOL     OW20554   3.846   0.643   4.287
 6737SOL    HW120555   3.801   0.555   4.304
 6737SOL    HW220556   3.845   0.697   4.371
 6738SOL     OW20557   5.566   1.767   4.083
 6738SOL    HW120558   5.620   1.738   4.163
 6738SOL    HW220559   5.596   1.857   4.054
 6739SOL     OW20560   3.751   1.596   3.841
 6739SOL    HW120561   3.732   1.500   3.862
 6739SOL    HW220562   3.718   1.654   3.916
 6740SOL     OW20563   5.413   0.922   4.336
 6740SOL    HW120564   5.508   0.893   4.344
 6740SOL    HW220565   5.405   0.987   4.261
 6741SOL     OW20566   5.365   1.108   4.156
 6741SOL    HW120567   5.451   1.110   4.104
 6741SOL    HW220568   5.379   1.155   4.244
 6742SOL     OW20569   3.837   0.737   5.321
 6742SOL    HW120570   3.925   0.724   5.366
 6742SOL    HW220571   3.824   0.834   5.299
 6743SOL     OW20572   4.337   1.365   4.450
 6743SOL    HW120573   4.288   1.278   4.459
 6743SOL    HW220574   4.314   1.408   4.363
 6744SOL     OW20575   5.017   1.228   5.147
 6744SOL    HW120576   5.054   1.155   5.089
 6744SOL    HW220577   5.069   1.233   5.232
 6745SOL     OW20578   4.533   0.004   4.226
 6745SOL    HW120579   4.573   0.095   4.217
 6745SOL    HW220580   4.433   0.012   4.232
 6746SOL     OW20581   3.921   0.976   4.988
 6746SOL    HW120582   4.010   0.931   4.974
 6746SOL    HW220583   3.848   0.911   4.969
 6747SOL     OW20584   5.249   0.999   3.914
 6747SOL    HW120585   5.186   0.923   3.927
 6747SOL    HW220586   5.297   1.017   4.000
 6748SOL     OW20587   4.911   1.792   5.340
 6748SOL    HW120588   4.935   1.852   5.264
 6748SOL    HW220589   4.918   1.697   5.310
 6749SOL     OW20590   4.041   0.251   5.525
 6749SOL    HW120591   4.112   0.322   5.531
 6749SOL    HW220592   3.953   0.290   5.553
 6750SOL     OW20593   5.190   1.417   4.677
 6750SOL    HW120594   5.131   1.423   4.757
 6750SOL    HW220595   5.175   1.329   4.631
 6751SOL     OW20596   5.391   1.714   4.296
 6751SOL    HW120597   5.350   1.691   4.208
 6751SOL    HW220598   5.373   1.640   4.361
 6752SOL     OW20599   4.322   0.729   3.994
 6752SOL    HW120600   4.346   0.798   3.926
 6752SOL    HW220601   4.244   0.762   4.048
 6753SOL     OW20602   5.005   0.345   4.668
 6753SOL    HW120603   4.919   0.295   4.655
 6753SOL    HW220604   5.067   0.291   4.724
 6754SOL     OW20605   5.300   1.662   4.031
 6754SOL    HW120606   5.389   1.708   4.034
 6754SOL    HW220607   5.279   1.638   3.936
 6755SOL     OW20608   4.531   0.605   5.189
 6755SOL    HW120609   4.484   0.602   5.278
 6755SOL    HW220610   4.480   0.550   5.123
 6756SOL     OW20611   5.118   0.469   5.398
 6756SOL    HW120612   5.098   0.512   5.486
 6756SOL    HW220613   5.196   0.407   5.407
 6757SOL     OW20614   4.697   0.890   5.296
 6757SOL    HW120615   4.743   0.806   5.267
 6757SOL    HW220616   4.641   0.924   5.221
 6758SOL     OW20617   4.715   0.410   4.966
 6758SOL    HW120618   4.638   0.444   5.020
 6758SOL    HW220619   4.681   0.359   4.887
 6759SOL     OW20620   4.765   0.701   4.153
 6759SOL    HW120621   4.791   0.697   4.249
 6759SOL    HW220622   4.680   0.650   4.139
 6760SOL     OW20623   3.800   0.811   4.513
 6760SOL    HW120624   3.899   0.799   4.522
 6760SOL    HW220625   3.776   0.906   4.534
 6761SOL     OW20626   3.854   1.821   5.295
 6761SOL    HW120627   3.844   1.806   5.394
 6761SOL    HW220628   3.768   1.857   5.259
 6762SOL     OW20629   4.589   0.348   3.919
 6762SOL    HW120630   4.648   0.411   3.870
 6762SOL    HW220631   4.608   0.254   3.890
 6763SOL     OW20632   5.443   0.585   5.555
 6763SOL    HW120633   5.417   0.674   5.519
 6763SOL    HW220634   5.441   0.517   5.482
 6764SOL     OW20635   5.086   1.144   4.269
 6764SOL    HW120636   5.169   1.115   4.221
 6764SOL    HW220637   5.037   1.211   4.213
 6765SOL     OW20638   4.274   0.196   4.609
 6765SOL    HW120639   4.269   0.191   4.709
 6765SOL    HW220640   4.276   0.292   4.580
 6766SOL     OW20641   4.732   1.456   4.201
 6766SOL    HW120642   4.686   1.528   4.149
 6766SOL    HW220643   4.728   1.476   4.299
 6767SOL     OW20644   4.075   1.801   4.577
 6767SOL    HW120645   4.125   1.715   4.583
 6767SOL    HW220646   4.140   1.878   4.574
 6768SOL     OW20647   5.519   1.066   4.597
 6768SOL    HW120648   5.457   1.051   4.521
 6768SOL    HW220649   5.467   1.077   4.682
 6769SOL     OW20650   4.951   1.550   5.230
 6769SOL    HW120651   4.957   1.473   5.294
 6769SOL    HW220652   4.899   1.524   5.150
 6770SOL     OW20653   4.045   0.943   3.966
 6770SOL    HW120654   4.127   0.982   3.924
 6770SOL    HW220655   4.018   0.861   3.917
 6771SOL     OW20656   5.182   0.735   4.452
 6771SOL    HW120657   5.177   0.670   4.527
 6771SOL    HW220658   5.262   0.794   4.465
 6772SOL     OW20659   4.185   1.266   5.451
 6772SOL    HW120660   4.135   1.267   5.365
 6772SOL    HW220661   4.122   1.248   5.527
 6773SOL     OW20662   4.835   1.776   3.961
 6773SOL    HW120663   4.775   1.714   4.011
 6773SOL    HW220664   4.866   1.732   3.876
 6774SOL     OW20665   3.926   0.285   5.222
 6774SOL    HW120666   3.846   0.345   5.209
 6774SOL    HW220667   3.916   0.236   5.308
 6775SOL     OW20668   5.356   1.377   3.805
 6775SOL    HW120669   5.324   1.471   3.795
 6775SOL    HW220670   5.280   1.314   3.793
 6776SOL     OW20671   4.188   1.743   4.047
 6776SOL    HW120672   4.221   1.782   4.133
 6776SOL    HW220673   4.264   1.736   3.982
 6777SOL     OW20674   5.124   0.107   4.150
 6777SOL    HW120675   5.100   0.070   4.060
 6777SOL    HW220676   5.223   0.123   4.154
 6778SOL     OW20677   3.973   1.785   4.965
 6778SOL    HW120678   4.030   1.720   5.015
 6778SOL    HW220679   3.957   1.752   4.872
 6779SOL     OW20680   4.664   1.698   4.628
 6779SOL    HW120681   4.744   1.641   4.649
 6779SOL    HW220682   4.615   1.658   4.551
 6780SOL     OW20683   4.106   0.700   4.204
 6780SOL    HW120684   4.151   0.610   4.201
 6780SOL    HW220685   4.012   0.689   4.237
 6781SOL     OW20686   4.338   0.122   3.841
 6781SOL    HW120687   4.436   0.100   3.848
 6781SOL    HW220688   4.307   0.105   3.748
 6782SOL     OW20689   4.505   0.264   5.473
 6782SOL    HW120690   4.572   0.203   5.516
 6782SOL    HW220691   4.432   0.283   5.538
 6783SOL     OW20692   4.612   1.514   4.919
 6783SOL    HW120693   4.589   1.489   4.825
 6783SOL    HW220694   4.673   1.445   4.958
 6784SOL     OW20695   5.075   0.590   5.157
 6784SOL    HW120696   5.103   0.547   5.242
 6784SOL    HW220697   5.100   0.686   5.158
 6785SOL     OW20698   4.527   1.402   4.648
 6785SOL    HW120699   4.617   1.416   4.606
 6785SOL    HW220700   4.456   1.404   4.577
 6786SOL     OW20701   4.646   0.503   4.623
 6786SOL    HW120702   4.621   0.494   4.527
 6786SOL    HW220703   4.694   0.421   4.654
 6787SOL     OW20704   4.263   0.064   4.236
 6787SOL    HW120705   4.182   0.065   4.294
 6787SOL    HW220706   4.266   0.147   4.181
 6788SOL     OW20707   5.158   1.188   3.765
 6788SOL    HW120708   5.190   1.112   3.822
 6788SOL    HW220709   5.066   1.215   3.795
 6789SOL     OW20710   4.021   0.035   3.895
 6789SOL    HW120711   4.070   0.119   3.874
 6789SOL    HW220712   4.083  -0.030   3.940
 6790SOL     OW20713   4.659   0.236   4.204
 6790SOL    HW120714   4.611   0.277   4.126
 6790SOL    HW220715   4.758   0.234   4.185
 6791SOL     OW20716   4.800   0.683   5.188
 6791SOL    HW120717   4.720   0.622   5.191
 6791SOL    HW220718   4.881   0.630   5.164
 6792SOL     OW20719   4.951   1.570   4.517
 6792SOL    HW120720   4.972   1.644   4.452
 6792SOL    HW220721   5.019   1.570   4.590
 6793SOL     OW20722   4.183   1.152   4.465
 6793SOL    HW120723   4.112   1.125   4.530
 6793SOL    HW220724   4.157   1.124   4.372
 6794SOL     OW20725   4.995   1.797   4.315
 6794SOL    HW120726   5.039   1.861   4.251
 6794SOL    HW220727   4.945   1.849   4.385
 6795SOL     OW20728   4.756   0.549   3.740
 6795SOL    HW120729   4.715   0.631   3.701
 6795SOL    HW220730   4.820   0.575   3.813
 6796SOL     OW20731   3.802   0.556   5.110
 6796SOL    HW120732   3.894   0.555   5.069
 6796SOL    HW220733   3.796   0.630   5.177
 6797SOL     OW20734   4.285   0.222   4.871
 6797SOL    HW120735   4.323   0.138   4.908
 6797SOL    HW220736   4.197   0.241   4.915
 6798SOL     OW20737   4.590   0.454   4.366
 6798SOL    HW120738   4.558   0.526   4.304
 6798SOL    HW220739   4.614   0.373   4.313
 6799SOL     OW20740   4.741   0.039   4.477
 6799SOL    HW120741   4.669   0.044   4.408
 6799SOL    HW220742   4.717  -0.030   4.546
 6800SOL     OW20743   5.153   1.173   4.591
 6800SOL    HW120744   5.098   1.089   4.584
 6800SOL    HW220745   5.179   1.202   4.499
 6801SOL     OW20746   5.190   0.590   4.716
 6801SOL    HW120747   5.160   0.495   4.723
 6801SOL    HW220748   5.263   0.606   4.782
 6802SOL     OW20749   5.581   0.833   4.101
 6802SOL    HW120750   5.623   0.769   4.165
 6802SOL    HW220751   5.543   0.782   4.023
 6803SOL     OW20752   4.212   1.385   3.898
 6803SOL    HW120753   4.125   1.370   3.945
 6803SOL    HW220754   4.195   1.411   3.803
 6804SOL     OW20755   5.388   1.280   4.381
 6804SOL    HW120756   5.487   1.288   4.395
 6804SOL    HW220757   5.343   1.364   4.412
 6805SOL     OW20758   5.114   0.575   3.802
 6805SOL    HW120759   5.060   0.554   3.883
 6805SOL    HW220760   5.205   0.534   3.811
 6806SOL     OW20761   4.251   0.256   4.052
 6806SOL    HW120762   4.278   0.197   3.977
 6806SOL    HW220763   4.251   0.351   4.021
 6807SOL     OW20764   5.478   1.223   5.312
 6807SOL    HW120765   5.569   1.184   5.299
 6807SOL    HW220766   5.486   1.319   5.336
 6808SOL     OW20767   4.788   1.347   5.064
 6808SOL    HW120768   4.708   1.324   5.119
 6808SOL    HW220769   4.871   1.321   5.113
 6809SOL     OW20770   5.316   1.629   5.349
 6809SOL    HW120771   5.343   1.663   5.259
 6809SOL    HW220772   5.395   1.591   5.395
 6810SOL     OW20773   4.835   1.195   4.824
 6810SOL    HW120774   4.795   1.239   4.905
 6810SOL    HW220775   4.794   1.232   4.741
 6811SOL     OW20776   5.362   1.099   4.803
 6811SOL    HW120777   5.367   1.180   4.862
 6811SOL    HW220778   5.276   1.101   4.752
 6812SOL     OW20779   4.639   0.089   5.126
 6812SOL    HW120780   4.664   0.069   5.031
 6812SOL    HW220781   4.711   0.145   5.168
 6813SOL     OW20782   4.704   1.116   5.443
 6813SOL    HW120783   4.605   1.122   5.453
 6813SOL    HW220784   4.727   1.036   5.387
 6814SOL     OW20785   4.429   1.050   4.092
 6814SOL    HW120786   4.415   1.057   4.191
 6814SOL    HW220787   4.513   0.999   4.074
 6815SOL     OW20788   4.134   0.813   4.975
 6815SOL    HW120789   4.220   0.825   5.025
 6815SOL    HW220790   4.092   0.726   5.002
 6816SOL     OW20791   4.998   0.386   4.986
 6816SOL    HW120792   5.019   0.460   5.050
 6816SOL    HW220793   4.909   0.403   4.943
 6817SOL     OW20794   3.788   1.564   5.055
 6817SOL    HW120795   3.742   1.646   5.021
 6817SOL    HW220796   3.886   1.583   5.064
 6818SOL     OW20797   4.091   1.100   4.225
 6818SOL    HW120798   4.084   1.183   4.169
 6818SOL    HW220799   4.095   1.020   4.165
 6819SOL     OW20800   4.290   0.537   4.589
 6819SOL    HW120801   4.302   0.603   4.515
 6819SOL    HW220802   4.336   0.571   4.672
 6820SOL     OW20803   4.976   1.348   4.112
 6820SOL    HW120804   5.026   1.425   4.152
 6820SOL    HW220805   4.881   1.350   4.144
 6821SOL     OW20806   4.996   1.445   4.866
 6821SOL    HW120807   5.043   1.458   4.953
 6821SOL    HW220808   4.930   1.371   4.875
 6822SOL     OW20809   5.306   0.639   4.196
 6822SOL    HW120810   5.275   0.700   4.269
 6822SOL    HW220811   5.356   0.691   4.127
 6823SOL     OW20812   4.078   1.510   5.053
 6823SOL    HW120813   4.057   1.466   4.966
 6823SOL    HW220814   4.175   1.536   5.056
 6824SOL     OW20815   4.126   0.751   5.322
 6824SOL    HW120816   4.194   0.806   5.275
 6824SOL    HW220817   4.166   0.663   5.349
 6825SOL     OW20818   5.311   0.779   5.394
 6825SOL    HW120819   5.219   0.817   5.389
 6825SOL    HW220820   5.371   0.826   5.329
 6826SOL     OW20821   4.737   0.105   5.494
 6826SOL    HW120822   4.743   0.190   5.442
 6826SOL    HW220823   4.769   0.029   5.437
 6827SOL     OW20824   4.228   0.050   5.464
 6827SOL    HW120825   4.186  -0.007   5.394
 6827SOL    HW220826   4.162   0.119   5.496
 6828SOL     OW20827   4.297   0.870   4.753
 6828SOL    HW120828   4.341   0.959   4.744
 6828SOL    HW220829   4.234   0.870   4.830
 6829SOL     OW20830   5.084   0.862   4.769
 6829SOL    HW120831   5.009   0.862   4.703
 6829SOL    HW220832   5.121   0.770   4.778
 6830SOL     OW20833   4.933   0.525   3.999
 6830SOL    HW120834   4.946   0.441   4.053
 6830SOL    HW220835   4.904   0.599   4.059
 6831SOL     OW20836   4.031   0.213   4.955
 6831SOL    HW120837   4.008   0.250   5.045
 6831SOL    HW220838   4.001   0.118   4.949
 6832SOL     OW20839   3.761   1.310   5.006
 6832SOL    HW120840   3.814   1.261   5.074
 6832SOL    HW220841   3.783   1.408   5.011
 6833SOL     OW20842   4.456   0.634   4.788
 6833SOL    HW120843   4.515   0.608   4.712
 6833SOL    HW220844   4.428   0.730   4.777
 6834SOL     OW20845   5.452   0.935   5.578
 6834SOL    HW120846   5.406   0.928   5.489
 6834SOL    HW220847   5.390   0.979   5.644
 6835SOL     OW20848   4.031   0.063   4.342
 6835SOL    HW120849   4.020   0.157   4.375
 6835SOL    HW220850   4.026   0.000   4.419
 6836SOL     OW20851   5.346   0.367   4.098
 6836SOL    HW120852   5.348   0.291   4.162
 6836SOL    HW220853   5.298   0.444   4.138
 6837SOL     OW20854   4.747   0.766   4.690
 6837SOL    HW120855   4.762   0.787   4.786
 6837SOL    HW220856   4.717   0.671   4.681
 6838SOL     OW20857   4.704   1.573   5.424
 6838SOL    HW120858   4.684   1.617   5.336
 6838SOL    HW220859   4.743   1.482   5.408
 6839SOL     OW20860   5.583   1.518   5.329
 6839SOL    HW120861   5.597   1.545   5.234
 6839SOL    HW220862   5.666   1.540   5.382
 6840SOL     OW20863   4.074   0.898   5.528
 6840SOL    HW120864   4.150   0.942   5.576
 6840SOL    HW220865   4.109   0.851   5.446
 6841SOL     OW20866   5.027   0.838   3.766
 6841SOL    HW120867   5.061   0.745   3.781
 6841SOL    HW220868   5.045   0.865   3.671
 6842SOL     OW20869   4.792   1.333   4.573
 6842SOL    HW120870   4.799   1.249   4.518
 6842SOL    HW220871   4.854   1.402   4.537
 6843SOL     OW20872   4.043   0.810   4.673
 6843SOL    HW120873   4.136   0.846   4.678
 6843SOL    HW220874   4.037   0.725   4.725
 6844SOL     OW20875   4.063   0.509   4.730
 6844SOL    HW120876   4.011   0.426   4.713
 6844SOL    HW220877   4.140   0.514   4.666
 6845SOL     OW20878   4.862   0.380   5.402
 6845SOL    HW120879   4.817   0.443   5.466
 6845SOL    HW220880   4.955   0.411   5.385
 6846SOL     OW20881   4.884   0.207   5.201
 6846SOL    HW120882   4.884   0.271   5.278
 6846SOL    HW220883   4.912   0.255   5.118
 6847SOL     OW20884   3.732   1.326   3.924
 6847SOL    HW120885   3.639   1.347   3.893
 6847SOL    HW220886   3.742   1.227   3.937
 6848SOL     OW20887   3.812   1.801   4.651
 6848SOL    HW120888   3.770   1.715   4.624
 6848SOL    HW220889   3.906   1.804   4.617
 6849SOL     OW20890   4.228   1.568   4.634
 6849SOL    HW120891   4.294   1.642   4.643
 6849SOL    HW220892   4.272   1.489   4.592
 6850SOL     OW20893   4.726   0.796   4.962
 6850SOL    HW120894   4.767   0.764   5.048
 6850SOL    HW220895   4.630   0.769   4.959
 6851SOL     OW20896   3.764   0.544   4.838
 6851SOL    HW120897   3.849   0.511   4.797
 6851SOL    HW220898   3.777   0.559   4.936
 6852SOL     OW20899   3.913   0.520   5.446
 6852SOL    HW120900   3.972   0.480   5.376
 6852SOL    HW220901   3.855   0.591   5.405
 6853SOL     OW20902   5.093   0.950   5.384
 6853SOL    HW120903   5.132   1.039   5.404
 6853SOL    HW220904   5.103   0.930   5.287
 6854SOL     OW20905   4.539   0.572   4.049
 6854SOL    HW120906   4.546   0.483   4.003
 6854SOL    HW220907   4.445   0.606   4.041
 6855SOL     OW20908   5.381   0.604   4.930
 6855SOL    HW120909   5.343   0.535   4.992
 6855SOL    HW220910   5.463   0.568   4.886
 6856SOL     OW20911   3.976   1.564   5.468
 6856SOL    HW120912   3.946   1.621   5.544
 6856SOL    HW220913   3.969   1.467   5.494
 6857SOL     OW20914   4.395   0.464   4.993
 6857SOL    HW120915   4.361   0.375   4.963
 6857SOL    HW220916   4.421   0.518   4.913
 6858SOL     OW20917   4.654   1.678   5.189
 6858SOL    HW120918   4.630   1.660   5.094
 6858SOL    HW220919   4.684   1.772   5.199
 6859SOL     OW20920   4.197   0.500   3.915
 6859SOL    HW120921   4.258   0.580   3.919
 6859SOL    HW220922   4.102   0.531   3.922
 6860SOL     OW20923   3.883   1.137   5.190
 6860SOL    HW120924   3.905   1.076   5.266
 6860SOL    HW220925   3.893   1.088   5.104
 6861SOL     OW20926   5.071   1.059   4.958
 6861SOL    HW120927   5.095   0.996   4.884
 6861SOL    HW220928   4.981   1.099   4.940
 6862SOL     OW20929   5.026   0.855   4.033
 6862SOL    HW120930   4.940   0.824   4.075
 6862SOL    HW220931   5.022   0.841   3.934
 6863SOL     OW20932   5.483   1.747   4.878
 6863SOL    HW120933   5.544   1.777   4.805
 6863SOL    HW220934   5.445   1.658   4.856
 6864SOL     OW20935   4.976   1.731   4.852
 6864SOL    HW120936   5.060   1.736   4.798
 6864SOL    HW220937   4.953   1.635   4.870
 6865SOL     OW20938   3.807   1.258   4.746
 6865SOL    HW120939   3.802   1.257   4.846
 6865SOL    HW220940   3.724   1.217   4.708
 6866SOL     OW20941   4.412   1.662   5.440
 6866SOL    HW120942   4.356   1.743   5.449
 6866SOL    HW220943   4.464   1.666   5.354
 6867SOL     OW20944   5.450   0.135   4.247
 6867SOL    HW120945   5.523   0.118   4.180
 6867SOL    HW220946   5.419   0.048   4.285
 6868SOL     OW20947   5.112   1.573   4.201
 6868SOL    HW120948   5.179   1.585   4.127
 6868SOL    HW220949   5.072   1.662   4.224
 6869SOL     OW20950   3.854   1.794   5.575
 6869SOL    HW120951   3.813   1.720   5.628
 6869SOL    HW220952   3.918   1.845   5.633
 6870SOL     OW20953   5.004   0.927   4.396
 6870SOL    HW120954   5.064   0.846   4.398
 6870SOL    HW220955   5.044   0.996   4.336
 6871SOL     OW20956   4.554   1.273   5.146
 6871SOL    HW120957   4.549   1.306   5.241
 6871SOL    HW220958   4.468   1.292   5.100
 6872SOL     OW20959   4.396   1.616   3.878
 6872SOL    HW120960   4.405   1.626   3.779
 6872SOL    HW220961   4.356   1.527   3.899
 6873SOL     OW20962   5.374   1.720   5.118
 6873SOL    HW120963   5.427   1.730   5.034
 6873SOL    HW220964   5.347   1.810   5.152
 6874SOL     OW20965   3.987   0.326   4.444
 6874SOL    HW120966   3.908   0.377   4.410
 6874SOL    HW220967   3.978   0.311   4.542
 6875SOL     OW20968   4.918   1.612   3.755
 6875SOL    HW120969   4.924   1.519   3.792
 6875SOL    HW220970   4.859   1.612   3.675
 6876SOL     OW20971   4.546   1.002   5.096
 6876SOL    HW120972   4.586   1.001   5.004
 6876SOL    HW220973   4.556   1.094   5.136
 6877SOL     OW20974   4.640   0.910   4.015
 6877SOL    HW120975   4.703   0.948   3.947
 6877SOL    HW220976   4.680   0.827   4.054
 6878SOL     OW20977   5.228   1.607   3.768
 6878SOL    HW120978   5.136   1.644   3.775
 6878SOL    HW220979   5.266   1.627   3.678
 6879SOL     OW20980   4.096   1.288   5.214
 6879SOL    HW120981   4.083   1.381   5.180
 6879SOL    HW220982   4.012   1.236   5.201
 6880SOL     OW20983   5.338   1.292   5.013
 6880SOL    HW120984   5.398   1.295   5.093
 6880SOL    HW220985   5.263   1.356   5.026
 6881SOL     OW20986   4.763   1.098   4.420
 6881SOL    HW120987   4.693   1.051   4.474
 6881SOL    HW220988   4.822   1.030   4.377
 6882SOL     OW20989   4.738   0.236   4.695
 6882SOL    HW120990   4.730   0.200   4.602
 6882SOL    HW220991   4.736   0.160   4.760
 6883SOL     OW20992   4.314   1.487   4.215
 6883SOL    HW120993   4.356   1.429   4.145
 6883SOL    HW220994   4.270   1.566   4.171
 6884SOL     OW20995   5.433   0.385   5.105
 6884SOL    HW120996   5.506   0.454   5.109
 6884SOL    HW220997   5.461   0.310   5.046
 6885SOL     OW20998   3.979   1.348   4.014
 6885SOL    HW120999   3.883   1.349   3.987
 6885SOL    HW221000   3.991   1.401   4.098
 6886SOL     OW21001   3.829   1.013   5.450
 6886SOL    HW121002   3.752   0.980   5.504
 6886SOL    HW221003   3.914   0.983   5.492
 6887SOL     OW21004   4.396   0.203   5.213
 6887SOL    HW121005   4.486   0.187   5.173
 6887SOL    HW221006   4.404   0.208   5.312
 6888SOL     OW21007   3.799   0.345   3.757
 6888SOL    HW121008   3.707   0.317   3.728
 6888SOL    HW221009   3.830   0.422   3.701
 6889SOL     OW21010   5.164   0.856   5.122
 6889SOL    HW121011   5.107   0.908   5.059
 6889SOL    HW221012   5.260   0.868   5.098
 6890SOL     OW21013   3.796   0.166   4.042
 6890SOL    HW121014   3.779   0.249   3.988
 6890SOL    HW221015   3.886   0.129   4.020
 6891SOL     OW21016   4.907   1.335   3.843
 6891SOL    HW121017   4.808   1.324   3.845
 6891SOL    HW221018   4.941   1.350   3.936
 6892SOL     OW21019   4.337   0.842   5.155
 6892SOL    HW121020   4.393   0.923   5.138
 6892SOL    HW221021   4.396   0.762   5.158
 6893SOL     OW21022   5.217   1.767   4.683
 6893SOL    HW121023   5.250   1.831   4.614
 6893SOL    HW221024   5.283   1.761   4.758
 6894SOL     OW21025   4.440   0.565   5.432
 6894SOL    HW121026   4.459   0.630   5.506
 6894SOL    HW221027   4.500   0.485   5.441
 6895SOL     OW21028   5.174   1.220   5.357
 6895SOL    HW121029   5.165   1.210   5.456
 6895SOL    HW221030   5.270   1.213   5.331
 6896SOL     OW21031   4.114   1.741   5.284
 6896SOL    HW121032   4.023   1.782   5.282
 6896SOL    HW221033   4.107   1.647   5.316
 6897SOL     OW21034   5.398   0.883   4.978
 6897SOL    HW121035   5.371   0.794   4.941
 6897SOL    HW221036   5.399   0.951   4.905
 6898SOL     OW21037   4.949   0.325   4.173
 6898SOL    HW121038   5.014   0.251   4.162
 6898SOL    HW221039   4.969   0.375   4.257
 6899SOL     OW21040   4.318   0.745   4.376
 6899SOL    HW121041   4.368   0.830   4.357
 6899SOL    HW221042   4.230   0.747   4.328
 6900SOL     OW21043   5.454   0.934   5.241
 6900SOL    HW121044   5.492   1.025   5.256
 6900SOL    HW221045   5.446   0.917   5.142
 6901SOL     OW21046   4.583   1.374   3.740
 6901SOL    HW121047   4.537   1.389   3.828
 6901SOL    HW221048   4.627   1.459   3.710
 6902SOL     OW21049   4.385   1.790   4.677
 6902SOL    HW121050   4.339   1.878   4.664
 6902SOL    HW221051   4.484   1.802   4.670
 6903SOL     OW21052   4.583   0.956   4.585
 6903SOL    HW121053   4.637   0.887   4.633
 6903SOL    HW221054   4.551   1.025   4.651
 6904SOL     OW21055   4.807   0.984   3.811
 6904SOL    HW121056   4.784   1.037   3.729
 6904SOL    HW221057   4.888   0.928   3.792
 6905SOL     OW21058   5.585   1.569   4.575
 6905SOL    HW121059   5.514   1.557   4.505
 6905SOL    HW221060   5.586   1.490   4.635
 6906SOL     OW21061   3.945   1.314   5.568
 6906SOL    HW121062   3.880   1.241   5.547
 6906SOL    HW221063   3.949   1.328   5.666
 6907SOL     OW21064   3.803   1.240   4.377
 6907SOL    HW121065   3.802   1.193   4.465
 6907SOL    HW221066   3.885   1.212   4.326
 6908SOL     OW21067   4.396   1.391   5.348
 6908SOL    HW121068   4.318   1.341   5.386
 6908SOL    HW221069   4.393   1.486   5.379
 6909SOL     OW21070   4.152   0.424   4.244
 6909SOL    HW121071   4.182   0.352   4.182
 6909SOL    HW221072   4.113   0.384   4.327
 6910SOL     OW21073   5.429   1.487   4.828
 6910SOL    HW121074   5.336   1.462   4.801
 6910SOL    HW221075   5.455   1.437   4.910
 6911SOL     OW21076   4.041   0.547   5.004
 6911SOL    HW121077   4.079   0.488   5.076
 6911SOL    HW221078   4.081   0.521   4.916
 6912SOL     OW21079   4.536   1.586   4.411
 6912SOL    HW121080   4.568   1.596   4.317
 6912SOL    HW221081   4.457   1.524   4.413
 6913SOL     OW21082   5.148   0.214   4.836
 6913SOL    HW121083   5.200   0.149   4.891
 6913SOL    HW221084   5.099   0.277   4.897
 6914SOL     OW21085   4.725   0.034   4.878
 6914SOL    HW121086   4.662  -0.038   4.847
 6914SOL    HW221087   4.818  -0.002   4.878
 6915SOL     OW21088   4.494   1.330   4.025
 6915SOL    HW121089   4.448   1.243   4.042
 6915SOL    HW221090   4.585   1.327   4.066
 6916SOL     OW21091   4.342   1.567   5.008
 6916SOL    HW121092   4.337   1.649   5.065
 6916SOL    HW221093   4.431   1.564   4.963
 6917SOL     OW21094   5.076   0.052   3.892
 6917SOL    HW121095   5.111   0.011   3.808
 6917SOL    HW221096   4.986   0.014   3.912
 6918SOL     OW21097   5.024   0.453   4.415
 6918SOL    HW121098   4.965   0.533   4.419
 6918SOL    HW221099   5.039   0.418   4.508
 6919SOL     OW21100   5.317   0.221   4.606
 6919SOL    HW121101   5.233   0.220   4.660
 6919SOL    HW221102   5.319   0.304   4.550
 6920SOL     OW21103   3.763   1.077   4.024
 6920SOL    HW121104   3.862   1.066   4.015
 6920SOL    HW221105   3.723   0.991   4.056
 6921SOL     OW21106   4.599   1.646   4.061
 6921SOL    HW121107   4.522   1.611   4.007
 6921SOL    HW221108   4.567   1.717   4.123
 6922SOL     OW21109   3.954   0.628   5.699
 6922SOL    HW121110   3.861   0.626   5.736
 6922SOL    HW221111   3.955   0.589   5.607
 6923SOL     OW21112   3.949   0.275   6.582
 6923SOL    HW121113   3.984   0.258   6.674
 6923SOL    HW221114   3.861   0.230   6.570
 6924SOL     OW21115   3.743   0.368   6.233
 6924SOL    HW121116   3.661   0.411   6.272
 6924SOL    HW221117   3.715   0.295   6.170
 6925SOL     OW21118   5.279   1.511   6.289
 6925SOL    HW121119   5.222   1.495   6.370
 6925SOL    HW221120   5.220   1.521   6.209
 6926SOL     OW21121   4.859   0.703   6.303
 6926SOL    HW121122   4.916   0.781   6.278
 6926SOL    HW221123   4.799   0.729   6.379
 6927SOL     OW21124   5.479   0.607   5.817
 6927SOL    HW121125   5.467   0.594   5.718
 6927SOL    HW221126   5.449   0.526   5.866
 6928SOL     OW21127   4.409   1.012   6.251
 6928SOL    HW121128   4.478   0.996   6.321
 6928SOL    HW221129   4.336   1.069   6.289
 6929SOL     OW21130   3.955   1.713   6.069
 6929SOL    HW121131   3.989   1.790   6.123
 6929SOL    HW221132   3.999   1.713   5.979
 6930SOL     OW21133   3.954   1.434   6.124
 6930SOL    HW121134   3.928   1.530   6.124
 6930SOL    HW221135   3.883   1.380   6.169
 6931SOL     OW21136   4.330   0.964   5.709
 6931SOL    HW121137   4.337   1.048   5.655
 6931SOL    HW221138   4.376   0.977   5.797
 6932SOL     OW21139   3.846   0.643   6.149
 6932SOL    HW121140   3.801   0.555   6.166
 6932SOL    HW221141   3.845   0.697   6.233
 6933SOL     OW21142   5.566   1.767   5.945
 6933SOL    HW121143   5.620   1.738   6.025
 6933SOL    HW221144   5.596   1.857   5.916
 6934SOL     OW21145   3.751   1.596   5.703
 6934SOL    HW121146   3.732   1.500   5.724
 6934SOL    HW221147   3.718   1.654   5.778
 6935SOL     OW21148   5.413   0.922   6.198
 6935SOL    HW121149   5.508   0.893   6.206
 6935SOL    HW221150   5.405   0.987   6.123
 6936SOL     OW21151   5.365   1.108   6.018
 6936SOL    HW121152   5.451   1.110   5.966
 6936SOL    HW221153   5.379   1.155   6.106
 6937SOL     OW21154   4.337   1.365   6.312
 6937SOL    HW121155   4.288   1.278   6.321
 6937SOL    HW221156   4.314   1.408   6.225
 6938SOL     OW21157   4.533   0.004   6.088
 6938SOL    HW121158   4.573   0.095   6.079
 6938SOL    HW221159   4.433   0.012   6.094
 6939SOL     OW21160   5.249   0.999   5.776
 6939SOL    HW121161   5.186   0.923   5.789
 6939SOL    HW221162   5.297   1.017   5.862
 6940SOL     OW21163   5.391   1.714   6.158
 6940SOL    HW121164   5.350   1.691   6.070
 6940SOL    HW221165   5.373   1.640   6.223
 6941SOL     OW21166   4.322   0.729   5.856
 6941SOL    HW121167   4.346   0.798   5.788
 6941SOL    HW221168   4.244   0.762   5.910
 6942SOL     OW21169   5.005   0.345   6.530
 6942SOL    HW121170   4.919   0.295   6.517
 6942SOL    HW221171   5.067   0.291   6.586
 6943SOL     OW21172   5.300   1.662   5.893
 6943SOL    HW121173   5.389   1.708   5.896
 6943SOL    HW221174   5.279   1.638   5.798
 6944SOL     OW21175   4.715   0.410   6.828
 6944SOL    HW121176   4.638   0.444   6.882
 6944SOL    HW221177   4.681   0.359   6.749
 6945SOL     OW21178   4.765   0.701   6.015
 6945SOL    HW121179   4.791   0.697   6.111
 6945SOL    HW221180   4.680   0.650   6.001
 6946SOL     OW21181   4.589   0.348   5.781
 6946SOL    HW121182   4.648   0.411   5.732
 6946SOL    HW221183   4.608   0.254   5.752
 6947SOL     OW21184   5.086   1.144   6.131
 6947SOL    HW121185   5.169   1.115   6.083
 6947SOL    HW221186   5.037   1.211   6.075
 6948SOL     OW21187   4.732   1.456   6.063
 6948SOL    HW121188   4.686   1.528   6.011
 6948SOL    HW221189   4.728   1.476   6.161
 6949SOL     OW21190   4.075   1.801   6.439
 6949SOL    HW121191   4.125   1.715   6.445
 6949SOL    HW221192   4.140   1.878   6.436
 6950SOL     OW21193   4.045   0.943   5.828
 6950SOL    HW121194   4.127   0.982   5.786
 6950SOL    HW221195   4.018   0.861   5.779
 6951SOL     OW21196   5.182   0.735   6.314
 6951SOL    HW121197   5.177   0.670   6.389
 6951SOL    HW221198   5.262   0.794   6.327
 6952SOL     OW21199   4.835   1.776   5.823
 6952SOL    HW121200   4.775   1.714   5.873
 6952SOL    HW221201   4.866   1.732   5.738
 6953SOL     OW21202   5.356   1.377   5.667
 6953SOL    HW121203   5.324   1.471   5.657
 6953SOL    HW221204   5.280   1.314   5.655
 6954SOL     OW21205   4.188   1.743   5.909
 6954SOL    HW121206   4.221   1.782   5.995
 6954SOL    HW221207   4.264   1.736   5.844
 6955SOL     OW21208   5.124   0.107   6.012
 6955SOL    HW121209   5.100   0.070   5.922
 6955SOL    HW221210   5.223   0.123   6.016
 6956SOL     OW21211   4.664   1.698   6.490
 6956SOL    HW121212   4.744   1.641   6.511
 6956SOL    HW221213   4.615   1.658   6.413
 6957SOL     OW21214   4.106   0.700   6.066
 6957SOL    HW121215   4.151   0.610   6.063
 6957SOL    HW221216   4.012   0.689   6.099
 6958SOL     OW21217   4.338   0.122   5.703
 6958SOL    HW121218   4.436   0.100   5.710
 6958SOL    HW221219   4.307   0.105   5.610
 6959SOL     OW21220   4.527   1.402   6.510
 6959SOL    HW121221   4.617   1.416   6.468
 6959SOL    HW221222   4.456   1.404   6.439
 6960SOL     OW21223   4.263   0.064   6.098
 6960SOL    HW121224   4.182   0.065   6.156
 6960SOL    HW221225   4.266   0.147   6.043
 6961SOL     OW21226   5.158   1.188   5.627
 6961SOL    HW121227   5.190   1.112   5.684
 6961SOL    HW221228   5.066   1.215   5.657
 6962SOL     OW21229   4.021   0.035   5.757
 6962SOL    HW121230   4.070   0.119   5.736
 6962SOL    HW221231   4.083  -0.030   5.802
 6963SOL     OW21232   4.659   0.236   6.066
 6963SOL    HW121233   4.611   0.277   5.988
 6963SOL    HW221234   4.758   0.234   6.047
 6964SOL     OW21235   4.951   1.570   6.379
 6964SOL    HW121236   4.972   1.644   6.314
 6964SOL    HW221237   5.019   1.570   6.452
 6965SOL     OW21238   4.183   1.152   6.327
 6965SOL    HW121239   4.112   1.125   6.392
 6965SOL    HW221240   4.157   1.124   6.234
 6966SOL     OW21241   4.995   1.797   6.177
 6966SOL    HW121242   5.039   1.861   6.113
 6966SOL    HW221243   4.945   1.849   6.247
 6967SOL     OW21244   4.756   0.549   5.602
 6967SOL    HW121245   4.715   0.631   5.563
 6967SOL    HW221246   4.820   0.575   5.675
 6968SOL     OW21247   4.590   0.454   6.228
 6968SOL    HW121248   4.558   0.526   6.166
 6968SOL    HW221249   4.614   0.373   6.175
 6969SOL     OW21250   4.741   0.039   6.339
 6969SOL    HW121251   4.669   0.044   6.270
 6969SOL    HW221252   4.717  -0.030   6.408
 6970SOL     OW21253   5.153   1.173   6.453
 6970SOL    HW121254   5.098   1.089   6.446
 6970SOL    HW221255   5.179   1.202   6.361
 6971SOL     OW21256   5.190   0.590   6.578
 6971SOL    HW121257   5.160   0.495   6.585
 6971SOL    HW221258   5.263   0.606   6.644
 6972SOL     OW21259   5.581   0.833   5.963
 6972SOL    HW121260   5.623   0.769   6.027
 6972SOL    HW221261   5.543   0.782   5.885
 6973SOL     OW21262   4.212   1.385   5.760
 6973SOL    HW121263   4.125   1.370   5.807
 6973SOL    HW221264   4.195   1.411   5.665
 6974SOL     OW21265   5.388   1.280   6.243
 6974SOL    HW121266   5.487   1.288   6.257
 6974SOL    HW221267   5.343   1.364   6.274
 6975SOL     OW21268   5.114   0.575   5.664
 6975SOL    HW121269   5.060   0.554   5.745
 6975SOL    HW221270   5.205   0.534   5.673
 6976SOL     OW21271   4.251   0.256   5.914
 6976SOL    HW121272   4.278   0.197   5.839
 6976SOL    HW221273   4.251   0.351   5.883
 6977SOL     OW21274   5.362   1.099   6.665
 6977SOL    HW121275   5.367   1.180   6.724
 6977SOL    HW221276   5.276   1.101   6.614
 6978SOL     OW21277   4.429   1.050   5.954
 6978SOL    HW121278   4.415   1.057   6.053
 6978SOL    HW221279   4.513   0.999   5.936
 6979SOL     OW21280   4.091   1.100   6.087
 6979SOL    HW121281   4.084   1.183   6.031
 6979SOL    HW221282   4.095   1.020   6.027
 6980SOL     OW21283   4.290   0.537   6.451
 6980SOL    HW121284   4.302   0.603   6.377
 6980SOL    HW221285   4.336   0.571   6.534
 6981SOL     OW21286   4.976   1.348   5.974
 6981SOL    HW121287   5.026   1.425   6.014
 6981SOL    HW221288   4.881   1.350   6.006
 6982SOL     OW21289   5.306   0.639   6.058
 6982SOL    HW121290   5.275   0.700   6.131
 6982SOL    HW221291   5.356   0.691   5.989
 6983SOL     OW21292   4.933   0.525   5.861
 6983SOL    HW121293   4.946   0.441   5.915
 6983SOL    HW221294   4.904   0.599   5.921
 6984SOL     OW21295   4.031   0.063   6.204
 6984SOL    HW121296   4.020   0.157   6.237
 6984SOL    HW221297   4.026   0.000   6.281
 6985SOL     OW21298   5.346   0.367   5.960
 6985SOL    HW121299   5.348   0.291   6.024
 6985SOL    HW221300   5.298   0.444   6.000
 6986SOL     OW21301   5.027   0.838   5.628
 6986SOL    HW121302   5.061   0.745   5.643
 6986SOL    HW221303   5.045   0.865   5.533
 6987SOL     OW21304   4.792   1.333   6.435
 6987SOL    HW121305   4.799   1.249   6.380
 6987SOL    HW221306   4.854   1.402   6.399
 6988SOL     OW21307   3.732   1.326   5.786
 6988SOL    HW121308   3.639   1.347   5.755
 6988SOL    HW221309   3.742   1.227   5.799
 6989SOL     OW21310   3.812   1.801   6.513
 6989SOL    HW121311   3.770   1.715   6.486
 6989SOL    HW221312   3.906   1.804   6.479
 6990SOL     OW21313   4.539   0.572   5.911
 6990SOL    HW121314   4.546   0.483   5.865
 6990SOL    HW221315   4.445   0.606   5.903
 6991SOL     OW21316   4.197   0.500   5.777
 6991SOL    HW121317   4.258   0.580   5.781
 6991SOL    HW221318   4.102   0.531   5.784
 6992SOL     OW21319   5.026   0.855   5.895
 6992SOL    HW121320   4.940   0.824   5.937
 6992SOL    HW221321   5.022   0.841   5.796
 6993SOL     OW21322   5.450   0.135   6.109
 6993SOL    HW121323   5.523   0.118   6.042
 6993SOL    HW221324   5.419   0.048   6.147
 6994SOL     OW21325   5.112   1.573   6.063
 6994SOL    HW121326   5.179   1.585   5.989
 6994SOL    HW221327   5.072   1.662   6.086
 6995SOL     OW21328   5.004   0.927   6.258
 6995SOL    HW121329   5.064   0.846   6.260
 6995SOL    HW221330   5.044   0.996   6.198
 6996SOL     OW21331   4.396   1.616   5.740
 6996SOL    HW121332   4.405   1.626   5.641
 6996SOL    HW221333   4.356   1.527   5.761
 6997SOL     OW21334   3.987   0.326   6.306
 6997SOL    HW121335   3.908   0.377   6.272
 6997SOL    HW221336   3.978   0.311   6.404
 6998SOL     OW21337   4.918   1.612   5.617
 6998SOL    HW121338   4.924   1.519   5.654
 6998SOL    HW221339   4.859   1.612   5.537
 6999SOL     OW21340   4.640   0.910   5.877
 6999SOL    HW121341   4.703   0.948   5.809
 6999SOL    HW221342   4.680   0.827   5.916
 7000SOL     OW21343   5.228   1.607   5.630
 7000SOL    HW121344   5.136   1.644   5.637
 7000SOL    HW221345   5.266   1.627   5.540
 7001SOL     OW21346   4.763   1.098   6.282
 7001SOL    HW121347   4.693   1.051   6.336
 7001SOL    HW221348   4.822   1.030   6.239
 7002SOL     OW21349   4.314   1.487   6.077
 7002SOL    HW121350   4.356   1.429   6.007
 7002SOL    HW221351   4.270   1.566   6.033
 7003SOL     OW21352   3.979   1.348   5.876
 7003SOL    HW121353   3.883   1.349   5.849
 7003SOL    HW221354   3.991   1.401   5.960
 7004SOL     OW21355   3.799   0.345   5.619
 7004SOL    HW121356   3.707   0.317   5.590
 7004SOL    HW221357   3.830   0.422   5.563
 7005SOL     OW21358   3.796   0.166   5.904
 7005SOL    HW121359   3.779   0.249   5.850
 7005SOL    HW221360   3.886   0.129   5.882
 7006SOL     OW21361   4.907   1.335   5.705
 7006SOL    HW121362   4.808   1.324   5.707
 7006SOL    HW221363   4.941   1.350   5.798
 7007SOL     OW21364   5.217   1.767   6.545
 7007SOL    HW121365   5.250   1.831   6.476
 7007SOL    HW221366   5.283   1.761   6.620
 7008SOL     OW21367   4.949   0.325   6.035
 7008SOL    HW121368   5.014   0.251   6.024
 7008SOL    HW221369   4.969   0.375   6.119
 7009SOL     OW21370   4.318   0.745   6.238
 7009SOL    HW121371   4.368   0.830   6.219
 7009SOL    HW221372   4.230   0.747   6.190
 7010SOL     OW21373   4.583   1.374   5.602
 7010SOL    HW121374   4.537   1.389   5.690
 7010SOL    HW221375   4.627   1.459   5.572
 7011SOL     OW21376   4.385   1.790   6.539
 7011SOL    HW121377   4.339   1.878   6.526
 7011SOL    HW221378   4.484   1.802   6.532
 7012SOL     OW21379   4.583   0.956   6.447
 7012SOL    HW121380   4.637   0.887   6.495
 7012SOL    HW221381   4.551   1.025   6.513
 7013SOL     OW21382   4.807   0.984   5.673
 7013SOL    HW121383   4.784   1.037   5.591
 7013SOL    HW221384   4.888   0.928   5.654
 7014SOL     OW21385   3.803   1.240   6.239
 7014SOL    HW121386   3.802   1.193   6.327
 7014SOL    HW221387   3.885   1.212   6.188
 7015SOL     OW21388   4.152   0.424   6.106
 7015SOL    HW121389   4.182   0.352   6.044
 7015SOL    HW221390   4.113   0.384   6.189
 7016SOL     OW21391   4.536   1.586   6.273
 7016SOL    HW121392   4.568   1.596   6.179
 7016SOL    HW221393   4.457   1.524   6.275
 7017SOL     OW21394   4.494   1.330   5.887
 7017SOL    HW121395   4.448   1.243   5.904
 7017SOL    HW221396   4.585   1.327   5.928
 7018SOL     OW21397   5.076   0.052   5.754
 7018SOL    HW121398   5.111   0.011   5.670
 7018SOL    HW221399   4.986   0.014   5.774
 7019SOL     OW21400   5.024   0.453   6.277
 7019SOL    HW121401   4.965   0.533   6.281
 7019SOL    HW221402   5.039   0.418   6.370
 7020SOL     OW21403   5.317   0.221   6.468
 7020SOL    HW121404   5.233   0.220   6.522
 7020SOL    HW221405   5.319   0.304   6.412
 7021SOL     OW21406   3.763   1.077   5.886
 7021SOL    HW121407   3.862   1.066   5.877
 7021SOL    HW221408   3.723   0.991   5.918
 7022SOL     OW21409   4.599   1.646   5.923
 7022SOL    HW121410   4.522   1.611   5.869
 7022SOL    HW221411   4.567   1.717   5.985
 7023SOL     OW21412   3.949   2.137   0.996
 7023SOL    HW121413   3.984   2.120   1.088
 7023SOL    HW221414   3.861   2.092   0.984
 7024SOL     OW21415   3.743   2.230   0.647
 7024SOL    HW121416   3.661   2.273   0.686
 7024SOL    HW221417   3.715   2.157   0.584
 7025SOL     OW21418   4.293   3.137   1.165
 7025SOL    HW121419   4.200   3.130   1.128
 7025SOL    HW221420   4.304   3.226   1.209
 7026SOL     OW21421   5.279   3.373   0.703
 7026SOL    HW121422   5.222   3.357   0.784
 7026SOL    HW221423   5.220   3.383   0.623
 7027SOL     OW21424   4.859   2.565   0.717
 7027SOL    HW121425   4.916   2.643   0.692
 7027SOL    HW221426   4.799   2.591   0.793
 7028SOL     OW21427   4.492   3.006   1.023
 7028SOL    HW121428   4.414   3.023   1.083
 7028SOL    HW221429   4.526   3.093   0.987
 7029SOL     OW21430   4.574   2.660   1.823
 7029SOL    HW121431   4.570   2.736   1.888
 7029SOL    HW221432   4.596   2.696   1.732
 7030SOL     OW21433   4.409   2.874   0.665
 7030SOL    HW121434   4.478   2.858   0.735
 7030SOL    HW221435   4.336   2.931   0.703
 7031SOL     OW21436   4.410   3.023   1.803
 7031SOL    HW121437   4.470   3.102   1.817
 7031SOL    HW221438   4.324   3.054   1.762
 7032SOL     OW21439   4.059   3.297   1.061
 7032SOL    HW121440   3.981   3.266   1.008
 7032SOL    HW221441   4.117   3.355   1.004
 7033SOL     OW21442   5.184   3.367   1.339
 7033SOL    HW121443   5.208   3.461   1.365
 7033SOL    HW221444   5.168   3.313   1.421
 7034SOL     OW21445   4.162   2.254   1.499
 7034SOL    HW121446   4.244   2.198   1.508
 7034SOL    HW221447   4.081   2.196   1.503
 7035SOL     OW21448   5.327   2.309   0.737
 7035SOL    HW121449   5.253   2.355   0.687
 7035SOL    HW221450   5.378   2.377   0.790
 7036SOL     OW21451   3.955   3.575   0.483
 7036SOL    HW121452   3.989   3.652   0.537
 7036SOL    HW221453   3.999   3.575   0.393
 7037SOL     OW21454   4.851   3.203   1.690
 7037SOL    HW121455   4.898   3.203   1.778
 7037SOL    HW221456   4.803   3.116   1.679
 7038SOL     OW21457   3.954   3.296   0.538
 7038SOL    HW121458   3.928   3.392   0.538
 7038SOL    HW221459   3.883   3.242   0.583
 7039SOL     OW21460   3.964   2.953   0.886
 7039SOL    HW121461   3.978   2.869   0.938
 7039SOL    HW221462   3.909   3.017   0.941
 7040SOL     OW21463   4.344   3.648   1.439
 7040SOL    HW121464   4.252   3.631   1.474
 7040SOL    HW221465   4.372   3.740   1.465
 7041SOL     OW21466   5.318   1.976   1.480
 7041SOL    HW121467   5.300   2.043   1.408
 7041SOL    HW221468   5.315   2.022   1.569
 7042SOL     OW21469   3.846   2.505   0.563
 7042SOL    HW121470   3.801   2.417   0.580
 7042SOL    HW221471   3.845   2.559   0.647
 7043SOL     OW21472   5.413   2.784   0.612
 7043SOL    HW121473   5.508   2.755   0.620
 7043SOL    HW221474   5.405   2.849   0.537
 7044SOL     OW21475   5.365   2.970   0.432
 7044SOL    HW121476   5.451   2.972   0.380
 7044SOL    HW221477   5.379   3.017   0.520
 7045SOL     OW21478   3.837   2.599   1.597
 7045SOL    HW121479   3.925   2.586   1.642
 7045SOL    HW221480   3.824   2.696   1.575
 7046SOL     OW21481   4.337   3.227   0.726
 7046SOL    HW121482   4.288   3.140   0.735
 7046SOL    HW221483   4.314   3.270   0.639
 7047SOL     OW21484   5.017   3.090   1.423
 7047SOL    HW121485   5.054   3.017   1.365
 7047SOL    HW221486   5.069   3.095   1.508
 7048SOL     OW21487   4.533   1.866   0.502
 7048SOL    HW121488   4.573   1.957   0.493
 7048SOL    HW221489   4.433   1.874   0.508
 7049SOL     OW21490   3.921   2.838   1.264
 7049SOL    HW121491   4.010   2.793   1.250
 7049SOL    HW221492   3.848   2.773   1.245
 7050SOL     OW21493   4.911   3.654   1.616
 7050SOL    HW121494   4.935   3.714   1.540
 7050SOL    HW221495   4.918   3.559   1.586
 7051SOL     OW21496   4.041   2.113   1.801
 7051SOL    HW121497   4.112   2.184   1.807
 7051SOL    HW221498   3.953   2.152   1.829
 7052SOL     OW21499   5.190   3.279   0.953
 7052SOL    HW121500   5.131   3.285   1.033
 7052SOL    HW221501   5.175   3.191   0.907
 7053SOL     OW21502   5.391   3.576   0.572
 7053SOL    HW121503   5.350   3.553   0.484
 7053SOL    HW221504   5.373   3.502   0.637
 7054SOL     OW21505   5.005   2.207   0.944
 7054SOL    HW121506   4.919   2.157   0.931
 7054SOL    HW221507   5.067   2.153   1.000
 7055SOL     OW21508   5.300   3.524   0.307
 7055SOL    HW121509   5.389   3.570   0.310
 7055SOL    HW221510   5.279   3.500   0.212
 7056SOL     OW21511   4.531   2.467   1.465
 7056SOL    HW121512   4.484   2.464   1.554
 7056SOL    HW221513   4.480   2.412   1.399
 7057SOL     OW21514   5.118   2.331   1.674
 7057SOL    HW121515   5.098   2.374   1.762
 7057SOL    HW221516   5.196   2.269   1.683
 7058SOL     OW21517   4.697   2.752   1.572
 7058SOL    HW121518   4.743   2.668   1.543
 7058SOL    HW221519   4.641   2.786   1.497
 7059SOL     OW21520   4.715   2.272   1.242
 7059SOL    HW121521   4.638   2.306   1.296
 7059SOL    HW221522   4.681   2.221   1.163
 7060SOL     OW21523   4.765   2.563   0.429
 7060SOL    HW121524   4.791   2.559   0.525
 7060SOL    HW221525   4.680   2.512   0.415
 7061SOL     OW21526   3.800   2.673   0.789
 7061SOL    HW121527   3.899   2.661   0.798
 7061SOL    HW221528   3.776   2.768   0.810
 7062SOL     OW21529   3.854   3.683   1.571
 7062SOL    HW121530   3.844   3.668   1.670
 7062SOL    HW221531   3.768   3.719   1.535
 7063SOL     OW21532   5.443   2.447   1.831
 7063SOL    HW121533   5.417   2.536   1.795
 7063SOL    HW221534   5.441   2.379   1.758
 7064SOL     OW21535   5.086   3.006   0.545
 7064SOL    HW121536   5.169   2.977   0.497
 7064SOL    HW221537   5.037   3.073   0.489
 7065SOL     OW21538   4.274   2.058   0.885
 7065SOL    HW121539   4.269   2.053   0.985
 7065SOL    HW221540   4.276   2.154   0.856
 7066SOL     OW21541   4.732   3.318   0.477
 7066SOL    HW121542   4.686   3.390   0.425
 7066SOL    HW221543   4.728   3.338   0.575
 7067SOL     OW21544   4.075   3.663   0.853
 7067SOL    HW121545   4.125   3.577   0.859
 7067SOL    HW221546   4.140   3.740   0.850
 7068SOL     OW21547   5.519   2.928   0.873
 7068SOL    HW121548   5.457   2.913   0.797
 7068SOL    HW221549   5.467   2.939   0.958
 7069SOL     OW21550   4.951   3.412   1.506
 7069SOL    HW121551   4.957   3.335   1.570
 7069SOL    HW221552   4.899   3.386   1.426
 7070SOL     OW21553   5.182   2.597   0.728
 7070SOL    HW121554   5.177   2.532   0.803
 7070SOL    HW221555   5.262   2.656   0.741
 7071SOL     OW21556   4.185   3.128   1.727
 7071SOL    HW121557   4.135   3.129   1.641
 7071SOL    HW221558   4.122   3.110   1.803
 7072SOL     OW21559   3.926   2.147   1.498
 7072SOL    HW121560   3.846   2.207   1.485
 7072SOL    HW221561   3.916   2.098   1.584
 7073SOL     OW21562   4.188   3.605   0.323
 7073SOL    HW121563   4.221   3.644   0.409
 7073SOL    HW221564   4.264   3.598   0.258
 7074SOL     OW21565   3.973   3.647   1.241
 7074SOL    HW121566   4.030   3.582   1.291
 7074SOL    HW221567   3.957   3.614   1.148
 7075SOL     OW21568   4.664   3.560   0.904
 7075SOL    HW121569   4.744   3.503   0.925
 7075SOL    HW221570   4.615   3.520   0.827
 7076SOL     OW21571   4.106   2.562   0.480
 7076SOL    HW121572   4.151   2.472   0.477
 7076SOL    HW221573   4.012   2.551   0.513
 7077SOL     OW21574   5.271   2.084   1.729
 7077SOL    HW121575   5.266   2.121   1.821
 7077SOL    HW221576   5.199   2.015   1.717
 7078SOL     OW21577   4.505   2.126   1.749
 7078SOL    HW121578   4.572   2.065   1.792
 7078SOL    HW221579   4.432   2.145   1.814
 7079SOL     OW21580   4.612   3.376   1.195
 7079SOL    HW121581   4.589   3.351   1.101
 7079SOL    HW221582   4.673   3.307   1.234
 7080SOL     OW21583   5.075   2.452   1.433
 7080SOL    HW121584   5.103   2.409   1.518
 7080SOL    HW221585   5.100   2.548   1.434
 7081SOL     OW21586   4.527   3.264   0.924
 7081SOL    HW121587   4.617   3.278   0.882
 7081SOL    HW221588   4.456   3.266   0.853
 7082SOL     OW21589   4.646   2.365   0.899
 7082SOL    HW121590   4.621   2.356   0.803
 7082SOL    HW221591   4.694   2.283   0.930
 7083SOL     OW21592   4.263   1.926   0.512
 7083SOL    HW121593   4.182   1.927   0.570
 7083SOL    HW221594   4.266   2.009   0.457
 7084SOL     OW21595   4.659   2.098   0.480
 7084SOL    HW121596   4.611   2.139   0.402
 7084SOL    HW221597   4.758   2.096   0.461
 7085SOL     OW21598   4.800   2.545   1.464
 7085SOL    HW121599   4.720   2.484   1.467
 7085SOL    HW221600   4.881   2.492   1.440
 7086SOL     OW21601   4.951   3.432   0.793
 7086SOL    HW121602   4.972   3.506   0.728
 7086SOL    HW221603   5.019   3.432   0.866
 7087SOL     OW21604   4.183   3.014   0.741
 7087SOL    HW121605   4.112   2.987   0.806
 7087SOL    HW221606   4.157   2.986   0.648
 7088SOL     OW21607   4.995   3.659   0.591
 7088SOL    HW121608   5.039   3.723   0.527
 7088SOL    HW221609   4.945   3.711   0.661
 7089SOL     OW21610   3.802   2.418   1.386
 7089SOL    HW121611   3.894   2.417   1.345
 7089SOL    HW221612   3.796   2.492   1.453
 7090SOL     OW21613   4.285   2.084   1.147
 7090SOL    HW121614   4.323   2.000   1.184
 7090SOL    HW221615   4.197   2.103   1.191
 7091SOL     OW21616   4.590   2.316   0.642
 7091SOL    HW121617   4.558   2.388   0.580
 7091SOL    HW221618   4.614   2.235   0.589
 7092SOL     OW21619   4.741   1.901   0.753
 7092SOL    HW121620   4.669   1.906   0.684
 7092SOL    HW221621   4.717   1.832   0.822
 7093SOL     OW21622   5.153   3.035   0.867
 7093SOL    HW121623   5.098   2.951   0.860
 7093SOL    HW221624   5.179   3.064   0.775
 7094SOL     OW21625   5.190   2.452   0.992
 7094SOL    HW121626   5.160   2.357   0.999
 7094SOL    HW221627   5.263   2.468   1.058
 7095SOL     OW21628   5.581   2.695   0.377
 7095SOL    HW121629   5.623   2.631   0.441
 7095SOL    HW221630   5.543   2.644   0.299
 7096SOL     OW21631   5.388   3.142   0.657
 7096SOL    HW121632   5.487   3.150   0.671
 7096SOL    HW221633   5.343   3.226   0.688
 7097SOL     OW21634   4.251   2.118   0.328
 7097SOL    HW121635   4.278   2.059   0.253
 7097SOL    HW221636   4.251   2.213   0.297
 7098SOL     OW21637   5.478   3.085   1.588
 7098SOL    HW121638   5.569   3.046   1.575
 7098SOL    HW221639   5.486   3.181   1.612
 7099SOL     OW21640   4.788   3.209   1.340
 7099SOL    HW121641   4.708   3.186   1.395
 7099SOL    HW221642   4.871   3.183   1.389
 7100SOL     OW21643   5.316   3.491   1.625
 7100SOL    HW121644   5.343   3.525   1.535
 7100SOL    HW221645   5.395   3.453   1.671
 7101SOL     OW21646   4.835   3.057   1.100
 7101SOL    HW121647   4.795   3.101   1.181
 7101SOL    HW221648   4.794   3.094   1.017
 7102SOL     OW21649   5.362   2.961   1.079
 7102SOL    HW121650   5.367   3.042   1.138
 7102SOL    HW221651   5.276   2.963   1.028
 7103SOL     OW21652   4.639   1.951   1.402
 7103SOL    HW121653   4.664   1.931   1.307
 7103SOL    HW221654   4.711   2.007   1.444
 7104SOL     OW21655   4.704   2.978   1.719
 7104SOL    HW121656   4.605   2.984   1.729
 7104SOL    HW221657   4.727   2.898   1.663
 7105SOL     OW21658   4.429   2.912   0.368
 7105SOL    HW121659   4.415   2.919   0.467
 7105SOL    HW221660   4.513   2.861   0.350
 7106SOL     OW21661   4.134   2.675   1.251
 7106SOL    HW121662   4.220   2.687   1.301
 7106SOL    HW221663   4.092   2.588   1.278
 7107SOL     OW21664   4.998   2.248   1.262
 7107SOL    HW121665   5.019   2.322   1.326
 7107SOL    HW221666   4.909   2.265   1.219
 7108SOL     OW21667   3.788   3.426   1.331
 7108SOL    HW121668   3.742   3.508   1.297
 7108SOL    HW221669   3.886   3.445   1.340
 7109SOL     OW21670   4.091   2.962   0.501
 7109SOL    HW121671   4.084   3.045   0.445
 7109SOL    HW221672   4.095   2.882   0.441
 7110SOL     OW21673   4.290   2.399   0.865
 7110SOL    HW121674   4.302   2.465   0.791
 7110SOL    HW221675   4.336   2.433   0.948
 7111SOL     OW21676   4.976   3.210   0.388
 7111SOL    HW121677   5.026   3.287   0.428
 7111SOL    HW221678   4.881   3.212   0.420
 7112SOL     OW21679   4.996   3.307   1.142
 7112SOL    HW121680   5.043   3.320   1.229
 7112SOL    HW221681   4.930   3.233   1.151
 7113SOL     OW21682   5.306   2.501   0.472
 7113SOL    HW121683   5.275   2.562   0.545
 7113SOL    HW221684   5.356   2.553   0.403
 7114SOL     OW21685   4.078   3.372   1.329
 7114SOL    HW121686   4.057   3.328   1.242
 7114SOL    HW221687   4.175   3.398   1.332
 7115SOL     OW21688   4.126   2.613   1.598
 7115SOL    HW121689   4.194   2.668   1.551
 7115SOL    HW221690   4.166   2.525   1.625
 7116SOL     OW21691   5.311   2.641   1.670
 7116SOL    HW121692   5.219   2.679   1.665
 7116SOL    HW221693   5.371   2.688   1.605
 7117SOL     OW21694   4.737   1.967   1.770
 7117SOL    HW121695   4.743   2.052   1.718
 7117SOL    HW221696   4.769   1.891   1.713
 7118SOL     OW21697   4.228   1.912   1.740
 7118SOL    HW121698   4.186   1.855   1.670
 7118SOL    HW221699   4.162   1.981   1.772
 7119SOL     OW21700   4.297   2.732   1.029
 7119SOL    HW121701   4.341   2.821   1.020
 7119SOL    HW221702   4.234   2.732   1.106
 7120SOL     OW21703   5.084   2.724   1.045
 7120SOL    HW121704   5.009   2.724   0.979
 7120SOL    HW221705   5.121   2.632   1.054
 7121SOL     OW21706   4.031   2.075   1.231
 7121SOL    HW121707   4.008   2.112   1.321
 7121SOL    HW221708   4.001   1.980   1.225
 7122SOL     OW21709   3.761   3.172   1.282
 7122SOL    HW121710   3.814   3.123   1.350
 7122SOL    HW221711   3.783   3.270   1.287
 7123SOL     OW21712   4.456   2.496   1.064
 7123SOL    HW121713   4.515   2.470   0.988
 7123SOL    HW221714   4.428   2.592   1.053
 7124SOL     OW21715   5.452   2.797   1.854
 7124SOL    HW121716   5.406   2.790   1.765
 7124SOL    HW221717   5.390   2.841   1.920
 7125SOL     OW21718   4.031   1.925   0.618
 7125SOL    HW121719   4.020   2.019   0.651
 7125SOL    HW221720   4.026   1.862   0.695
 7126SOL     OW21721   4.747   2.628   0.966
 7126SOL    HW121722   4.762   2.649   1.062
 7126SOL    HW221723   4.717   2.533   0.957
 7127SOL     OW21724   4.704   3.435   1.700
 7127SOL    HW121725   4.684   3.479   1.612
 7127SOL    HW221726   4.743   3.344   1.684
 7128SOL     OW21727   5.583   3.380   1.605
 7128SOL    HW121728   5.597   3.407   1.510
 7128SOL    HW221729   5.666   3.402   1.658
 7129SOL     OW21730   4.074   2.760   1.804
 7129SOL    HW121731   4.150   2.804   1.852
 7129SOL    HW221732   4.109   2.713   1.722
 7130SOL     OW21733   4.792   3.195   0.849
 7130SOL    HW121734   4.799   3.111   0.794
 7130SOL    HW221735   4.854   3.264   0.813
 7131SOL     OW21736   4.043   2.672   0.949
 7131SOL    HW121737   4.136   2.708   0.954
 7131SOL    HW221738   4.037   2.587   1.001
 7132SOL     OW21739   4.063   2.371   1.006
 7132SOL    HW121740   4.011   2.288   0.989
 7132SOL    HW221741   4.140   2.376   0.942
 7133SOL     OW21742   4.862   2.242   1.678
 7133SOL    HW121743   4.817   2.305   1.742
 7133SOL    HW221744   4.955   2.273   1.661
 7134SOL     OW21745   4.884   2.069   1.477
 7134SOL    HW121746   4.884   2.133   1.554
 7134SOL    HW221747   4.912   2.117   1.394
 7135SOL     OW21748   3.812   3.663   0.927
 7135SOL    HW121749   3.770   3.577   0.900
 7135SOL    HW221750   3.906   3.666   0.893
 7136SOL     OW21751   4.228   3.430   0.910
 7136SOL    HW121752   4.294   3.504   0.919
 7136SOL    HW221753   4.272   3.351   0.868
 7137SOL     OW21754   4.726   2.658   1.238
 7137SOL    HW121755   4.767   2.626   1.324
 7137SOL    HW221756   4.630   2.631   1.235
 7138SOL     OW21757   3.764   2.406   1.114
 7138SOL    HW121758   3.849   2.373   1.073
 7138SOL    HW221759   3.777   2.421   1.212
 7139SOL     OW21760   3.913   2.382   1.722
 7139SOL    HW121761   3.972   2.342   1.652
 7139SOL    HW221762   3.855   2.453   1.681
 7140SOL     OW21763   5.093   2.812   1.660
 7140SOL    HW121764   5.132   2.901   1.680
 7140SOL    HW221765   5.103   2.792   1.563
 7141SOL     OW21766   5.381   2.466   1.206
 7141SOL    HW121767   5.343   2.397   1.268
 7141SOL    HW221768   5.463   2.430   1.162
 7142SOL     OW21769   3.976   3.426   1.744
 7142SOL    HW121770   3.946   3.483   1.820
 7142SOL    HW221771   3.969   3.329   1.770
 7143SOL     OW21772   4.395   2.326   1.269
 7143SOL    HW121773   4.361   2.237   1.239
 7143SOL    HW221774   4.421   2.380   1.189
 7144SOL     OW21775   4.654   3.540   1.465
 7144SOL    HW121776   4.630   3.522   1.370
 7144SOL    HW221777   4.684   3.634   1.475
 7145SOL     OW21778   3.883   2.999   1.466
 7145SOL    HW121779   3.905   2.938   1.542
 7145SOL    HW221780   3.893   2.950   1.380
 7146SOL     OW21781   5.071   2.921   1.234
 7146SOL    HW121782   5.095   2.858   1.160
 7146SOL    HW221783   4.981   2.961   1.216
 7147SOL     OW21784   5.483   3.609   1.154
 7147SOL    HW121785   5.544   3.639   1.081
 7147SOL    HW221786   5.445   3.520   1.132
 7148SOL     OW21787   4.976   3.593   1.128
 7148SOL    HW121788   5.060   3.598   1.074
 7148SOL    HW221789   4.953   3.497   1.146
 7149SOL     OW21790   3.807   3.120   1.022
 7149SOL    HW121791   3.802   3.119   1.122
 7149SOL    HW221792   3.724   3.079   0.984
 7150SOL     OW21793   4.412   3.524   1.716
 7150SOL    HW121794   4.356   3.605   1.725
 7150SOL    HW221795   4.464   3.528   1.630
 7151SOL     OW21796   5.450   1.997   0.523
 7151SOL    HW121797   5.523   1.980   0.456
 7151SOL    HW221798   5.419   1.910   0.561
 7152SOL     OW21799   5.112   3.435   0.477
 7152SOL    HW121800   5.179   3.447   0.403
 7152SOL    HW221801   5.072   3.524   0.500
 7153SOL     OW21802   3.854   3.656   1.851
 7153SOL    HW121803   3.813   3.582   1.904
 7153SOL    HW221804   3.918   3.707   1.909
 7154SOL     OW21805   5.004   2.789   0.672
 7154SOL    HW121806   5.064   2.708   0.674
 7154SOL    HW221807   5.044   2.858   0.612
 7155SOL     OW21808   4.554   3.135   1.422
 7155SOL    HW121809   4.549   3.168   1.517
 7155SOL    HW221810   4.468   3.154   1.376
 7156SOL     OW21811   5.374   3.582   1.394
 7156SOL    HW121812   5.427   3.592   1.310
 7156SOL    HW221813   5.347   3.672   1.428
 7157SOL     OW21814   5.565   2.037   0.963
 7157SOL    HW121815   5.604   1.952   0.927
 7157SOL    HW221816   5.467   2.039   0.944
 7158SOL     OW21817   3.987   2.188   0.720
 7158SOL    HW121818   3.908   2.239   0.686
 7158SOL    HW221819   3.978   2.173   0.818
 7159SOL     OW21820   4.546   2.864   1.372
 7159SOL    HW121821   4.586   2.863   1.280
 7159SOL    HW221822   4.556   2.956   1.412
 7160SOL     OW21823   4.640   2.772   0.291
 7160SOL    HW121824   4.703   2.810   0.223
 7160SOL    HW221825   4.680   2.689   0.330
 7161SOL     OW21826   4.096   3.150   1.490
 7161SOL    HW121827   4.083   3.243   1.456
 7161SOL    HW221828   4.012   3.098   1.477
 7162SOL     OW21829   5.338   3.154   1.289
 7162SOL    HW121830   5.398   3.157   1.369
 7162SOL    HW221831   5.263   3.218   1.302
 7163SOL     OW21832   4.763   2.960   0.696
 7163SOL    HW121833   4.693   2.913   0.750
 7163SOL    HW221834   4.822   2.892   0.653
 7164SOL     OW21835   4.738   2.098   0.971
 7164SOL    HW121836   4.730   2.062   0.878
 7164SOL    HW221837   4.736   2.022   1.036
 7165SOL     OW21838   4.314   3.349   0.491
 7165SOL    HW121839   4.356   3.291   0.421
 7165SOL    HW221840   4.270   3.428   0.447
 7166SOL     OW21841   5.433   2.247   1.381
 7166SOL    HW121842   5.506   2.316   1.385
 7166SOL    HW221843   5.461   2.172   1.322
 7167SOL     OW21844   3.829   2.875   1.726
 7167SOL    HW121845   3.752   2.842   1.780
 7167SOL    HW221846   3.914   2.845   1.768
 7168SOL     OW21847   4.396   2.065   1.489
 7168SOL    HW121848   4.486   2.049   1.449
 7168SOL    HW221849   4.404   2.070   1.588
 7169SOL     OW21850   5.164   2.718   1.398
 7169SOL    HW121851   5.107   2.770   1.335
 7169SOL    HW221852   5.260   2.730   1.374
 7170SOL     OW21853   3.796   2.028   0.318
 7170SOL    HW121854   3.779   2.111   0.264
 7170SOL    HW221855   3.886   1.991   0.296
 7171SOL     OW21856   4.337   2.704   1.431
 7171SOL    HW121857   4.393   2.785   1.414
 7171SOL    HW221858   4.396   2.624   1.434
 7172SOL     OW21859   5.217   3.629   0.959
 7172SOL    HW121860   5.250   3.693   0.890
 7172SOL    HW221861   5.283   3.623   1.034
 7173SOL     OW21862   4.440   2.427   1.708
 7173SOL    HW121863   4.459   2.492   1.782
 7173SOL    HW221864   4.500   2.347   1.717
 7174SOL     OW21865   5.174   3.082   1.633
 7174SOL    HW121866   5.165   3.072   1.732
 7174SOL    HW221867   5.270   3.075   1.607
 7175SOL     OW21868   4.114   3.603   1.560
 7175SOL    HW121869   4.023   3.644   1.558
 7175SOL    HW221870   4.107   3.509   1.592
 7176SOL     OW21871   5.398   2.745   1.254
 7176SOL    HW121872   5.371   2.656   1.217
 7176SOL    HW221873   5.399   2.813   1.181
 7177SOL     OW21874   4.318   2.607   0.652
 7177SOL    HW121875   4.368   2.692   0.633
 7177SOL    HW221876   4.230   2.609   0.604
 7178SOL     OW21877   5.501   2.204   1.642
 7178SOL    HW121878   5.484   2.235   1.548
 7178SOL    HW221879   5.417   2.167   1.680
 7179SOL     OW21880   5.454   2.796   1.517
 7179SOL    HW121881   5.492   2.887   1.532
 7179SOL    HW221882   5.446   2.779   1.418
 7180SOL     OW21883   4.385   3.652   0.953
 7180SOL    HW121884   4.339   3.740   0.940
 7180SOL    HW221885   4.484   3.664   0.946
 7181SOL     OW21886   4.583   2.818   0.861
 7181SOL    HW121887   4.637   2.749   0.909
 7181SOL    HW221888   4.551   2.887   0.927
 7182SOL     OW21889   5.585   3.431   0.851
 7182SOL    HW121890   5.514   3.419   0.781
 7182SOL    HW221891   5.586   3.352   0.911
 7183SOL     OW21892   3.945   3.176   1.844
 7183SOL    HW121893   3.880   3.103   1.823
 7183SOL    HW221894   3.949   3.190   1.942
 7184SOL     OW21895   3.803   3.102   0.653
 7184SOL    HW121896   3.802   3.055   0.741
 7184SOL    HW221897   3.885   3.074   0.602
 7185SOL     OW21898   4.396   3.253   1.624
 7185SOL    HW121899   4.318   3.203   1.662
 7185SOL    HW221900   4.393   3.348   1.655
 7186SOL     OW21901   5.548   2.054   1.227
 7186SOL    HW121902   5.544   1.964   1.271
 7186SOL    HW221903   5.551   2.043   1.128
 7187SOL     OW21904   4.152   2.286   0.520
 7187SOL    HW121905   4.182   2.214   0.458
 7187SOL    HW221906   4.113   2.246   0.603
 7188SOL     OW21907   5.429   3.349   1.104
 7188SOL    HW121908   5.336   3.324   1.077
 7188SOL    HW221909   5.455   3.299   1.186
 7189SOL     OW21910   4.041   2.409   1.280
 7189SOL    HW121911   4.079   2.350   1.352
 7189SOL    HW221912   4.081   2.383   1.192
 7190SOL     OW21913   4.536   3.448   0.687
 7190SOL    HW121914   4.568   3.458   0.593
 7190SOL    HW221915   4.457   3.386   0.689
 7191SOL     OW21916   5.148   2.076   1.112
 7191SOL    HW121917   5.200   2.011   1.167
 7191SOL    HW221918   5.099   2.139   1.173
 7192SOL     OW21919   4.725   1.896   1.154
 7192SOL    HW121920   4.662   1.824   1.123
 7192SOL    HW221921   4.818   1.860   1.154
 7193SOL     OW21922   4.342   3.429   1.284
 7193SOL    HW121923   4.337   3.511   1.341
 7193SOL    HW221924   4.431   3.426   1.239
 7194SOL     OW21925   5.024   2.315   0.691
 7194SOL    HW121926   4.965   2.395   0.695
 7194SOL    HW221927   5.039   2.280   0.784
 7195SOL     OW21928   5.317   2.083   0.882
 7195SOL    HW121929   5.233   2.082   0.936
 7195SOL    HW221930   5.319   2.166   0.826
 7196SOL     OW21931   3.954   2.490   1.975
 7196SOL    HW121932   3.861   2.488   2.012
 7196SOL    HW221933   3.955   2.451   1.883
 7197SOL     OW21934   3.949   2.137   2.858
 7197SOL    HW121935   3.984   2.120   2.950
 7197SOL    HW221936   3.861   2.092   2.846
 7198SOL     OW21937   3.743   2.230   2.509
 7198SOL    HW121938   3.661   2.273   2.548
 7198SOL    HW221939   3.715   2.157   2.446
 7199SOL     OW21940   4.293   3.137   3.027
 7199SOL    HW121941   4.200   3.130   2.990
 7199SOL    HW221942   4.304   3.226   3.071
 7200SOL     OW21943   5.279   3.373   2.565
 7200SOL    HW121944   5.222   3.357   2.646
 7200SOL    HW221945   5.220   3.383   2.485
 7201SOL     OW21946   4.859   2.565   2.579
 7201SOL    HW121947   4.916   2.643   2.554
 7201SOL    HW221948   4.799   2.591   2.655
 7202SOL     OW21949   5.479   2.469   2.093
 7202SOL    HW121950   5.467   2.456   1.994
 7202SOL    HW221951   5.449   2.388   2.142
 7203SOL     OW21952   4.492   3.006   2.885
 7203SOL    HW121953   4.414   3.023   2.945
 7203SOL    HW221954   4.526   3.093   2.849
 7204SOL     OW21955   4.574   2.660   3.685
 7204SOL    HW121956   4.570   2.736   3.750
 7204SOL    HW221957   4.596   2.696   3.594
 7205SOL     OW21958   4.409   2.874   2.527
 7205SOL    HW121959   4.478   2.858   2.597
 7205SOL    HW221960   4.336   2.931   2.565
 7206SOL     OW21961   4.410   3.023   3.665
 7206SOL    HW121962   4.470   3.102   3.679
 7206SOL    HW221963   4.324   3.054   3.624
 7207SOL     OW21964   4.059   3.297   2.923
 7207SOL    HW121965   3.981   3.266   2.870
 7207SOL    HW221966   4.117   3.355   2.866
 7208SOL     OW21967   5.184   3.367   3.201
 7208SOL    HW121968   5.208   3.461   3.227
 7208SOL    HW221969   5.168   3.313   3.283
 7209SOL     OW21970   4.162   2.254   3.361
 7209SOL    HW121971   4.244   2.198   3.370
 7209SOL    HW221972   4.081   2.196   3.365
 7210SOL     OW21973   5.327   2.309   2.599
 7210SOL    HW121974   5.253   2.355   2.549
 7210SOL    HW221975   5.378   2.377   2.652
 7211SOL     OW21976   3.955   3.575   2.345
 7211SOL    HW121977   3.989   3.652   2.399
 7211SOL    HW221978   3.999   3.575   2.255
 7212SOL     OW21979   4.851   3.203   3.552
 7212SOL    HW121980   4.898   3.203   3.640
 7212SOL    HW221981   4.803   3.116   3.541
 7213SOL     OW21982   3.954   3.296   2.400
 7213SOL    HW121983   3.928   3.392   2.400
 7213SOL    HW221984   3.883   3.242   2.445
 7214SOL     OW21985   3.964   2.953   2.748
 7214SOL    HW121986   3.978   2.869   2.800
 7214SOL    HW221987   3.909   3.017   2.803
 7215SOL     OW21988   4.344   3.648   3.301
 7215SOL    HW121989   4.252   3.631   3.336
 7215SOL    HW221990   4.372   3.740   3.327
 7216SOL     OW21991   4.330   2.826   1.985
 7216SOL    HW121992   4.337   2.910   1.931
 7216SOL    HW221993   4.376   2.839   2.073
 7217SOL     OW21994   5.318   1.976   3.342
 7217SOL    HW121995   5.300   2.043   3.270
 7217SOL    HW221996   5.315   2.022   3.431
 7218SOL     OW21997   3.846   2.505   2.425
 7218SOL    HW121998   3.801   2.417   2.442
 7218SOL    HW221999   3.845   2.559   2.509
 7219SOL     OW22000   5.566   3.629   2.221
 7219SOL    HW122001   5.620   3.600   2.301
 7219SOL    HW222002   5.596   3.719   2.192
 7220SOL     OW22003   3.751   3.458   1.979
 7220SOL    HW122004   3.732   3.362   2.000
 7220SOL    HW222005   3.718   3.516   2.054
 7221SOL     OW22006   5.413   2.784   2.474
 7221SOL    HW122007   5.508   2.755   2.482
 7221SOL    HW222008   5.405   2.849   2.399
 7222SOL     OW22009   5.365   2.970   2.294
 7222SOL    HW122010   5.451   2.972   2.242
 7222SOL    HW222011   5.379   3.017   2.382
 7223SOL     OW22012   3.837   2.599   3.459
 7223SOL    HW122013   3.925   2.586   3.504
 7223SOL    HW222014   3.824   2.696   3.437
 7224SOL     OW22015   4.337   3.227   2.588
 7224SOL    HW122016   4.288   3.140   2.597
 7224SOL    HW222017   4.314   3.270   2.501
 7225SOL     OW22018   5.017   3.090   3.285
 7225SOL    HW122019   5.054   3.017   3.227
 7225SOL    HW222020   5.069   3.095   3.370
 7226SOL     OW22021   4.533   1.866   2.364
 7226SOL    HW122022   4.573   1.957   2.355
 7226SOL    HW222023   4.433   1.874   2.370
 7227SOL     OW22024   3.921   2.838   3.126
 7227SOL    HW122025   4.010   2.793   3.112
 7227SOL    HW222026   3.848   2.773   3.107
 7228SOL     OW22027   5.249   2.861   2.052
 7228SOL    HW122028   5.186   2.785   2.065
 7228SOL    HW222029   5.297   2.879   2.138
 7229SOL     OW22030   4.911   3.654   3.478
 7229SOL    HW122031   4.935   3.714   3.402
 7229SOL    HW222032   4.918   3.559   3.448
 7230SOL     OW22033   4.041   2.113   3.663
 7230SOL    HW122034   4.112   2.184   3.669
 7230SOL    HW222035   3.953   2.152   3.691
 7231SOL     OW22036   5.190   3.279   2.815
 7231SOL    HW122037   5.131   3.285   2.895
 7231SOL    HW222038   5.175   3.191   2.769
 7232SOL     OW22039   5.391   3.576   2.434
 7232SOL    HW122040   5.350   3.553   2.346
 7232SOL    HW222041   5.373   3.502   2.499
 7233SOL     OW22042   4.322   2.591   2.132
 7233SOL    HW122043   4.346   2.660   2.064
 7233SOL    HW222044   4.244   2.624   2.186
 7234SOL     OW22045   5.005   2.207   2.806
 7234SOL    HW122046   4.919   2.157   2.793
 7234SOL    HW222047   5.067   2.153   2.862
 7235SOL     OW22048   5.300   3.524   2.169
 7235SOL    HW122049   5.389   3.570   2.172
 7235SOL    HW222050   5.279   3.500   2.074
 7236SOL     OW22051   4.531   2.467   3.327
 7236SOL    HW122052   4.484   2.464   3.416
 7236SOL    HW222053   4.480   2.412   3.261
 7237SOL     OW22054   5.118   2.331   3.536
 7237SOL    HW122055   5.098   2.374   3.624
 7237SOL    HW222056   5.196   2.269   3.545
 7238SOL     OW22057   4.697   2.752   3.434
 7238SOL    HW122058   4.743   2.668   3.405
 7238SOL    HW222059   4.641   2.786   3.359
 7239SOL     OW22060   4.715   2.272   3.104
 7239SOL    HW122061   4.638   2.306   3.158
 7239SOL    HW222062   4.681   2.221   3.025
 7240SOL     OW22063   4.765   2.563   2.291
 7240SOL    HW122064   4.791   2.559   2.387
 7240SOL    HW222065   4.680   2.512   2.277
 7241SOL     OW22066   3.800   2.673   2.651
 7241SOL    HW122067   3.899   2.661   2.660
 7241SOL    HW222068   3.776   2.768   2.672
 7242SOL     OW22069   3.854   3.683   3.433
 7242SOL    HW122070   3.844   3.668   3.532
 7242SOL    HW222071   3.768   3.719   3.397
 7243SOL     OW22072   4.589   2.210   2.057
 7243SOL    HW122073   4.648   2.273   2.008
 7243SOL    HW222074   4.608   2.116   2.028
 7244SOL     OW22075   5.443   2.447   3.693
 7244SOL    HW122076   5.417   2.536   3.657
 7244SOL    HW222077   5.441   2.379   3.620
 7245SOL     OW22078   5.086   3.006   2.407
 7245SOL    HW122079   5.169   2.977   2.359
 7245SOL    HW222080   5.037   3.073   2.351
 7246SOL     OW22081   4.274   2.058   2.747
 7246SOL    HW122082   4.269   2.053   2.847
 7246SOL    HW222083   4.276   2.154   2.718
 7247SOL     OW22084   4.732   3.318   2.339
 7247SOL    HW122085   4.686   3.390   2.287
 7247SOL    HW222086   4.728   3.338   2.437
 7248SOL     OW22087   4.075   3.663   2.715
 7248SOL    HW122088   4.125   3.577   2.721
 7248SOL    HW222089   4.140   3.740   2.712
 7249SOL     OW22090   5.519   2.928   2.735
 7249SOL    HW122091   5.457   2.913   2.659
 7249SOL    HW222092   5.467   2.939   2.820
 7250SOL     OW22093   4.951   3.412   3.368
 7250SOL    HW122094   4.957   3.335   3.432
 7250SOL    HW222095   4.899   3.386   3.288
 7251SOL     OW22096   4.045   2.805   2.104
 7251SOL    HW122097   4.127   2.844   2.062
 7251SOL    HW222098   4.018   2.723   2.055
 7252SOL     OW22099   5.182   2.597   2.590
 7252SOL    HW122100   5.177   2.532   2.665
 7252SOL    HW222101   5.262   2.656   2.603
 7253SOL     OW22102   4.185   3.128   3.589
 7253SOL    HW122103   4.135   3.129   3.503
 7253SOL    HW222104   4.122   3.110   3.665
 7254SOL     OW22105   4.835   3.638   2.099
 7254SOL    HW122106   4.775   3.576   2.149
 7254SOL    HW222107   4.866   3.594   2.014
 7255SOL     OW22108   3.926   2.147   3.360
 7255SOL    HW122109   3.846   2.207   3.347
 7255SOL    HW222110   3.916   2.098   3.446
 7256SOL     OW22111   5.356   3.239   1.943
 7256SOL    HW122112   5.324   3.333   1.933
 7256SOL    HW222113   5.280   3.176   1.931
 7257SOL     OW22114   4.188   3.605   2.185
 7257SOL    HW122115   4.221   3.644   2.271
 7257SOL    HW222116   4.264   3.598   2.120
 7258SOL     OW22117   5.124   1.969   2.288
 7258SOL    HW122118   5.100   1.932   2.198
 7258SOL    HW222119   5.223   1.985   2.292
 7259SOL     OW22120   3.973   3.647   3.103
 7259SOL    HW122121   4.030   3.582   3.153
 7259SOL    HW222122   3.957   3.614   3.010
 7260SOL     OW22123   4.664   3.560   2.766
 7260SOL    HW122124   4.744   3.503   2.787
 7260SOL    HW222125   4.615   3.520   2.689
 7261SOL     OW22126   4.106   2.562   2.342
 7261SOL    HW122127   4.151   2.472   2.339
 7261SOL    HW222128   4.012   2.551   2.375
 7262SOL     OW22129   5.271   2.084   3.591
 7262SOL    HW122130   5.266   2.121   3.683
 7262SOL    HW222131   5.199   2.015   3.579
 7263SOL     OW22132   4.338   1.984   1.979
 7263SOL    HW122133   4.436   1.962   1.986
 7263SOL    HW222134   4.307   1.967   1.886
 7264SOL     OW22135   4.505   2.126   3.611
 7264SOL    HW122136   4.572   2.065   3.654
 7264SOL    HW222137   4.432   2.145   3.676
 7265SOL     OW22138   4.612   3.376   3.057
 7265SOL    HW122139   4.589   3.351   2.963
 7265SOL    HW222140   4.673   3.307   3.096
 7266SOL     OW22141   5.075   2.452   3.295
 7266SOL    HW122142   5.103   2.409   3.380
 7266SOL    HW222143   5.100   2.548   3.296
 7267SOL     OW22144   4.527   3.264   2.786
 7267SOL    HW122145   4.617   3.278   2.744
 7267SOL    HW222146   4.456   3.266   2.715
 7268SOL     OW22147   4.646   2.365   2.761
 7268SOL    HW122148   4.621   2.356   2.665
 7268SOL    HW222149   4.694   2.283   2.792
 7269SOL     OW22150   4.263   1.926   2.374
 7269SOL    HW122151   4.182   1.927   2.432
 7269SOL    HW222152   4.266   2.009   2.319
 7270SOL     OW22153   5.158   3.050   1.903
 7270SOL    HW122154   5.190   2.974   1.960
 7270SOL    HW222155   5.066   3.077   1.933
 7271SOL     OW22156   4.021   1.897   2.033
 7271SOL    HW122157   4.070   1.981   2.012
 7271SOL    HW222158   4.083   1.832   2.078
 7272SOL     OW22159   4.659   2.098   2.342
 7272SOL    HW122160   4.611   2.139   2.264
 7272SOL    HW222161   4.758   2.096   2.323
 7273SOL     OW22162   4.800   2.545   3.326
 7273SOL    HW122163   4.720   2.484   3.329
 7273SOL    HW222164   4.881   2.492   3.302
 7274SOL     OW22165   4.951   3.432   2.655
 7274SOL    HW122166   4.972   3.506   2.590
 7274SOL    HW222167   5.019   3.432   2.728
 7275SOL     OW22168   4.183   3.014   2.603
 7275SOL    HW122169   4.112   2.987   2.668
 7275SOL    HW222170   4.157   2.986   2.510
 7276SOL     OW22171   4.995   3.659   2.453
 7276SOL    HW122172   5.039   3.723   2.389
 7276SOL    HW222173   4.945   3.711   2.523
 7277SOL     OW22174   4.756   2.411   1.878
 7277SOL    HW122175   4.715   2.493   1.839
 7277SOL    HW222176   4.820   2.437   1.951
 7278SOL     OW22177   3.802   2.418   3.248
 7278SOL    HW122178   3.894   2.417   3.207
 7278SOL    HW222179   3.796   2.492   3.315
 7279SOL     OW22180   4.285   2.084   3.009
 7279SOL    HW122181   4.323   2.000   3.046
 7279SOL    HW222182   4.197   2.103   3.053
 7280SOL     OW22183   4.590   2.316   2.504
 7280SOL    HW122184   4.558   2.388   2.442
 7280SOL    HW222185   4.614   2.235   2.451
 7281SOL     OW22186   4.741   1.901   2.615
 7281SOL    HW122187   4.669   1.906   2.546
 7281SOL    HW222188   4.717   1.832   2.684
 7282SOL     OW22189   5.153   3.035   2.729
 7282SOL    HW122190   5.098   2.951   2.722
 7282SOL    HW222191   5.179   3.064   2.637
 7283SOL     OW22192   5.190   2.452   2.854
 7283SOL    HW122193   5.160   2.357   2.861
 7283SOL    HW222194   5.263   2.468   2.920
 7284SOL     OW22195   5.581   2.695   2.239
 7284SOL    HW122196   5.623   2.631   2.303
 7284SOL    HW222197   5.543   2.644   2.161
 7285SOL     OW22198   4.212   3.247   2.036
 7285SOL    HW122199   4.125   3.232   2.083
 7285SOL    HW222200   4.195   3.273   1.941
 7286SOL     OW22201   5.388   3.142   2.519
 7286SOL    HW122202   5.487   3.150   2.533
 7286SOL    HW222203   5.343   3.226   2.550
 7287SOL     OW22204   5.114   2.437   1.940
 7287SOL    HW122205   5.060   2.416   2.021
 7287SOL    HW222206   5.205   2.396   1.949
 7288SOL     OW22207   4.251   2.118   2.190
 7288SOL    HW122208   4.278   2.059   2.115
 7288SOL    HW222209   4.251   2.213   2.159
 7289SOL     OW22210   5.478   3.085   3.450
 7289SOL    HW122211   5.569   3.046   3.437
 7289SOL    HW222212   5.486   3.181   3.474
 7290SOL     OW22213   4.788   3.209   3.202
 7290SOL    HW122214   4.708   3.186   3.257
 7290SOL    HW222215   4.871   3.183   3.251
 7291SOL     OW22216   5.316   3.491   3.487
 7291SOL    HW122217   5.343   3.525   3.397
 7291SOL    HW222218   5.395   3.453   3.533
 7292SOL     OW22219   4.835   3.057   2.962
 7292SOL    HW122220   4.795   3.101   3.043
 7292SOL    HW222221   4.794   3.094   2.879
 7293SOL     OW22222   5.362   2.961   2.941
 7293SOL    HW122223   5.367   3.042   3.000
 7293SOL    HW222224   5.276   2.963   2.890
 7294SOL     OW22225   4.639   1.951   3.264
 7294SOL    HW122226   4.664   1.931   3.169
 7294SOL    HW222227   4.711   2.007   3.306
 7295SOL     OW22228   4.704   2.978   3.581
 7295SOL    HW122229   4.605   2.984   3.591
 7295SOL    HW222230   4.727   2.898   3.525
 7296SOL     OW22231   4.429   2.912   2.230
 7296SOL    HW122232   4.415   2.919   2.329
 7296SOL    HW222233   4.513   2.861   2.212
 7297SOL     OW22234   4.134   2.675   3.113
 7297SOL    HW122235   4.220   2.687   3.163
 7297SOL    HW222236   4.092   2.588   3.140
 7298SOL     OW22237   4.998   2.248   3.124
 7298SOL    HW122238   5.019   2.322   3.188
 7298SOL    HW222239   4.909   2.265   3.081
 7299SOL     OW22240   3.788   3.426   3.193
 7299SOL    HW122241   3.742   3.508   3.159
 7299SOL    HW222242   3.886   3.445   3.202
 7300SOL     OW22243   4.091   2.962   2.363
 7300SOL    HW122244   4.084   3.045   2.307
 7300SOL    HW222245   4.095   2.882   2.303
 7301SOL     OW22246   4.290   2.399   2.727
 7301SOL    HW122247   4.302   2.465   2.653
 7301SOL    HW222248   4.336   2.433   2.810
 7302SOL     OW22249   4.976   3.210   2.250
 7302SOL    HW122250   5.026   3.287   2.290
 7302SOL    HW222251   4.881   3.212   2.282
 7303SOL     OW22252   4.996   3.307   3.004
 7303SOL    HW122253   5.043   3.320   3.091
 7303SOL    HW222254   4.930   3.233   3.013
 7304SOL     OW22255   5.306   2.501   2.334
 7304SOL    HW122256   5.275   2.562   2.407
 7304SOL    HW222257   5.356   2.553   2.265
 7305SOL     OW22258   4.078   3.372   3.191
 7305SOL    HW122259   4.057   3.328   3.104
 7305SOL    HW222260   4.175   3.398   3.194
 7306SOL     OW22261   4.126   2.613   3.460
 7306SOL    HW122262   4.194   2.668   3.413
 7306SOL    HW222263   4.166   2.525   3.487
 7307SOL     OW22264   5.311   2.641   3.532
 7307SOL    HW122265   5.219   2.679   3.527
 7307SOL    HW222266   5.371   2.688   3.467
 7308SOL     OW22267   4.737   1.967   3.632
 7308SOL    HW122268   4.743   2.052   3.580
 7308SOL    HW222269   4.769   1.891   3.575
 7309SOL     OW22270   4.228   1.912   3.602
 7309SOL    HW122271   4.186   1.855   3.532
 7309SOL    HW222272   4.162   1.981   3.634
 7310SOL     OW22273   4.297   2.732   2.891
 7310SOL    HW122274   4.341   2.821   2.882
 7310SOL    HW222275   4.234   2.732   2.968
 7311SOL     OW22276   5.084   2.724   2.907
 7311SOL    HW122277   5.009   2.724   2.841
 7311SOL    HW222278   5.121   2.632   2.916
 7312SOL     OW22279   4.933   2.387   2.137
 7312SOL    HW122280   4.946   2.303   2.191
 7312SOL    HW222281   4.904   2.461   2.197
 7313SOL     OW22282   4.031   2.075   3.093
 7313SOL    HW122283   4.008   2.112   3.183
 7313SOL    HW222284   4.001   1.980   3.087
 7314SOL     OW22285   3.761   3.172   3.144
 7314SOL    HW122286   3.814   3.123   3.212
 7314SOL    HW222287   3.783   3.270   3.149
 7315SOL     OW22288   4.456   2.496   2.926
 7315SOL    HW122289   4.515   2.470   2.850
 7315SOL    HW222290   4.428   2.592   2.915
 7316SOL     OW22291   5.452   2.797   3.716
 7316SOL    HW122292   5.406   2.790   3.627
 7316SOL    HW222293   5.390   2.841   3.782
 7317SOL     OW22294   4.031   1.925   2.480
 7317SOL    HW122295   4.020   2.019   2.513
 7317SOL    HW222296   4.026   1.862   2.557
 7318SOL     OW22297   5.346   2.229   2.236
 7318SOL    HW122298   5.348   2.153   2.300
 7318SOL    HW222299   5.298   2.306   2.276
 7319SOL     OW22300   4.747   2.628   2.828
 7319SOL    HW122301   4.762   2.649   2.924
 7319SOL    HW222302   4.717   2.533   2.819
 7320SOL     OW22303   4.704   3.435   3.562
 7320SOL    HW122304   4.684   3.479   3.474
 7320SOL    HW222305   4.743   3.344   3.546
 7321SOL     OW22306   5.583   3.380   3.467
 7321SOL    HW122307   5.597   3.407   3.372
 7321SOL    HW222308   5.666   3.402   3.520
 7322SOL     OW22309   4.074   2.760   3.666
 7322SOL    HW122310   4.150   2.804   3.714
 7322SOL    HW222311   4.109   2.713   3.584
 7323SOL     OW22312   5.264   2.136   1.987
 7323SOL    HW122313   5.203   2.061   2.010
 7323SOL    HW222314   5.286   2.188   2.070
 7324SOL     OW22315   5.027   2.700   1.904
 7324SOL    HW122316   5.061   2.607   1.919
 7324SOL    HW222317   5.045   2.727   1.809
 7325SOL     OW22318   4.792   3.195   2.711
 7325SOL    HW122319   4.799   3.111   2.656
 7325SOL    HW222320   4.854   3.264   2.675
 7326SOL     OW22321   4.043   2.672   2.811
 7326SOL    HW122322   4.136   2.708   2.816
 7326SOL    HW222323   4.037   2.587   2.863
 7327SOL     OW22324   4.063   2.371   2.868
 7327SOL    HW122325   4.011   2.288   2.851
 7327SOL    HW222326   4.140   2.376   2.804
 7328SOL     OW22327   4.862   2.242   3.540
 7328SOL    HW122328   4.817   2.305   3.604
 7328SOL    HW222329   4.955   2.273   3.523
 7329SOL     OW22330   4.884   2.069   3.339
 7329SOL    HW122331   4.884   2.133   3.416
 7329SOL    HW222332   4.912   2.117   3.256
 7330SOL     OW22333   3.732   3.188   2.062
 7330SOL    HW122334   3.639   3.209   2.031
 7330SOL    HW222335   3.742   3.089   2.075
 7331SOL     OW22336   3.812   3.663   2.789
 7331SOL    HW122337   3.770   3.577   2.762
 7331SOL    HW222338   3.906   3.666   2.755
 7332SOL     OW22339   4.228   3.430   2.772
 7332SOL    HW122340   4.294   3.504   2.781
 7332SOL    HW222341   4.272   3.351   2.730
 7333SOL     OW22342   4.726   2.658   3.100
 7333SOL    HW122343   4.767   2.626   3.186
 7333SOL    HW222344   4.630   2.631   3.097
 7334SOL     OW22345   3.764   2.406   2.976
 7334SOL    HW122346   3.849   2.373   2.935
 7334SOL    HW222347   3.777   2.421   3.074
 7335SOL     OW22348   3.913   2.382   3.584
 7335SOL    HW122349   3.972   2.342   3.514
 7335SOL    HW222350   3.855   2.453   3.543
 7336SOL     OW22351   5.093   2.812   3.522
 7336SOL    HW122352   5.132   2.901   3.542
 7336SOL    HW222353   5.103   2.792   3.425
 7337SOL     OW22354   4.539   2.434   2.187
 7337SOL    HW122355   4.546   2.345   2.141
 7337SOL    HW222356   4.445   2.468   2.179
 7338SOL     OW22357   5.381   2.466   3.068
 7338SOL    HW122358   5.343   2.397   3.130
 7338SOL    HW222359   5.463   2.430   3.024
 7339SOL     OW22360   3.976   3.426   3.606
 7339SOL    HW122361   3.946   3.483   3.682
 7339SOL    HW222362   3.969   3.329   3.632
 7340SOL     OW22363   4.395   2.326   3.131
 7340SOL    HW122364   4.361   2.237   3.101
 7340SOL    HW222365   4.421   2.380   3.051
 7341SOL     OW22366   4.654   3.540   3.327
 7341SOL    HW122367   4.630   3.522   3.232
 7341SOL    HW222368   4.684   3.634   3.337
 7342SOL     OW22369   4.197   2.362   2.053
 7342SOL    HW122370   4.258   2.442   2.057
 7342SOL    HW222371   4.102   2.393   2.060
 7343SOL     OW22372   3.883   2.999   3.328
 7343SOL    HW122373   3.905   2.938   3.404
 7343SOL    HW222374   3.893   2.950   3.242
 7344SOL     OW22375   5.071   2.921   3.096
 7344SOL    HW122376   5.095   2.858   3.022
 7344SOL    HW222377   4.981   2.961   3.078
 7345SOL     OW22378   5.026   2.717   2.171
 7345SOL    HW122379   4.940   2.686   2.213
 7345SOL    HW222380   5.022   2.703   2.072
 7346SOL     OW22381   5.483   3.609   3.016
 7346SOL    HW122382   5.544   3.639   2.943
 7346SOL    HW222383   5.445   3.520   2.994
 7347SOL     OW22384   4.976   3.593   2.990
 7347SOL    HW122385   5.060   3.598   2.936
 7347SOL    HW222386   4.953   3.497   3.008
 7348SOL     OW22387   3.807   3.120   2.884
 7348SOL    HW122388   3.802   3.119   2.984
 7348SOL    HW222389   3.724   3.079   2.846
 7349SOL     OW22390   4.412   3.524   3.578
 7349SOL    HW122391   4.356   3.605   3.587
 7349SOL    HW222392   4.464   3.528   3.492
 7350SOL     OW22393   5.450   1.997   2.385
 7350SOL    HW122394   5.523   1.980   2.318
 7350SOL    HW222395   5.419   1.910   2.423
 7351SOL     OW22396   5.112   3.435   2.339
 7351SOL    HW122397   5.179   3.447   2.265
 7351SOL    HW222398   5.072   3.524   2.362
 7352SOL     OW22399   3.854   3.656   3.713
 7352SOL    HW122400   3.813   3.582   3.766
 7352SOL    HW222401   3.918   3.707   3.771
 7353SOL     OW22402   5.004   2.789   2.534
 7353SOL    HW122403   5.064   2.708   2.536
 7353SOL    HW222404   5.044   2.858   2.474
 7354SOL     OW22405   4.554   3.135   3.284
 7354SOL    HW122406   4.549   3.168   3.379
 7354SOL    HW222407   4.468   3.154   3.238
 7355SOL     OW22408   4.396   3.478   2.016
 7355SOL    HW122409   4.405   3.488   1.917
 7355SOL    HW222410   4.356   3.389   2.037
 7356SOL     OW22411   5.374   3.582   3.256
 7356SOL    HW122412   5.427   3.592   3.172
 7356SOL    HW222413   5.347   3.672   3.290
 7357SOL     OW22414   5.565   2.037   2.825
 7357SOL    HW122415   5.604   1.952   2.789
 7357SOL    HW222416   5.467   2.039   2.806
 7358SOL     OW22417   3.987   2.188   2.582
 7358SOL    HW122418   3.908   2.239   2.548
 7358SOL    HW222419   3.978   2.173   2.680
 7359SOL     OW22420   4.918   3.474   1.893
 7359SOL    HW122421   4.924   3.381   1.930
 7359SOL    HW222422   4.859   3.474   1.813
 7360SOL     OW22423   4.546   2.864   3.234
 7360SOL    HW122424   4.586   2.863   3.142
 7360SOL    HW222425   4.556   2.956   3.274
 7361SOL     OW22426   4.640   2.772   2.153
 7361SOL    HW122427   4.703   2.810   2.085
 7361SOL    HW222428   4.680   2.689   2.192
 7362SOL     OW22429   5.228   3.469   1.906
 7362SOL    HW122430   5.136   3.506   1.913
 7362SOL    HW222431   5.266   3.489   1.816
 7363SOL     OW22432   4.096   3.150   3.352
 7363SOL    HW122433   4.083   3.243   3.318
 7363SOL    HW222434   4.012   3.098   3.339
 7364SOL     OW22435   5.338   3.154   3.151
 7364SOL    HW122436   5.398   3.157   3.231
 7364SOL    HW222437   5.263   3.218   3.164
 7365SOL     OW22438   4.763   2.960   2.558
 7365SOL    HW122439   4.693   2.913   2.612
 7365SOL    HW222440   4.822   2.892   2.515
 7366SOL     OW22441   4.738   2.098   2.833
 7366SOL    HW122442   4.730   2.062   2.740
 7366SOL    HW222443   4.736   2.022   2.898
 7367SOL     OW22444   4.314   3.349   2.353
 7367SOL    HW122445   4.356   3.291   2.283
 7367SOL    HW222446   4.270   3.428   2.309
 7368SOL     OW22447   5.433   2.247   3.243
 7368SOL    HW122448   5.506   2.316   3.247
 7368SOL    HW222449   5.461   2.172   3.184
 7369SOL     OW22450   3.979   3.210   2.152
 7369SOL    HW122451   3.883   3.211   2.125
 7369SOL    HW222452   3.991   3.263   2.236
 7370SOL     OW22453   3.829   2.875   3.588
 7370SOL    HW122454   3.752   2.842   3.642
 7370SOL    HW222455   3.914   2.845   3.630
 7371SOL     OW22456   4.396   2.065   3.351
 7371SOL    HW122457   4.486   2.049   3.311
 7371SOL    HW222458   4.404   2.070   3.450
 7372SOL     OW22459   3.799   2.207   1.895
 7372SOL    HW122460   3.707   2.179   1.866
 7372SOL    HW222461   3.830   2.284   1.839
 7373SOL     OW22462   5.164   2.718   3.260
 7373SOL    HW122463   5.107   2.770   3.197
 7373SOL    HW222464   5.260   2.730   3.236
 7374SOL     OW22465   3.796   2.028   2.180
 7374SOL    HW122466   3.779   2.111   2.126
 7374SOL    HW222467   3.886   1.991   2.158
 7375SOL     OW22468   4.907   3.197   1.981
 7375SOL    HW122469   4.808   3.186   1.983
 7375SOL    HW222470   4.941   3.212   2.074
 7376SOL     OW22471   4.337   2.704   3.293
 7376SOL    HW122472   4.393   2.785   3.276
 7376SOL    HW222473   4.396   2.624   3.296
 7377SOL     OW22474   5.217   3.629   2.821
 7377SOL    HW122475   5.250   3.693   2.752
 7377SOL    HW222476   5.283   3.623   2.896
 7378SOL     OW22477   4.440   2.427   3.570
 7378SOL    HW122478   4.459   2.492   3.644
 7378SOL    HW222479   4.500   2.347   3.579
 7379SOL     OW22480   5.174   3.082   3.495
 7379SOL    HW122481   5.165   3.072   3.594
 7379SOL    HW222482   5.270   3.075   3.469
 7380SOL     OW22483   4.114   3.603   3.422
 7380SOL    HW122484   4.023   3.644   3.420
 7380SOL    HW222485   4.107   3.509   3.454
 7381SOL     OW22486   5.398   2.745   3.116
 7381SOL    HW122487   5.371   2.656   3.079
 7381SOL    HW222488   5.399   2.813   3.043
 7382SOL     OW22489   4.949   2.187   2.311
 7382SOL    HW122490   5.014   2.113   2.300
 7382SOL    HW222491   4.969   2.237   2.395
 7383SOL     OW22492   4.318   2.607   2.514
 7383SOL    HW122493   4.368   2.692   2.495
 7383SOL    HW222494   4.230   2.609   2.466
 7384SOL     OW22495   5.501   2.204   3.504
 7384SOL    HW122496   5.484   2.235   3.410
 7384SOL    HW222497   5.417   2.167   3.542
 7385SOL     OW22498   5.454   2.796   3.379
 7385SOL    HW122499   5.492   2.887   3.394
 7385SOL    HW222500   5.446   2.779   3.280
 7386SOL     OW22501   4.583   3.236   1.878
 7386SOL    HW122502   4.537   3.251   1.966
 7386SOL    HW222503   4.627   3.321   1.848
 7387SOL     OW22504   4.385   3.652   2.815
 7387SOL    HW122505   4.339   3.740   2.802
 7387SOL    HW222506   4.484   3.664   2.808
 7388SOL     OW22507   4.583   2.818   2.723
 7388SOL    HW122508   4.637   2.749   2.771
 7388SOL    HW222509   4.551   2.887   2.789
 7389SOL     OW22510   4.807   2.846   1.949
 7389SOL    HW122511   4.784   2.899   1.867
 7389SOL    HW222512   4.888   2.790   1.930
 7390SOL     OW22513   5.585   3.431   2.713
 7390SOL    HW122514   5.514   3.419   2.643
 7390SOL    HW222515   5.586   3.352   2.773
 7391SOL     OW22516   3.945   3.176   3.706
 7391SOL    HW122517   3.880   3.103   3.685
 7391SOL    HW222518   3.949   3.190   3.804
 7392SOL     OW22519   3.803   3.102   2.515
 7392SOL    HW122520   3.802   3.055   2.603
 7392SOL    HW222521   3.885   3.074   2.464
 7393SOL     OW22522   4.396   3.253   3.486
 7393SOL    HW122523   4.318   3.203   3.524
 7393SOL    HW222524   4.393   3.348   3.517
 7394SOL     OW22525   5.548   2.054   3.089
 7394SOL    HW122526   5.544   1.964   3.133
 7394SOL    HW222527   5.551   2.043   2.990
 7395SOL     OW22528   4.152   2.286   2.382
 7395SOL    HW122529   4.182   2.214   2.320
 7395SOL    HW222530   4.113   2.246   2.465
 7396SOL     OW22531   5.429   3.349   2.966
 7396SOL    HW122532   5.336   3.324   2.939
 7396SOL    HW222533   5.455   3.299   3.048
 7397SOL     OW22534   4.041   2.409   3.142
 7397SOL    HW122535   4.079   2.350   3.214
 7397SOL    HW222536   4.081   2.383   3.054
 7398SOL     OW22537   4.536   3.448   2.549
 7398SOL    HW122538   4.568   3.458   2.455
 7398SOL    HW222539   4.457   3.386   2.551
 7399SOL     OW22540   5.148   2.076   2.974
 7399SOL    HW122541   5.200   2.011   3.029
 7399SOL    HW222542   5.099   2.139   3.035
 7400SOL     OW22543   4.725   1.896   3.016
 7400SOL    HW122544   4.662   1.824   2.985
 7400SOL    HW222545   4.818   1.860   3.016
 7401SOL     OW22546   4.494   3.192   2.163
 7401SOL    HW122547   4.448   3.105   2.180
 7401SOL    HW222548   4.585   3.189   2.204
 7402SOL     OW22549   4.342   3.429   3.146
 7402SOL    HW122550   4.337   3.511   3.203
 7402SOL    HW222551   4.431   3.426   3.101
 7403SOL     OW22552   5.076   1.914   2.030
 7403SOL    HW122553   5.111   1.873   1.946
 7403SOL    HW222554   4.986   1.876   2.050
 7404SOL     OW22555   5.024   2.315   2.553
 7404SOL    HW122556   4.965   2.395   2.557
 7404SOL    HW222557   5.039   2.280   2.646
 7405SOL     OW22558   5.317   2.083   2.744
 7405SOL    HW122559   5.233   2.082   2.798
 7405SOL    HW222560   5.319   2.166   2.688
 7406SOL     OW22561   3.763   2.939   2.162
 7406SOL    HW122562   3.862   2.928   2.153
 7406SOL    HW222563   3.723   2.853   2.194
 7407SOL     OW22564   4.599   3.508   2.199
 7407SOL    HW122565   4.522   3.473   2.145
 7407SOL    HW222566   4.567   3.579   2.261
 7408SOL     OW22567   3.954   2.490   3.837
 7408SOL    HW122568   3.861   2.488   3.874
 7408SOL    HW222569   3.955   2.451   3.745
 7409SOL     OW22570   3.949   2.137   4.720
 7409SOL    HW122571   3.984   2.120   4.812
 7409SOL    HW222572   3.861   2.092   4.708
 7410SOL     OW22573   3.743   2.230   4.371
 7410SOL    HW122574   3.661   2.273   4.410
 7410SOL    HW222575   3.715   2.157   4.308
 7411SOL     OW22576   4.293   3.137   4.889
 7411SOL    HW122577   4.200   3.130   4.852
 7411SOL    HW222578   4.304   3.226   4.933
 7412SOL     OW22579   5.279   3.373   4.427
 7412SOL    HW122580   5.222   3.357   4.508
 7412SOL    HW222581   5.220   3.383   4.347
 7413SOL     OW22582   4.859   2.565   4.441
 7413SOL    HW122583   4.916   2.643   4.416
 7413SOL    HW222584   4.799   2.591   4.517
 7414SOL     OW22585   5.479   2.469   3.955
 7414SOL    HW122586   5.467   2.456   3.856
 7414SOL    HW222587   5.449   2.388   4.004
 7415SOL     OW22588   4.492   3.006   4.747
 7415SOL    HW122589   4.414   3.023   4.807
 7415SOL    HW222590   4.526   3.093   4.711
 7416SOL     OW22591   4.574   2.660   5.547
 7416SOL    HW122592   4.570   2.736   5.612
 7416SOL    HW222593   4.596   2.696   5.456
 7417SOL     OW22594   4.409   2.874   4.389
 7417SOL    HW122595   4.478   2.858   4.459
 7417SOL    HW222596   4.336   2.931   4.427
 7418SOL     OW22597   4.410   3.023   5.527
 7418SOL    HW122598   4.470   3.102   5.541
 7418SOL    HW222599   4.324   3.054   5.486
 7419SOL     OW22600   4.059   3.297   4.785
 7419SOL    HW122601   3.981   3.266   4.732
 7419SOL    HW222602   4.117   3.355   4.728
 7420SOL     OW22603   5.184   3.367   5.063
 7420SOL    HW122604   5.208   3.461   5.089
 7420SOL    HW222605   5.168   3.313   5.145
 7421SOL     OW22606   4.162   2.254   5.223
 7421SOL    HW122607   4.244   2.198   5.232
 7421SOL    HW222608   4.081   2.196   5.227
 7422SOL     OW22609   5.327   2.309   4.461
 7422SOL    HW122610   5.253   2.355   4.411
 7422SOL    HW222611   5.378   2.377   4.514
 7423SOL     OW22612   3.955   3.575   4.207
 7423SOL    HW122613   3.989   3.652   4.261
 7423SOL    HW222614   3.999   3.575   4.117
 7424SOL     OW22615   4.851   3.203   5.414
 7424SOL    HW122616   4.898   3.203   5.502
 7424SOL    HW222617   4.803   3.116   5.403
 7425SOL     OW22618   3.954   3.296   4.262
 7425SOL    HW122619   3.928   3.392   4.262
 7425SOL    HW222620   3.883   3.242   4.307
 7426SOL     OW22621   3.964   2.953   4.610
 7426SOL    HW122622   3.978   2.869   4.662
 7426SOL    HW222623   3.909   3.017   4.665
 7427SOL     OW22624   4.344   3.648   5.163
 7427SOL    HW122625   4.252   3.631   5.198
 7427SOL    HW222626   4.372   3.740   5.189
 7428SOL     OW22627   4.330   2.826   3.847
 7428SOL    HW122628   4.337   2.910   3.793
 7428SOL    HW222629   4.376   2.839   3.935
 7429SOL     OW22630   5.318   1.976   5.204
 7429SOL    HW122631   5.300   2.043   5.132
 7429SOL    HW222632   5.315   2.022   5.293
 7430SOL     OW22633   3.846   2.505   4.287
 7430SOL    HW122634   3.801   2.417   4.304
 7430SOL    HW222635   3.845   2.559   4.371
 7431SOL     OW22636   5.566   3.629   4.083
 7431SOL    HW122637   5.620   3.600   4.163
 7431SOL    HW222638   5.596   3.719   4.054
 7432SOL     OW22639   3.751   3.458   3.841
 7432SOL    HW122640   3.732   3.362   3.862
 7432SOL    HW222641   3.718   3.516   3.916
 7433SOL     OW22642   5.413   2.784   4.336
 7433SOL    HW122643   5.508   2.755   4.344
 7433SOL    HW222644   5.405   2.849   4.261
 7434SOL     OW22645   5.365   2.970   4.156
 7434SOL    HW122646   5.451   2.972   4.104
 7434SOL    HW222647   5.379   3.017   4.244
 7435SOL     OW22648   3.837   2.599   5.321
 7435SOL    HW122649   3.925   2.586   5.366
 7435SOL    HW222650   3.824   2.696   5.299
 7436SOL     OW22651   4.337   3.227   4.450
 7436SOL    HW122652   4.288   3.140   4.459
 7436SOL    HW222653   4.314   3.270   4.363
 7437SOL     OW22654   5.017   3.090   5.147
 7437SOL    HW122655   5.054   3.017   5.089
 7437SOL    HW222656   5.069   3.095   5.232
 7438SOL     OW22657   4.533   1.866   4.226
 7438SOL    HW122658   4.573   1.957   4.217
 7438SOL    HW222659   4.433   1.874   4.232
 7439SOL     OW22660   3.921   2.838   4.988
 7439SOL    HW122661   4.010   2.793   4.974
 7439SOL    HW222662   3.848   2.773   4.969
 7440SOL     OW22663   5.249   2.861   3.914
 7440SOL    HW122664   5.186   2.785   3.927
 7440SOL    HW222665   5.297   2.879   4.000
 7441SOL     OW22666   4.911   3.654   5.340
 7441SOL    HW122667   4.935   3.714   5.264
 7441SOL    HW222668   4.918   3.559   5.310
 7442SOL     OW22669   4.041   2.113   5.525
 7442SOL    HW122670   4.112   2.184   5.531
 7442SOL    HW222671   3.953   2.152   5.553
 7443SOL     OW22672   5.190   3.279   4.677
 7443SOL    HW122673   5.131   3.285   4.757
 7443SOL    HW222674   5.175   3.191   4.631
 7444SOL     OW22675   5.391   3.576   4.296
 7444SOL    HW122676   5.350   3.553   4.208
 7444SOL    HW222677   5.373   3.502   4.361
 7445SOL     OW22678   4.322   2.591   3.994
 7445SOL    HW122679   4.346   2.660   3.926
 7445SOL    HW222680   4.244   2.624   4.048
 7446SOL     OW22681   5.005   2.207   4.668
 7446SOL    HW122682   4.919   2.157   4.655
 7446SOL    HW222683   5.067   2.153   4.724
 7447SOL     OW22684   5.300   3.524   4.031
 7447SOL    HW122685   5.389   3.570   4.034
 7447SOL    HW222686   5.279   3.500   3.936
 7448SOL     OW22687   4.531   2.467   5.189
 7448SOL    HW122688   4.484   2.464   5.278
 7448SOL    HW222689   4.480   2.412   5.123
 7449SOL     OW22690   5.118   2.331   5.398
 7449SOL    HW122691   5.098   2.374   5.486
 7449SOL    HW222692   5.196   2.269   5.407
 7450SOL     OW22693   4.697   2.752   5.296
 7450SOL    HW122694   4.743   2.668   5.267
 7450SOL    HW222695   4.641   2.786   5.221
 7451SOL     OW22696   4.715   2.272   4.966
 7451SOL    HW122697   4.638   2.306   5.020
 7451SOL    HW222698   4.681   2.221   4.887
 7452SOL     OW22699   4.765   2.563   4.153
 7452SOL    HW122700   4.791   2.559   4.249
 7452SOL    HW222701   4.680   2.512   4.139
 7453SOL     OW22702   3.800   2.673   4.513
 7453SOL    HW122703   3.899   2.661   4.522
 7453SOL    HW222704   3.776   2.768   4.534
 7454SOL     OW22705   3.854   3.683   5.295
 7454SOL    HW122706   3.844   3.668   5.394
 7454SOL    HW222707   3.768   3.719   5.259
 7455SOL     OW22708   4.589   2.210   3.919
 7455SOL    HW122709   4.648   2.273   3.870
 7455SOL    HW222710   4.608   2.116   3.890
 7456SOL     OW22711   5.443   2.447   5.555
 7456SOL    HW122712   5.417   2.536   5.519
 7456SOL    HW222713   5.441   2.379   5.482
 7457SOL     OW22714   5.086   3.006   4.269
 7457SOL    HW122715   5.169   2.977   4.221
 7457SOL    HW222716   5.037   3.073   4.213
 7458SOL     OW22717   4.274   2.058   4.609
 7458SOL    HW122718   4.269   2.053   4.709
 7458SOL    HW222719   4.276   2.154   4.580
 7459SOL     OW22720   4.732   3.318   4.201
 7459SOL    HW122721   4.686   3.390   4.149
 7459SOL    HW222722   4.728   3.338   4.299
 7460SOL     OW22723   4.075   3.663   4.577
 7460SOL    HW122724   4.125   3.577   4.583
 7460SOL    HW222725   4.140   3.740   4.574
 7461SOL     OW22726   5.519   2.928   4.597
 7461SOL    HW122727   5.457   2.913   4.521
 7461SOL    HW222728   5.467   2.939   4.682
 7462SOL     OW22729   4.951   3.412   5.230
 7462SOL    HW122730   4.957   3.335   5.294
 7462SOL    HW222731   4.899   3.386   5.150
 7463SOL     OW22732   4.045   2.805   3.966
 7463SOL    HW122733   4.127   2.844   3.924
 7463SOL    HW222734   4.018   2.723   3.917
 7464SOL     OW22735   5.182   2.597   4.452
 7464SOL    HW122736   5.177   2.532   4.527
 7464SOL    HW222737   5.262   2.656   4.465
 7465SOL     OW22738   4.185   3.128   5.451
 7465SOL    HW122739   4.135   3.129   5.365
 7465SOL    HW222740   4.122   3.110   5.527
 7466SOL     OW22741   4.835   3.638   3.961
 7466SOL    HW122742   4.775   3.576   4.011
 7466SOL    HW222743   4.866   3.594   3.876
 7467SOL     OW22744   3.926   2.147   5.222
 7467SOL    HW122745   3.846   2.207   5.209
 7467SOL    HW222746   3.916   2.098   5.308
 7468SOL     OW22747   5.356   3.239   3.805
 7468SOL    HW122748   5.324   3.333   3.795
 7468SOL    HW222749   5.280   3.176   3.793
 7469SOL     OW22750   4.188   3.605   4.047
 7469SOL    HW122751   4.221   3.644   4.133
 7469SOL    HW222752   4.264   3.598   3.982
 7470SOL     OW22753   5.124   1.969   4.150
 7470SOL    HW122754   5.100   1.932   4.060
 7470SOL    HW222755   5.223   1.985   4.154
 7471SOL     OW22756   3.973   3.647   4.965
 7471SOL    HW122757   4.030   3.582   5.015
 7471SOL    HW222758   3.957   3.614   4.872
 7472SOL     OW22759   4.664   3.560   4.628
 7472SOL    HW122760   4.744   3.503   4.649
 7472SOL    HW222761   4.615   3.520   4.551
 7473SOL     OW22762   4.106   2.562   4.204
 7473SOL    HW122763   4.151   2.472   4.201
 7473SOL    HW222764   4.012   2.551   4.237
 7474SOL     OW22765   5.271   2.084   5.453
 7474SOL    HW122766   5.266   2.121   5.545
 7474SOL    HW222767   5.199   2.015   5.441
 7475SOL     OW22768   4.338   1.984   3.841
 7475SOL    HW122769   4.436   1.962   3.848
 7475SOL    HW222770   4.307   1.967   3.748
 7476SOL     OW22771   4.505   2.126   5.473
 7476SOL    HW122772   4.572   2.065   5.516
 7476SOL    HW222773   4.432   2.145   5.538
 7477SOL     OW22774   4.612   3.376   4.919
 7477SOL    HW122775   4.589   3.351   4.825
 7477SOL    HW222776   4.673   3.307   4.958
 7478SOL     OW22777   5.075   2.452   5.157
 7478SOL    HW122778   5.103   2.409   5.242
 7478SOL    HW222779   5.100   2.548   5.158
 7479SOL     OW22780   4.527   3.264   4.648
 7479SOL    HW122781   4.617   3.278   4.606
 7479SOL    HW222782   4.456   3.266   4.577
 7480SOL     OW22783   4.646   2.365   4.623
 7480SOL    HW122784   4.621   2.356   4.527
 7480SOL    HW222785   4.694   2.283   4.654
 7481SOL     OW22786   4.263   1.926   4.236
 7481SOL    HW122787   4.182   1.927   4.294
 7481SOL    HW222788   4.266   2.009   4.181
 7482SOL     OW22789   5.158   3.050   3.765
 7482SOL    HW122790   5.190   2.974   3.822
 7482SOL    HW222791   5.066   3.077   3.795
 7483SOL     OW22792   4.021   1.897   3.895
 7483SOL    HW122793   4.070   1.981   3.874
 7483SOL    HW222794   4.083   1.832   3.940
 7484SOL     OW22795   4.659   2.098   4.204
 7484SOL    HW122796   4.611   2.139   4.126
 7484SOL    HW222797   4.758   2.096   4.185
 7485SOL     OW22798   4.800   2.545   5.188
 7485SOL    HW122799   4.720   2.484   5.191
 7485SOL    HW222800   4.881   2.492   5.164
 7486SOL     OW22801   4.951   3.432   4.517
 7486SOL    HW122802   4.972   3.506   4.452
 7486SOL    HW222803   5.019   3.432   4.590
 7487SOL     OW22804   4.183   3.014   4.465
 7487SOL    HW122805   4.112   2.987   4.530
 7487SOL    HW222806   4.157   2.986   4.372
 7488SOL     OW22807   4.995   3.659   4.315
 7488SOL    HW122808   5.039   3.723   4.251
 7488SOL    HW222809   4.945   3.711   4.385
 7489SOL     OW22810   4.756   2.411   3.740
 7489SOL    HW122811   4.715   2.493   3.701
 7489SOL    HW222812   4.820   2.437   3.813
 7490SOL     OW22813   3.802   2.418   5.110
 7490SOL    HW122814   3.894   2.417   5.069
 7490SOL    HW222815   3.796   2.492   5.177
 7491SOL     OW22816   4.285   2.084   4.871
 7491SOL    HW122817   4.323   2.000   4.908
 7491SOL    HW222818   4.197   2.103   4.915
 7492SOL     OW22819   4.590   2.316   4.366
 7492SOL    HW122820   4.558   2.388   4.304
 7492SOL    HW222821   4.614   2.235   4.313
 7493SOL     OW22822   4.741   1.901   4.477
 7493SOL    HW122823   4.669   1.906   4.408
 7493SOL    HW222824   4.717   1.832   4.546
 7494SOL     OW22825   5.153   3.035   4.591
 7494SOL    HW122826   5.098   2.951   4.584
 7494SOL    HW222827   5.179   3.064   4.499
 7495SOL     OW22828   5.190   2.452   4.716
 7495SOL    HW122829   5.160   2.357   4.723
 7495SOL    HW222830   5.263   2.468   4.782
 7496SOL     OW22831   5.581   2.695   4.101
 7496SOL    HW122832   5.623   2.631   4.165
 7496SOL    HW222833   5.543   2.644   4.023
 7497SOL     OW22834   4.212   3.247   3.898
 7497SOL    HW122835   4.125   3.232   3.945
 7497SOL    HW222836   4.195   3.273   3.803
 7498SOL     OW22837   5.388   3.142   4.381
 7498SOL    HW122838   5.487   3.150   4.395
 7498SOL    HW222839   5.343   3.226   4.412
 7499SOL     OW22840   5.114   2.437   3.802
 7499SOL    HW122841   5.060   2.416   3.883
 7499SOL    HW222842   5.205   2.396   3.811
 7500SOL     OW22843   4.251   2.118   4.052
 7500SOL    HW122844   4.278   2.059   3.977
 7500SOL    HW222845   4.251   2.213   4.021
 7501SOL     OW22846   5.478   3.085   5.312
 7501SOL    HW122847   5.569   3.046   5.299
 7501SOL    HW222848   5.486   3.181   5.336
 7502SOL     OW22849   4.788   3.209   5.064
 7502SOL    HW122850   4.708   3.186   5.119
 7502SOL    HW222851   4.871   3.183   5.113
 7503SOL     OW22852   5.316   3.491   5.349
 7503SOL    HW122853   5.343   3.525   5.259
 7503SOL    HW222854   5.395   3.453   5.395
 7504SOL     OW22855   4.835   3.057   4.824
 7504SOL    HW122856   4.795   3.101   4.905
 7504SOL    HW222857   4.794   3.094   4.741
 7505SOL     OW22858   5.362   2.961   4.803
 7505SOL    HW122859   5.367   3.042   4.862
 7505SOL    HW222860   5.276   2.963   4.752
 7506SOL     OW22861   4.639   1.951   5.126
 7506SOL    HW122862   4.664   1.931   5.031
 7506SOL    HW222863   4.711   2.007   5.168
 7507SOL     OW22864   4.704   2.978   5.443
 7507SOL    HW122865   4.605   2.984   5.453
 7507SOL    HW222866   4.727   2.898   5.387
 7508SOL     OW22867   4.429   2.912   4.092
 7508SOL    HW122868   4.415   2.919   4.191
 7508SOL    HW222869   4.513   2.861   4.074
 7509SOL     OW22870   4.134   2.675   4.975
 7509SOL    HW122871   4.220   2.687   5.025
 7509SOL    HW222872   4.092   2.588   5.002
 7510SOL     OW22873   4.998   2.248   4.986
 7510SOL    HW122874   5.019   2.322   5.050
 7510SOL    HW222875   4.909   2.265   4.943
 7511SOL     OW22876   3.788   3.426   5.055
 7511SOL    HW122877   3.742   3.508   5.021
 7511SOL    HW222878   3.886   3.445   5.064
 7512SOL     OW22879   4.091   2.962   4.225
 7512SOL    HW122880   4.084   3.045   4.169
 7512SOL    HW222881   4.095   2.882   4.165
 7513SOL     OW22882   4.290   2.399   4.589
 7513SOL    HW122883   4.302   2.465   4.515
 7513SOL    HW222884   4.336   2.433   4.672
 7514SOL     OW22885   4.976   3.210   4.112
 7514SOL    HW122886   5.026   3.287   4.152
 7514SOL    HW222887   4.881   3.212   4.144
 7515SOL     OW22888   4.996   3.307   4.866
 7515SOL    HW122889   5.043   3.320   4.953
 7515SOL    HW222890   4.930   3.233   4.875
 7516SOL     OW22891   5.306   2.501   4.196
 7516SOL    HW122892   5.275   2.562   4.269
 7516SOL    HW222893   5.356   2.553   4.127
 7517SOL     OW22894   4.078   3.372   5.053
 7517SOL    HW122895   4.057   3.328   4.966
 7517SOL    HW222896   4.175   3.398   5.056
 7518SOL     OW22897   4.126   2.613   5.322
 7518SOL    HW122898   4.194   2.668   5.275
 7518SOL    HW222899   4.166   2.525   5.349
 7519SOL     OW22900   5.311   2.641   5.394
 7519SOL    HW122901   5.219   2.679   5.389
 7519SOL    HW222902   5.371   2.688   5.329
 7520SOL     OW22903   4.737   1.967   5.494
 7520SOL    HW122904   4.743   2.052   5.442
 7520SOL    HW222905   4.769   1.891   5.437
 7521SOL     OW22906   4.228   1.912   5.464
 7521SOL    HW122907   4.186   1.855   5.394
 7521SOL    HW222908   4.162   1.981   5.496
 7522SOL     OW22909   4.297   2.732   4.753
 7522SOL    HW122910   4.341   2.821   4.744
 7522SOL    HW222911   4.234   2.732   4.830
 7523SOL     OW22912   5.084   2.724   4.769
 7523SOL    HW122913   5.009   2.724   4.703
 7523SOL    HW222914   5.121   2.632   4.778
 7524SOL     OW22915   4.933   2.387   3.999
 7524SOL    HW122916   4.946   2.303   4.053
 7524SOL    HW222917   4.904   2.461   4.059
 7525SOL     OW22918   4.031   2.075   4.955
 7525SOL    HW122919   4.008   2.112   5.045
 7525SOL    HW222920   4.001   1.980   4.949
 7526SOL     OW22921   3.761   3.172   5.006
 7526SOL    HW122922   3.814   3.123   5.074
 7526SOL    HW222923   3.783   3.270   5.011
 7527SOL     OW22924   4.456   2.496   4.788
 7527SOL    HW122925   4.515   2.470   4.712
 7527SOL    HW222926   4.428   2.592   4.777
 7528SOL     OW22927   5.452   2.797   5.578
 7528SOL    HW122928   5.406   2.790   5.489
 7528SOL    HW222929   5.390   2.841   5.644
 7529SOL     OW22930   4.031   1.925   4.342
 7529SOL    HW122931   4.020   2.019   4.375
 7529SOL    HW222932   4.026   1.862   4.419
 7530SOL     OW22933   5.346   2.229   4.098
 7530SOL    HW122934   5.348   2.153   4.162
 7530SOL    HW222935   5.298   2.306   4.138
 7531SOL     OW22936   4.747   2.628   4.690
 7531SOL    HW122937   4.762   2.649   4.786
 7531SOL    HW222938   4.717   2.533   4.681
 7532SOL     OW22939   4.704   3.435   5.424
 7532SOL    HW122940   4.684   3.479   5.336
 7532SOL    HW222941   4.743   3.344   5.408
 7533SOL     OW22942   5.583   3.380   5.329
 7533SOL    HW122943   5.597   3.407   5.234
 7533SOL    HW222944   5.666   3.402   5.382
 7534SOL     OW22945   4.074   2.760   5.528
 7534SOL    HW122946   4.150   2.804   5.576
 7534SOL    HW222947   4.109   2.713   5.446
 7535SOL     OW22948   5.264   2.136   3.849
 7535SOL    HW122949   5.203   2.061   3.872
 7535SOL    HW222950   5.286   2.188   3.932
 7536SOL     OW22951   5.027   2.700   3.766
 7536SOL    HW122952   5.061   2.607   3.781
 7536SOL    HW222953   5.045   2.727   3.671
 7537SOL     OW22954   4.792   3.195   4.573
 7537SOL    HW122955   4.799   3.111   4.518
 7537SOL    HW222956   4.854   3.264   4.537
 7538SOL     OW22957   4.043   2.672   4.673
 7538SOL    HW122958   4.136   2.708   4.678
 7538SOL    HW222959   4.037   2.587   4.725
 7539SOL     OW22960   4.063   2.371   4.730
 7539SOL    HW122961   4.011   2.288   4.713
 7539SOL    HW222962   4.140   2.376   4.666
 7540SOL     OW22963   4.862   2.242   5.402
 7540SOL    HW122964   4.817   2.305   5.466
 7540SOL    HW222965   4.955   2.273   5.385
 7541SOL     OW22966   4.884   2.069   5.201
 7541SOL    HW122967   4.884   2.133   5.278
 7541SOL    HW222968   4.912   2.117   5.118
 7542SOL     OW22969   3.732   3.188   3.924
 7542SOL    HW122970   3.639   3.209   3.893
 7542SOL    HW222971   3.742   3.089   3.937
 7543SOL     OW22972   3.812   3.663   4.651
 7543SOL    HW122973   3.770   3.577   4.624
 7543SOL    HW222974   3.906   3.666   4.617
 7544SOL     OW22975   4.228   3.430   4.634
 7544SOL    HW122976   4.294   3.504   4.643
 7544SOL    HW222977   4.272   3.351   4.592
 7545SOL     OW22978   4.726   2.658   4.962
 7545SOL    HW122979   4.767   2.626   5.048
 7545SOL    HW222980   4.630   2.631   4.959
 7546SOL     OW22981   3.764   2.406   4.838
 7546SOL    HW122982   3.849   2.373   4.797
 7546SOL    HW222983   3.777   2.421   4.936
 7547SOL     OW22984   3.913   2.382   5.446
 7547SOL    HW122985   3.972   2.342   5.376
 7547SOL    HW222986   3.855   2.453   5.405
 7548SOL     OW22987   5.093   2.812   5.384
 7548SOL    HW122988   5.132   2.901   5.404
 7548SOL    HW222989   5.103   2.792   5.287
 7549SOL     OW22990   4.539   2.434   4.049
 7549SOL    HW122991   4.546   2.345   4.003
 7549SOL    HW222992   4.445   2.468   4.041
 7550SOL     OW22993   5.381   2.466   4.930
 7550SOL    HW122994   5.343   2.397   4.992
 7550SOL    HW222995   5.463   2.430   4.886
 7551SOL     OW22996   3.976   3.426   5.468
 7551SOL    HW122997   3.946   3.483   5.544
 7551SOL    HW222998   3.969   3.329   5.494
 7552SOL     OW22999   4.395   2.326   4.993
 7552SOL    HW123000   4.361   2.237   4.963
 7552SOL    HW223001   4.421   2.380   4.913
 7553SOL     OW23002   4.654   3.540   5.189
 7553SOL    HW123003   4.630   3.522   5.094
 7553SOL    HW223004   4.684   3.634   5.199
 7554SOL     OW23005   4.197   2.362   3.915
 7554SOL    HW123006   4.258   2.442   3.919
 7554SOL    HW223007   4.102   2.393   3.922
 7555SOL     OW23008   3.883   2.999   5.190
 7555SOL    HW123009   3.905   2.938   5.266
 7555SOL    HW223010   3.893   2.950   5.104
 7556SOL     OW23011   5.071   2.921   4.958
 7556SOL    HW123012   5.095   2.858   4.884
 7556SOL    HW223013   4.981   2.961   4.940
 7557SOL     OW23014   5.026   2.717   4.033
 7557SOL    HW123015   4.940   2.686   4.075
 7557SOL    HW223016   5.022   2.703   3.934
 7558SOL     OW23017   5.483   3.609   4.878
 7558SOL    HW123018   5.544   3.639   4.805
 7558SOL    HW223019   5.445   3.520   4.856
 7559SOL     OW23020   4.976   3.593   4.852
 7559SOL    HW123021   5.060   3.598   4.798
 7559SOL    HW223022   4.953   3.497   4.870
 7560SOL     OW23023   3.807   3.120   4.746
 7560SOL    HW123024   3.802   3.119   4.846
 7560SOL    HW223025   3.724   3.079   4.708
 7561SOL     OW23026   4.412   3.524   5.440
 7561SOL    HW123027   4.356   3.605   5.449
 7561SOL    HW223028   4.464   3.528   5.354
 7562SOL     OW23029   5.450   1.997   4.247
 7562SOL    HW123030   5.523   1.980   4.180
 7562SOL    HW223031   5.419   1.910   4.285
 7563SOL     OW23032   5.112   3.435   4.201
 7563SOL    HW123033   5.179   3.447   4.127
 7563SOL    HW223034   5.072   3.524   4.224
 7564SOL     OW23035   3.854   3.656   5.575
 7564SOL    HW123036   3.813   3.582   5.628
 7564SOL    HW223037   3.918   3.707   5.633
 7565SOL     OW23038   5.004   2.789   4.396
 7565SOL    HW123039   5.064   2.708   4.398
 7565SOL    HW223040   5.044   2.858   4.336
 7566SOL     OW23041   4.554   3.135   5.146
 7566SOL    HW123042   4.549   3.168   5.241
 7566SOL    HW223043   4.468   3.154   5.100
 7567SOL     OW23044   4.396   3.478   3.878
 7567SOL    HW123045   4.405   3.488   3.779
 7567SOL    HW223046   4.356   3.389   3.899
 7568SOL     OW23047   5.374   3.582   5.118
 7568SOL    HW123048   5.427   3.592   5.034
 7568SOL    HW223049   5.347   3.672   5.152
 7569SOL     OW23050   5.565   2.037   4.687
 7569SOL    HW123051   5.604   1.952   4.651
 7569SOL    HW223052   5.467   2.039   4.668
 7570SOL     OW23053   3.987   2.188   4.444
 7570SOL    HW123054   3.908   2.239   4.410
 7570SOL    HW223055   3.978   2.173   4.542
 7571SOL     OW23056   4.918   3.474   3.755
 7571SOL    HW123057   4.924   3.381   3.792
 7571SOL    HW223058   4.859   3.474   3.675
 7572SOL     OW23059   4.546   2.864   5.096
 7572SOL    HW123060   4.586   2.863   5.004
 7572SOL    HW223061   4.556   2.956   5.136
 7573SOL     OW23062   4.640   2.772   4.015
 7573SOL    HW123063   4.703   2.810   3.947
 7573SOL    HW223064   4.680   2.689   4.054
 7574SOL     OW23065   5.228   3.469   3.768
 7574SOL    HW123066   5.136   3.506   3.775
 7574SOL    HW223067   5.266   3.489   3.678
 7575SOL     OW23068   4.096   3.150   5.214
 7575SOL    HW123069   4.083   3.243   5.180
 7575SOL    HW223070   4.012   3.098   5.201
 7576SOL     OW23071   5.338   3.154   5.013
 7576SOL    HW123072   5.398   3.157   5.093
 7576SOL    HW223073   5.263   3.218   5.026
 7577SOL     OW23074   4.763   2.960   4.420
 7577SOL    HW123075   4.693   2.913   4.474
 7577SOL    HW223076   4.822   2.892   4.377
 7578SOL     OW23077   4.738   2.098   4.695
 7578SOL    HW123078   4.730   2.062   4.602
 7578SOL    HW223079   4.736   2.022   4.760
 7579SOL     OW23080   4.314   3.349   4.215
 7579SOL    HW123081   4.356   3.291   4.145
 7579SOL    HW223082   4.270   3.428   4.171
 7580SOL     OW23083   5.433   2.247   5.105
 7580SOL    HW123084   5.506   2.316   5.109
 7580SOL    HW223085   5.461   2.172   5.046
 7581SOL     OW23086   3.979   3.210   4.014
 7581SOL    HW123087   3.883   3.211   3.987
 7581SOL    HW223088   3.991   3.263   4.098
 7582SOL     OW23089   3.829   2.875   5.450
 7582SOL    HW123090   3.752   2.842   5.504
 7582SOL    HW223091   3.914   2.845   5.492
 7583SOL     OW23092   4.396   2.065   5.213
 7583SOL    HW123093   4.486   2.049   5.173
 7583SOL    HW223094   4.404   2.070   5.312
 7584SOL     OW23095   3.799   2.207   3.757
 7584SOL    HW123096   3.707   2.179   3.728
 7584SOL    HW223097   3.830   2.284   3.701
 7585SOL     OW23098   5.164   2.718   5.122
 7585SOL    HW123099   5.107   2.770   5.059
 7585SOL    HW223100   5.260   2.730   5.098
 7586SOL     OW23101   3.796   2.028   4.042
 7586SOL    HW123102   3.779   2.111   3.988
 7586SOL    HW223103   3.886   1.991   4.020
 7587SOL     OW23104   4.907   3.197   3.843
 7587SOL    HW123105   4.808   3.186   3.845
 7587SOL    HW223106   4.941   3.212   3.936
 7588SOL     OW23107   4.337   2.704   5.155
 7588SOL    HW123108   4.393   2.785   5.138
 7588SOL    HW223109   4.396   2.624   5.158
 7589SOL     OW23110   5.217   3.629   4.683
 7589SOL    HW123111   5.250   3.693   4.614
 7589SOL    HW223112   5.283   3.623   4.758
 7590SOL     OW23113   4.440   2.427   5.432
 7590SOL    HW123114   4.459   2.492   5.506
 7590SOL    HW223115   4.500   2.347   5.441
 7591SOL     OW23116   5.174   3.082   5.357
 7591SOL    HW123117   5.165   3.072   5.456
 7591SOL    HW223118   5.270   3.075   5.331
 7592SOL     OW23119   4.114   3.603   5.284
 7592SOL    HW123120   4.023   3.644   5.282
 7592SOL    HW223121   4.107   3.509   5.316
 7593SOL     OW23122   5.398   2.745   4.978
 7593SOL    HW123123   5.371   2.656   4.941
 7593SOL    HW223124   5.399   2.813   4.905
 7594SOL     OW23125   4.949   2.187   4.173
 7594SOL    HW123126   5.014   2.113   4.162
 7594SOL    HW223127   4.969   2.237   4.257
 7595SOL     OW23128   4.318   2.607   4.376
 7595SOL    HW123129   4.368   2.692   4.357
 7595SOL    HW223130   4.230   2.609   4.328
 7596SOL     OW23131   5.501   2.204   5.366
 7596SOL    HW123132   5.484   2.235   5.272
 7596SOL    HW223133   5.417   2.167   5.404
 7597SOL     OW23134   5.454   2.796   5.241
 7597SOL    HW123135   5.492   2.887   5.256
 7597SOL    HW223136   5.446   2.779   5.142
 7598SOL     OW23137   4.583   3.236   3.740
 7598SOL    HW123138   4.537   3.251   3.828
 7598SOL    HW223139   4.627   3.321   3.710
 7599SOL     OW23140   4.385   3.652   4.677
 7599SOL    HW123141   4.339   3.740   4.664
 7599SOL    HW223142   4.484   3.664   4.670
 7600SOL     OW23143   4.583   2.818   4.585
 7600SOL    HW123144   4.637   2.749   4.633
 7600SOL    HW223145   4.551   2.887   4.651
 7601SOL     OW23146   4.807   2.846   3.811
 7601SOL    HW123147   4.784   2.899   3.729
 7601SOL    HW223148   4.888   2.790   3.792
 7602SOL     OW23149   5.585   3.431   4.575
 7602SOL    HW123150   5.514   3.419   4.505
 7602SOL    HW223151   5.586   3.352   4.635
 7603SOL     OW23152   3.945   3.176   5.568
 7603SOL    HW123153   3.880   3.103   5.547
 7603SOL    HW223154   3.949   3.190   5.666
 7604SOL     OW23155   3.803   3.102   4.377
 7604SOL    HW123156   3.802   3.055   4.465
 7604SOL    HW223157   3.885   3.074   4.326
 7605SOL     OW23158   4.396   3.253   5.348
 7605SOL    HW123159   4.318   3.203   5.386
 7605SOL    HW223160   4.393   3.348   5.379
 7606SOL     OW23161   5.548   2.054   4.951
 7606SOL    HW123162   5.544   1.964   4.995
 7606SOL    HW223163   5.551   2.043   4.852
 7607SOL     OW23164   4.152   2.286   4.244
 7607SOL    HW123165   4.182   2.214   4.182
 7607SOL    HW223166   4.113   2.246   4.327
 7608SOL     OW23167   5.429   3.349   4.828
 7608SOL    HW123168   5.336   3.324   4.801
 7608SOL    HW223169   5.455   3.299   4.910
 7609SOL     OW23170   4.041   2.409   5.004
 7609SOL    HW123171   4.079   2.350   5.076
 7609SOL    HW223172   4.081   2.383   4.916
 7610SOL     OW23173   4.536   3.448   4.411
 7610SOL    HW123174   4.568   3.458   4.317
 7610SOL    HW223175   4.457   3.386   4.413
 7611SOL     OW23176   5.148   2.076   4.836
 7611SOL    HW123177   5.200   2.011   4.891
 7611SOL    HW223178   5.099   2.139   4.897
 7612SOL     OW23179   4.725   1.896   4.878
 7612SOL    HW123180   4.662   1.824   4.847
 7612SOL    HW223181   4.818   1.860   4.878
 7613SOL     OW23182   4.494   3.192   4.025
 7613SOL    HW123183   4.448   3.105   4.042
 7613SOL    HW223184   4.585   3.189   4.066
 7614SOL     OW23185   4.342   3.429   5.008
 7614SOL    HW123186   4.337   3.511   5.065
 7614SOL    HW223187   4.431   3.426   4.963
 7615SOL     OW23188   5.076   1.914   3.892
 7615SOL    HW123189   5.111   1.873   3.808
 7615SOL    HW223190   4.986   1.876   3.912
 7616SOL     OW23191   5.024   2.315   4.415
 7616SOL    HW123192   4.965   2.395   4.419
 7616SOL    HW223193   5.039   2.280   4.508
 7617SOL     OW23194   5.317   2.083   4.606
 7617SOL    HW123195   5.233   2.082   4.660
 7617SOL    HW223196   5.319   2.166   4.550
 7618SOL     OW23197   3.763   2.939   4.024
 7618SOL    HW123198   3.862   2.928   4.015
 7618SOL    HW223199   3.723   2.853   4.056
 7619SOL     OW23200   4.599   3.508   4.061
 7619SOL    HW123201   4.522   3.473   4.007
 7619SOL    HW223202   4.567   3.579   4.123
 7620SOL     OW23203   3.954   2.490   5.699
 7620SOL    HW123204   3.861   2.488   5.736
 7620SOL    HW223205   3.955   2.451   5.607
 7621SOL     OW23206   3.949   2.137   6.582
 7621SOL    HW123207   3.984   2.120   6.674
 7621SOL    HW223208   3.861   2.092   6.570
 7622SOL     OW23209   3.743   2.230   6.233
 7622SOL    HW123210   3.661   2.273   6.272
 7622SOL    HW223211   3.715   2.157   6.170
 7623SOL     OW23212   5.279   3.373   6.289
 7623SOL    HW123213   5.222   3.357   6.370
 7623SOL    HW223214   5.220   3.383   6.209
 7624SOL     OW23215   4.859   2.565   6.303
 7624SOL    HW123216   4.916   2.643   6.278
 7624SOL    HW223217   4.799   2.591   6.379
 7625SOL     OW23218   5.479   2.469   5.817
 7625SOL    HW123219   5.467   2.456   5.718
 7625SOL    HW223220   5.449   2.388   5.866
 7626SOL     OW23221   4.409   2.874   6.251
 7626SOL    HW123222   4.478   2.858   6.321
 7626SOL    HW223223   4.336   2.931   6.289
 7627SOL     OW23224   5.327   2.309   6.323
 7627SOL    HW123225   5.253   2.355   6.273
 7627SOL    HW223226   5.378   2.377   6.376
 7628SOL     OW23227   3.955   3.575   6.069
 7628SOL    HW123228   3.989   3.652   6.123
 7628SOL    HW223229   3.999   3.575   5.979
 7629SOL     OW23230   3.954   3.296   6.124
 7629SOL    HW123231   3.928   3.392   6.124
 7629SOL    HW223232   3.883   3.242   6.169
 7630SOL     OW23233   4.330   2.826   5.709
 7630SOL    HW123234   4.337   2.910   5.655
 7630SOL    HW223235   4.376   2.839   5.797
 7631SOL     OW23236   3.846   2.505   6.149
 7631SOL    HW123237   3.801   2.417   6.166
 7631SOL    HW223238   3.845   2.559   6.233
 7632SOL     OW23239   5.566   3.629   5.945
 7632SOL    HW123240   5.620   3.600   6.025
 7632SOL    HW223241   5.596   3.719   5.916
 7633SOL     OW23242   3.751   3.458   5.703
 7633SOL    HW123243   3.732   3.362   5.724
 7633SOL    HW223244   3.718   3.516   5.778
 7634SOL     OW23245   5.413   2.784   6.198
 7634SOL    HW123246   5.508   2.755   6.206
 7634SOL    HW223247   5.405   2.849   6.123
 7635SOL     OW23248   5.365   2.970   6.018
 7635SOL    HW123249   5.451   2.972   5.966
 7635SOL    HW223250   5.379   3.017   6.106
 7636SOL     OW23251   4.337   3.227   6.312
 7636SOL    HW123252   4.288   3.140   6.321
 7636SOL    HW223253   4.314   3.270   6.225
 7637SOL     OW23254   4.533   1.866   6.088
 7637SOL    HW123255   4.573   1.957   6.079
 7637SOL    HW223256   4.433   1.874   6.094
 7638SOL     OW23257   5.249   2.861   5.776
 7638SOL    HW123258   5.186   2.785   5.789
 7638SOL    HW223259   5.297   2.879   5.862
 7639SOL     OW23260   5.391   3.576   6.158
 7639SOL    HW123261   5.350   3.553   6.070
 7639SOL    HW223262   5.373   3.502   6.223
 7640SOL     OW23263   4.322   2.591   5.856
 7640SOL    HW123264   4.346   2.660   5.788
 7640SOL    HW223265   4.244   2.624   5.910
 7641SOL     OW23266   5.005   2.207   6.530
 7641SOL    HW123267   4.919   2.157   6.517
 7641SOL    HW223268   5.067   2.153   6.586
 7642SOL     OW23269   5.300   3.524   5.893
 7642SOL    HW123270   5.389   3.570   5.896
 7642SOL    HW223271   5.279   3.500   5.798
 7643SOL     OW23272   4.715   2.272   6.828
 7643SOL    HW123273   4.638   2.306   6.882
 7643SOL    HW223274   4.681   2.221   6.749
 7644SOL     OW23275   4.765   2.563   6.015
 7644SOL    HW123276   4.791   2.559   6.111
 7644SOL    HW223277   4.680   2.512   6.001
 7645SOL     OW23278   4.589   2.210   5.781
 7645SOL    HW123279   4.648   2.273   5.732
 7645SOL    HW223280   4.608   2.116   5.752
 7646SOL     OW23281   5.086   3.006   6.131
 7646SOL    HW123282   5.169   2.977   6.083
 7646SOL    HW223283   5.037   3.073   6.075
 7647SOL     OW23284   4.732   3.318   6.063
 7647SOL    HW123285   4.686   3.390   6.011
 7647SOL    HW223286   4.728   3.338   6.161
 7648SOL     OW23287   4.075   3.663   6.439
 7648SOL    HW123288   4.125   3.577   6.445
 7648SOL    HW223289   4.140   3.740   6.436
 7649SOL     OW23290   4.045   2.805   5.828
 7649SOL    HW123291   4.127   2.844   5.786
 7649SOL    HW223292   4.018   2.723   5.779
 7650SOL     OW23293   5.182   2.597   6.314
 7650SOL    HW123294   5.177   2.532   6.389
 7650SOL    HW223295   5.262   2.656   6.327
 7651SOL     OW23296   4.835   3.638   5.823
 7651SOL    HW123297   4.775   3.576   5.873
 7651SOL    HW223298   4.866   3.594   5.738
 7652SOL     OW23299   5.356   3.239   5.667
 7652SOL    HW123300   5.324   3.333   5.657
 7652SOL    HW223301   5.280   3.176   5.655
 7653SOL     OW23302   4.188   3.605   5.909
 7653SOL    HW123303   4.221   3.644   5.995
 7653SOL    HW223304   4.264   3.598   5.844
 7654SOL     OW23305   5.124   1.969   6.012
 7654SOL    HW123306   5.100   1.932   5.922
 7654SOL    HW223307   5.223   1.985   6.016
 7655SOL     OW23308   4.664   3.560   6.490
 7655SOL    HW123309   4.744   3.503   6.511
 7655SOL    HW223310   4.615   3.520   6.413
 7656SOL     OW23311   4.106   2.562   6.066
 7656SOL    HW123312   4.151   2.472   6.063
 7656SOL    HW223313   4.012   2.551   6.099
 7657SOL     OW23314   4.338   1.984   5.703
 7657SOL    HW123315   4.436   1.962   5.710
 7657SOL    HW223316   4.307   1.967   5.610
 7658SOL     OW23317   4.527   3.264   6.510
 7658SOL    HW123318   4.617   3.278   6.468
 7658SOL    HW223319   4.456   3.266   6.439
 7659SOL     OW23320   4.263   1.926   6.098
 7659SOL    HW123321   4.182   1.927   6.156
 7659SOL    HW223322   4.266   2.009   6.043
 7660SOL     OW23323   5.158   3.050   5.627
 7660SOL    HW123324   5.190   2.974   5.684
 7660SOL    HW223325   5.066   3.077   5.657
 7661SOL     OW23326   4.021   1.897   5.757
 7661SOL    HW123327   4.070   1.981   5.736
 7661SOL    HW223328   4.083   1.832   5.802
 7662SOL     OW23329   4.659   2.098   6.066
 7662SOL    HW123330   4.611   2.139   5.988
 7662SOL    HW223331   4.758   2.096   6.047
 7663SOL     OW23332   4.951   3.432   6.379
 7663SOL    HW123333   4.972   3.506   6.314
 7663SOL    HW223334   5.019   3.432   6.452
 7664SOL     OW23335   4.183   3.014   6.327
 7664SOL    HW123336   4.112   2.987   6.392
 7664SOL    HW223337   4.157   2.986   6.234
 7665SOL     OW23338   4.995   3.659   6.177
 7665SOL    HW123339   5.039   3.723   6.113
 7665SOL    HW223340   4.945   3.711   6.247
 7666SOL     OW23341   4.756   2.411   5.602
 7666SOL    HW123342   4.715   2.493   5.563
 7666SOL    HW223343   4.820   2.437   5.675
 7667SOL     OW23344   4.590   2.316   6.228
 7667SOL    HW123345   4.558   2.388   6.166
 7667SOL    HW223346   4.614   2.235   6.175
 7668SOL     OW23347   4.741   1.901   6.339
 7668SOL    HW123348   4.669   1.906   6.270
 7668SOL    HW223349   4.717   1.832   6.408
 7669SOL     OW23350   5.153   3.035   6.453
 7669SOL    HW123351   5.098   2.951   6.446
 7669SOL    HW223352   5.179   3.064   6.361
 7670SOL     OW23353   5.190   2.452   6.578
 7670SOL    HW123354   5.160   2.357   6.585
 7670SOL    HW223355   5.263   2.468   6.644
 7671SOL     OW23356   5.581   2.695   5.963
 7671SOL    HW123357   5.623   2.631   6.027
 7671SOL    HW223358   5.543   2.644   5.885
 7672SOL     OW23359   4.212   3.247   5.760
 7672SOL    HW123360   4.125   3.232   5.807
 7672SOL    HW223361   4.195   3.273   5.665
 7673SOL     OW23362   5.388   3.142   6.243
 7673SOL    HW123363   5.487   3.150   6.257
 7673SOL    HW223364   5.343   3.226   6.274
 7674SOL     OW23365   5.114   2.437   5.664
 7674SOL    HW123366   5.060   2.416   5.745
 7674SOL    HW223367   5.205   2.396   5.673
 7675SOL     OW23368   4.251   2.118   5.914
 7675SOL    HW123369   4.278   2.059   5.839
 7675SOL    HW223370   4.251   2.213   5.883
 7676SOL     OW23371   5.362   2.961   6.665
 7676SOL    HW123372   5.367   3.042   6.724
 7676SOL    HW223373   5.276   2.963   6.614
 7677SOL     OW23374   4.429   2.912   5.954
 7677SOL    HW123375   4.415   2.919   6.053
 7677SOL    HW223376   4.513   2.861   5.936
 7678SOL     OW23377   4.091   2.962   6.087
 7678SOL    HW123378   4.084   3.045   6.031
 7678SOL    HW223379   4.095   2.882   6.027
 7679SOL     OW23380   4.290   2.399   6.451
 7679SOL    HW123381   4.302   2.465   6.377
 7679SOL    HW223382   4.336   2.433   6.534
 7680SOL     OW23383   4.976   3.210   5.974
 7680SOL    HW123384   5.026   3.287   6.014
 7680SOL    HW223385   4.881   3.212   6.006
 7681SOL     OW23386   5.306   2.501   6.058
 7681SOL    HW123387   5.275   2.562   6.131
 7681SOL    HW223388   5.356   2.553   5.989
 7682SOL     OW23389   4.933   2.387   5.861
 7682SOL    HW123390   4.946   2.303   5.915
 7682SOL    HW223391   4.904   2.461   5.921
 7683SOL     OW23392   4.031   1.925   6.204
 7683SOL    HW123393   4.020   2.019   6.237
 7683SOL    HW223394   4.026   1.862   6.281
 7684SOL     OW23395   5.346   2.229   5.960
 7684SOL    HW123396   5.348   2.153   6.024
 7684SOL    HW223397   5.298   2.306   6.000
 7685SOL     OW23398   5.264   2.136   5.711
 7685SOL    HW123399   5.203   2.061   5.734
 7685SOL    HW223400   5.286   2.188   5.794
 7686SOL     OW23401   5.027   2.700   5.628
 7686SOL    HW123402   5.061   2.607   5.643
 7686SOL    HW223403   5.045   2.727   5.533
 7687SOL     OW23404   4.792   3.195   6.435
 7687SOL    HW123405   4.799   3.111   6.380
 7687SOL    HW223406   4.854   3.264   6.399
 7688SOL     OW23407   3.732   3.188   5.786
 7688SOL    HW123408   3.639   3.209   5.755
 7688SOL    HW223409   3.742   3.089   5.799
 7689SOL     OW23410   3.812   3.663   6.513
 7689SOL    HW123411   3.770   3.577   6.486
 7689SOL    HW223412   3.906   3.666   6.479
 7690SOL     OW23413   4.539   2.434   5.911
 7690SOL    HW123414   4.546   2.345   5.865
 7690SOL    HW223415   4.445   2.468   5.903
 7691SOL     OW23416   4.197   2.362   5.777
 7691SOL    HW123417   4.258   2.442   5.781
 7691SOL    HW223418   4.102   2.393   5.784
 7692SOL     OW23419   5.026   2.717   5.895
 7692SOL    HW123420   4.940   2.686   5.937
 7692SOL    HW223421   5.022   2.703   5.796
 7693SOL     OW23422   5.450   1.997   6.109
 7693SOL    HW123423   5.523   1.980   6.042
 7693SOL    HW223424   5.419   1.910   6.147
 7694SOL     OW23425   5.112   3.435   6.063
 7694SOL    HW123426   5.179   3.447   5.989
 7694SOL    HW223427   5.072   3.524   6.086
 7695SOL     OW23428   5.004   2.789   6.258
 7695SOL    HW123429   5.064   2.708   6.260
 7695SOL    HW223430   5.044   2.858   6.198
 7696SOL     OW23431   4.396   3.478   5.740
 7696SOL    HW123432   4.405   3.488   5.641
 7696SOL    HW223433   4.356   3.389   5.761
 7697SOL     OW23434   5.565   2.037   6.549
 7697SOL    HW123435   5.604   1.952   6.513
 7697SOL    HW223436   5.467   2.039   6.530
 7698SOL     OW23437   3.987   2.188   6.306
 7698SOL    HW123438   3.908   2.239   6.272
 7698SOL    HW223439   3.978   2.173   6.404
 7699SOL     OW23440   4.918   3.474   5.617
 7699SOL    HW123441   4.924   3.381   5.654
 7699SOL    HW223442   4.859   3.474   5.537
 7700SOL     OW23443   4.640   2.772   5.877
 7700SOL    HW123444   4.703   2.810   5.809
 7700SOL    HW223445   4.680   2.689   5.916
 7701SOL     OW23446   5.228   3.469   5.630
 7701SOL    HW123447   5.136   3.506   5.637
 7701SOL    HW223448   5.266   3.489   5.540
 7702SOL     OW23449   4.763   2.960   6.282
 7702SOL    HW123450   4.693   2.913   6.336
 7702SOL    HW223451   4.822   2.892   6.239
 7703SOL     OW23452   4.314   3.349   6.077
 7703SOL    HW123453   4.356   3.291   6.007
 7703SOL    HW223454   4.270   3.428   6.033
 7704SOL     OW23455   3.979   3.210   5.876
 7704SOL    HW123456   3.883   3.211   5.849
 7704SOL    HW223457   3.991   3.263   5.960
 7705SOL     OW23458   3.799   2.207   5.619
 7705SOL    HW123459   3.707   2.179   5.590
 7705SOL    HW223460   3.830   2.284   5.563
 7706SOL     OW23461   3.796   2.028   5.904
 7706SOL    HW123462   3.779   2.111   5.850
 7706SOL    HW223463   3.886   1.991   5.882
 7707SOL     OW23464   4.907   3.197   5.705
 7707SOL    HW123465   4.808   3.186   5.707
 7707SOL    HW223466   4.941   3.212   5.798
 7708SOL     OW23467   5.217   3.629   6.545
 7708SOL    HW123468   5.250   3.693   6.476
 7708SOL    HW223469   5.283   3.623   6.620
 7709SOL     OW23470   4.949   2.187   6.035
 7709SOL    HW123471   5.014   2.113   6.024
 7709SOL    HW223472   4.969   2.237   6.119
 7710SOL     OW23473   4.318   2.607   6.238
 7710SOL    HW123474   4.368   2.692   6.219
 7710SOL    HW223475   4.230   2.609   6.190
 7711SOL     OW23476   4.583   3.236   5.602
 7711SOL    HW123477   4.537   3.251   5.690
 7711SOL    HW223478   4.627   3.321   5.572
 7712SOL     OW23479   4.385   3.652   6.539
 7712SOL    HW123480   4.339   3.740   6.526
 7712SOL    HW223481   4.484   3.664   6.532
 7713SOL     OW23482   4.583   2.818   6.447
 7713SOL    HW123483   4.637   2.749   6.495
 7713SOL    HW223484   4.551   2.887   6.513
 7714SOL     OW23485   4.807   2.846   5.673
 7714SOL    HW123486   4.784   2.899   5.591
 7714SOL    HW223487   4.888   2.790   5.654
 7715SOL     OW23488   3.803   3.102   6.239
 7715SOL    HW123489   3.802   3.055   6.327
 7715SOL    HW223490   3.885   3.074   6.188
 7716SOL     OW23491   5.548   2.054   6.813
 7716SOL    HW123492   5.544   1.964   6.857
 7716SOL    HW223493   5.551   2.043   6.714
 7717SOL     OW23494   4.152   2.286   6.106
 7717SOL    HW123495   4.182   2.214   6.044
 7717SOL    HW223496   4.113   2.246   6.189
 7718SOL     OW23497   4.536   3.448   6.273
 7718SOL    HW123498   4.568   3.458   6.179
 7718SOL    HW223499   4.457   3.386   6.275
 7719SOL     OW23500   4.494   3.192   5.887
 7719SOL    HW123501   4.448   3.105   5.904
 7719SOL    HW223502   4.585   3.189   5.928
 7720SOL     OW23503   5.076   1.914   5.754
 7720SOL    HW123504   5.111   1.873   5.670
 7720SOL    HW223505   4.986   1.876   5.774
 7721SOL     OW23506   5.024   2.315   6.277
 7721SOL    HW123507   4.965   2.395   6.281
 7721SOL    HW223508   5.039   2.280   6.370
 7722SOL     OW23509   5.317   2.083   6.468
 7722SOL    HW123510   5.233   2.082   6.522
 7722SOL    HW223511   5.319   2.166   6.412
 7723SOL     OW23512   3.763   2.939   5.886
 7723SOL    HW123513   3.862   2.928   5.877
 7723SOL    HW223514   3.723   2.853   5.918
 7724SOL     OW23515   4.599   3.508   5.923
 7724SOL    HW123516   4.522   3.473   5.869
 7724SOL    HW223517   4.567   3.579   5.985
 7725SOL     OW23518   3.954   4.352   0.113
 7725SOL    HW123519   3.861   4.350   0.150
 7725SOL    HW223520   3.955   4.313   0.021
 7726SOL     OW23521   3.949   3.999   0.996
 7726SOL    HW123522   3.984   3.982   1.088
 7726SOL    HW223523   3.861   3.954   0.984
 7727SOL     OW23524   3.743   4.092   0.647
 7727SOL    HW123525   3.661   4.135   0.686
 7727SOL    HW223526   3.715   4.019   0.584
 7728SOL     OW23527   4.293   4.999   1.165
 7728SOL    HW123528   4.200   4.992   1.128
 7728SOL    HW223529   4.304   5.088   1.209
 7729SOL     OW23530   5.279   5.235   0.703
 7729SOL    HW123531   5.222   5.219   0.784
 7729SOL    HW223532   5.220   5.245   0.623
 7730SOL     OW23533   4.859   4.427   0.717
 7730SOL    HW123534   4.916   4.505   0.692
 7730SOL    HW223535   4.799   4.453   0.793
 7731SOL     OW23536   4.492   4.868   1.023
 7731SOL    HW123537   4.414   4.885   1.083
 7731SOL    HW223538   4.526   4.955   0.987
 7732SOL     OW23539   4.574   4.522   1.823
 7732SOL    HW123540   4.570   4.598   1.888
 7732SOL    HW223541   4.596   4.558   1.732
 7733SOL     OW23542   4.409   4.736   0.665
 7733SOL    HW123543   4.478   4.720   0.735
 7733SOL    HW223544   4.336   4.793   0.703
 7734SOL     OW23545   4.410   4.885   1.803
 7734SOL    HW123546   4.470   4.964   1.817
 7734SOL    HW223547   4.324   4.916   1.762
 7735SOL     OW23548   4.059   5.159   1.061
 7735SOL    HW123549   3.981   5.128   1.008
 7735SOL    HW223550   4.117   5.217   1.004
 7736SOL     OW23551   5.184   5.229   1.339
 7736SOL    HW123552   5.208   5.323   1.365
 7736SOL    HW223553   5.168   5.175   1.421
 7737SOL     OW23554   4.162   4.116   1.499
 7737SOL    HW123555   4.244   4.060   1.508
 7737SOL    HW223556   4.081   4.058   1.503
 7738SOL     OW23557   5.327   4.171   0.737
 7738SOL    HW123558   5.253   4.217   0.687
 7738SOL    HW223559   5.378   4.239   0.790
 7739SOL     OW23560   3.955   5.437   0.483
 7739SOL    HW123561   3.989   5.514   0.537
 7739SOL    HW223562   3.999   5.437   0.393
 7740SOL     OW23563   4.851   5.065   1.690
 7740SOL    HW123564   4.898   5.065   1.778
 7740SOL    HW223565   4.803   4.978   1.679
 7741SOL     OW23566   3.954   5.158   0.538
 7741SOL    HW123567   3.928   5.254   0.538
 7741SOL    HW223568   3.883   5.104   0.583
 7742SOL     OW23569   3.964   4.815   0.886
 7742SOL    HW123570   3.978   4.731   0.938
 7742SOL    HW223571   3.909   4.879   0.941
 7743SOL     OW23572   4.330   4.688   0.123
 7743SOL    HW123573   4.337   4.772   0.069
 7743SOL    HW223574   4.376   4.701   0.211
 7744SOL     OW23575   5.318   3.838   1.480
 7744SOL    HW123576   5.300   3.905   1.408
 7744SOL    HW223577   5.315   3.884   1.569
 7745SOL     OW23578   3.846   4.367   0.563
 7745SOL    HW123579   3.801   4.279   0.580
 7745SOL    HW223580   3.845   4.421   0.647
 7746SOL     OW23581   3.751   5.320   0.117
 7746SOL    HW123582   3.732   5.224   0.138
 7746SOL    HW223583   3.718   5.378   0.192
 7747SOL     OW23584   5.413   4.646   0.612
 7747SOL    HW123585   5.508   4.617   0.620
 7747SOL    HW223586   5.405   4.711   0.537
 7748SOL     OW23587   5.365   4.832   0.432
 7748SOL    HW123588   5.451   4.834   0.380
 7748SOL    HW223589   5.379   4.879   0.520
 7749SOL     OW23590   3.837   4.461   1.597
 7749SOL    HW123591   3.925   4.448   1.642
 7749SOL    HW223592   3.824   4.558   1.575
 7750SOL     OW23593   4.337   5.089   0.726
 7750SOL    HW123594   4.288   5.002   0.735
 7750SOL    HW223595   4.314   5.132   0.639
 7751SOL     OW23596   5.017   4.952   1.423
 7751SOL    HW123597   5.054   4.879   1.365
 7751SOL    HW223598   5.069   4.957   1.508
 7752SOL     OW23599   4.533   3.728   0.502
 7752SOL    HW123600   4.573   3.819   0.493
 7752SOL    HW223601   4.433   3.736   0.508
 7753SOL     OW23602   3.921   4.700   1.264
 7753SOL    HW123603   4.010   4.655   1.250
 7753SOL    HW223604   3.848   4.635   1.245
 7754SOL     OW23605   5.249   4.723   0.190
 7754SOL    HW123606   5.186   4.647   0.203
 7754SOL    HW223607   5.297   4.741   0.276
 7755SOL     OW23608   4.041   3.975   1.801
 7755SOL    HW123609   4.112   4.046   1.807
 7755SOL    HW223610   3.953   4.014   1.829
 7756SOL     OW23611   5.190   5.141   0.953
 7756SOL    HW123612   5.131   5.147   1.033
 7756SOL    HW223613   5.175   5.053   0.907
 7757SOL     OW23614   5.391   5.438   0.572
 7757SOL    HW123615   5.350   5.415   0.484
 7757SOL    HW223616   5.373   5.364   0.637
 7758SOL     OW23617   4.322   4.453   0.270
 7758SOL    HW123618   4.346   4.522   0.202
 7758SOL    HW223619   4.244   4.486   0.324
 7759SOL     OW23620   5.005   4.069   0.944
 7759SOL    HW123621   4.919   4.019   0.931
 7759SOL    HW223622   5.067   4.015   1.000
 7760SOL     OW23623   5.300   5.386   0.307
 7760SOL    HW123624   5.389   5.432   0.310
 7760SOL    HW223625   5.279   5.362   0.212
 7761SOL     OW23626   4.531   4.329   1.465
 7761SOL    HW123627   4.484   4.326   1.554
 7761SOL    HW223628   4.480   4.274   1.399
 7762SOL     OW23629   5.118   4.193   1.674
 7762SOL    HW123630   5.098   4.236   1.762
 7762SOL    HW223631   5.196   4.131   1.683
 7763SOL     OW23632   4.697   4.614   1.572
 7763SOL    HW123633   4.743   4.530   1.543
 7763SOL    HW223634   4.641   4.648   1.497
 7764SOL     OW23635   4.715   4.134   1.242
 7764SOL    HW123636   4.638   4.168   1.296
 7764SOL    HW223637   4.681   4.083   1.163
 7765SOL     OW23638   4.765   4.425   0.429
 7765SOL    HW123639   4.791   4.421   0.525
 7765SOL    HW223640   4.680   4.374   0.415
 7766SOL     OW23641   3.800   4.535   0.789
 7766SOL    HW123642   3.899   4.523   0.798
 7766SOL    HW223643   3.776   4.630   0.810
 7767SOL     OW23644   3.854   5.545   1.571
 7767SOL    HW123645   3.844   5.530   1.670
 7767SOL    HW223646   3.768   5.581   1.535
 7768SOL     OW23647   4.589   4.072   0.195
 7768SOL    HW123648   4.648   4.135   0.146
 7768SOL    HW223649   4.608   3.978   0.166
 7769SOL     OW23650   5.443   4.309   1.831
 7769SOL    HW123651   5.417   4.398   1.795
 7769SOL    HW223652   5.441   4.241   1.758
 7770SOL     OW23653   5.086   4.868   0.545
 7770SOL    HW123654   5.169   4.839   0.497
 7770SOL    HW223655   5.037   4.935   0.489
 7771SOL     OW23656   4.274   3.920   0.885
 7771SOL    HW123657   4.269   3.915   0.985
 7771SOL    HW223658   4.276   4.016   0.856
 7772SOL     OW23659   4.732   5.180   0.477
 7772SOL    HW123660   4.686   5.252   0.425
 7772SOL    HW223661   4.728   5.200   0.575
 7773SOL     OW23662   4.075   5.525   0.853
 7773SOL    HW123663   4.125   5.439   0.859
 7773SOL    HW223664   4.140   5.602   0.850
 7774SOL     OW23665   5.519   4.790   0.873
 7774SOL    HW123666   5.457   4.775   0.797
 7774SOL    HW223667   5.467   4.801   0.958
 7775SOL     OW23668   4.045   4.667   0.242
 7775SOL    HW123669   4.127   4.706   0.200
 7775SOL    HW223670   4.018   4.585   0.193
 7776SOL     OW23671   5.182   4.459   0.728
 7776SOL    HW123672   5.177   4.394   0.803
 7776SOL    HW223673   5.262   4.518   0.741
 7777SOL     OW23674   4.185   4.990   1.727
 7777SOL    HW123675   4.135   4.991   1.641
 7777SOL    HW223676   4.122   4.972   1.803
 7778SOL     OW23677   4.835   5.500   0.237
 7778SOL    HW123678   4.775   5.438   0.287
 7778SOL    HW223679   4.866   5.456   0.152
 7779SOL     OW23680   3.926   4.009   1.498
 7779SOL    HW123681   3.846   4.069   1.485
 7779SOL    HW223682   3.916   3.960   1.584
 7780SOL     OW23683   4.188   5.467   0.323
 7780SOL    HW123684   4.221   5.506   0.409
 7780SOL    HW223685   4.264   5.460   0.258
 7781SOL     OW23686   3.973   5.509   1.241
 7781SOL    HW123687   4.030   5.444   1.291
 7781SOL    HW223688   3.957   5.476   1.148
 7782SOL     OW23689   4.664   5.422   0.904
 7782SOL    HW123690   4.744   5.365   0.925
 7782SOL    HW223691   4.615   5.382   0.827
 7783SOL     OW23692   4.106   4.424   0.480
 7783SOL    HW123693   4.151   4.334   0.477
 7783SOL    HW223694   4.012   4.413   0.513
 7784SOL     OW23695   5.271   3.946   1.729
 7784SOL    HW123696   5.266   3.983   1.821
 7784SOL    HW223697   5.199   3.877   1.717
 7785SOL     OW23698   4.505   3.988   1.749
 7785SOL    HW123699   4.572   3.927   1.792
 7785SOL    HW223700   4.432   4.007   1.814
 7786SOL     OW23701   4.612   5.238   1.195
 7786SOL    HW123702   4.589   5.213   1.101
 7786SOL    HW223703   4.673   5.169   1.234
 7787SOL     OW23704   5.075   4.314   1.433
 7787SOL    HW123705   5.103   4.271   1.518
 7787SOL    HW223706   5.100   4.410   1.434
 7788SOL     OW23707   4.527   5.126   0.924
 7788SOL    HW123708   4.617   5.140   0.882
 7788SOL    HW223709   4.456   5.128   0.853
 7789SOL     OW23710   4.646   4.227   0.899
 7789SOL    HW123711   4.621   4.218   0.803
 7789SOL    HW223712   4.694   4.145   0.930
 7790SOL     OW23713   4.263   3.788   0.512
 7790SOL    HW123714   4.182   3.789   0.570
 7790SOL    HW223715   4.266   3.871   0.457
 7791SOL     OW23716   5.158   4.912   0.041
 7791SOL    HW123717   5.190   4.836   0.098
 7791SOL    HW223718   5.066   4.939   0.071
 7792SOL     OW23719   4.659   3.960   0.480
 7792SOL    HW123720   4.611   4.001   0.402
 7792SOL    HW223721   4.758   3.958   0.461
 7793SOL     OW23722   4.800   4.407   1.464
 7793SOL    HW123723   4.720   4.346   1.467
 7793SOL    HW223724   4.881   4.354   1.440
 7794SOL     OW23725   4.951   5.294   0.793
 7794SOL    HW123726   4.972   5.368   0.728
 7794SOL    HW223727   5.019   5.294   0.866
 7795SOL     OW23728   4.183   4.876   0.741
 7795SOL    HW123729   4.112   4.849   0.806
 7795SOL    HW223730   4.157   4.848   0.648
 7796SOL     OW23731   4.995   5.521   0.591
 7796SOL    HW123732   5.039   5.585   0.527
 7796SOL    HW223733   4.945   5.573   0.661
 7797SOL     OW23734   4.756   4.273   0.016
 7797SOL    HW123735   4.715   4.355  -0.023
 7797SOL    HW223736   4.820   4.299   0.089
 7798SOL     OW23737   3.802   4.280   1.386
 7798SOL    HW123738   3.894   4.279   1.345
 7798SOL    HW223739   3.796   4.354   1.453
 7799SOL     OW23740   4.285   3.946   1.147
 7799SOL    HW123741   4.323   3.862   1.184
 7799SOL    HW223742   4.197   3.965   1.191
 7800SOL     OW23743   4.590   4.178   0.642
 7800SOL    HW123744   4.558   4.250   0.580
 7800SOL    HW223745   4.614   4.097   0.589
 7801SOL     OW23746   4.741   3.763   0.753
 7801SOL    HW123747   4.669   3.768   0.684
 7801SOL    HW223748   4.717   3.694   0.822
 7802SOL     OW23749   5.153   4.897   0.867
 7802SOL    HW123750   5.098   4.813   0.860
 7802SOL    HW223751   5.179   4.926   0.775
 7803SOL     OW23752   5.190   4.314   0.992
 7803SOL    HW123753   5.160   4.219   0.999
 7803SOL    HW223754   5.263   4.330   1.058
 7804SOL     OW23755   5.581   4.557   0.377
 7804SOL    HW123756   5.623   4.493   0.441
 7804SOL    HW223757   5.543   4.506   0.299
 7805SOL     OW23758   4.212   5.109   0.174
 7805SOL    HW123759   4.125   5.094   0.221
 7805SOL    HW223760   4.195   5.135   0.079
 7806SOL     OW23761   5.388   5.004   0.657
 7806SOL    HW123762   5.487   5.012   0.671
 7806SOL    HW223763   5.343   5.088   0.688
 7807SOL     OW23764   5.114   4.299   0.078
 7807SOL    HW123765   5.060   4.278   0.159
 7807SOL    HW223766   5.205   4.258   0.087
 7808SOL     OW23767   4.251   3.980   0.328
 7808SOL    HW123768   4.278   3.921   0.253
 7808SOL    HW223769   4.251   4.075   0.297
 7809SOL     OW23770   5.478   4.947   1.588
 7809SOL    HW123771   5.569   4.908   1.575
 7809SOL    HW223772   5.486   5.043   1.612
 7810SOL     OW23773   4.788   5.071   1.340
 7810SOL    HW123774   4.708   5.048   1.395
 7810SOL    HW223775   4.871   5.045   1.389
 7811SOL     OW23776   5.316   5.353   1.625
 7811SOL    HW123777   5.343   5.387   1.535
 7811SOL    HW223778   5.395   5.315   1.671
 7812SOL     OW23779   4.835   4.919   1.100
 7812SOL    HW123780   4.795   4.963   1.181
 7812SOL    HW223781   4.794   4.956   1.017
 7813SOL     OW23782   5.362   4.823   1.079
 7813SOL    HW123783   5.367   4.904   1.138
 7813SOL    HW223784   5.276   4.825   1.028
 7814SOL     OW23785   4.639   3.813   1.402
 7814SOL    HW123786   4.664   3.793   1.307
 7814SOL    HW223787   4.711   3.869   1.444
 7815SOL     OW23788   4.704   4.840   1.719
 7815SOL    HW123789   4.605   4.846   1.729
 7815SOL    HW223790   4.727   4.760   1.663
 7816SOL     OW23791   4.429   4.774   0.368
 7816SOL    HW123792   4.415   4.781   0.467
 7816SOL    HW223793   4.513   4.723   0.350
 7817SOL     OW23794   4.134   4.537   1.251
 7817SOL    HW123795   4.220   4.549   1.301
 7817SOL    HW223796   4.092   4.450   1.278
 7818SOL     OW23797   4.998   4.110   1.262
 7818SOL    HW123798   5.019   4.184   1.326
 7818SOL    HW223799   4.909   4.127   1.219
 7819SOL     OW23800   3.788   5.288   1.331
 7819SOL    HW123801   3.742   5.370   1.297
 7819SOL    HW223802   3.886   5.307   1.340
 7820SOL     OW23803   4.091   4.824   0.501
 7820SOL    HW123804   4.084   4.907   0.445
 7820SOL    HW223805   4.095   4.744   0.441
 7821SOL     OW23806   4.290   4.261   0.865
 7821SOL    HW123807   4.302   4.327   0.791
 7821SOL    HW223808   4.336   4.295   0.948
 7822SOL     OW23809   4.976   5.072   0.388
 7822SOL    HW123810   5.026   5.149   0.428
 7822SOL    HW223811   4.881   5.074   0.420
 7823SOL     OW23812   4.996   5.169   1.142
 7823SOL    HW123813   5.043   5.182   1.229
 7823SOL    HW223814   4.930   5.095   1.151
 7824SOL     OW23815   5.306   4.363   0.472
 7824SOL    HW123816   5.275   4.424   0.545
 7824SOL    HW223817   5.356   4.415   0.403
 7825SOL     OW23818   4.078   5.234   1.329
 7825SOL    HW123819   4.057   5.190   1.242
 7825SOL    HW223820   4.175   5.260   1.332
 7826SOL     OW23821   4.126   4.475   1.598
 7826SOL    HW123822   4.194   4.530   1.551
 7826SOL    HW223823   4.166   4.387   1.625
 7827SOL     OW23824   5.311   4.503   1.670
 7827SOL    HW123825   5.219   4.541   1.665
 7827SOL    HW223826   5.371   4.550   1.605
 7828SOL     OW23827   4.737   3.829   1.770
 7828SOL    HW123828   4.743   3.914   1.718
 7828SOL    HW223829   4.769   3.753   1.713
 7829SOL     OW23830   4.228   3.774   1.740
 7829SOL    HW123831   4.186   3.717   1.670
 7829SOL    HW223832   4.162   3.843   1.772
 7830SOL     OW23833   4.297   4.594   1.029
 7830SOL    HW123834   4.341   4.683   1.020
 7830SOL    HW223835   4.234   4.594   1.106
 7831SOL     OW23836   5.084   4.586   1.045
 7831SOL    HW123837   5.009   4.586   0.979
 7831SOL    HW223838   5.121   4.494   1.054
 7832SOL     OW23839   4.933   4.249   0.275
 7832SOL    HW123840   4.946   4.165   0.329
 7832SOL    HW223841   4.904   4.323   0.335
 7833SOL     OW23842   4.031   3.937   1.231
 7833SOL    HW123843   4.008   3.974   1.321
 7833SOL    HW223844   4.001   3.842   1.225
 7834SOL     OW23845   3.761   5.034   1.282
 7834SOL    HW123846   3.814   4.985   1.350
 7834SOL    HW223847   3.783   5.132   1.287
 7835SOL     OW23848   4.456   4.358   1.064
 7835SOL    HW123849   4.515   4.332   0.988
 7835SOL    HW223850   4.428   4.454   1.053
 7836SOL     OW23851   5.452   4.659   1.854
 7836SOL    HW123852   5.406   4.652   1.765
 7836SOL    HW223853   5.390   4.703   1.920
 7837SOL     OW23854   4.031   3.787   0.618
 7837SOL    HW123855   4.020   3.881   0.651
 7837SOL    HW223856   4.026   3.724   0.695
 7838SOL     OW23857   5.346   4.091   0.374
 7838SOL    HW123858   5.348   4.015   0.438
 7838SOL    HW223859   5.298   4.168   0.414
 7839SOL     OW23860   4.747   4.490   0.966
 7839SOL    HW123861   4.762   4.511   1.062
 7839SOL    HW223862   4.717   4.395   0.957
 7840SOL     OW23863   4.704   5.297   1.700
 7840SOL    HW123864   4.684   5.341   1.612
 7840SOL    HW223865   4.743   5.206   1.684
 7841SOL     OW23866   5.583   5.242   1.605
 7841SOL    HW123867   5.597   5.269   1.510
 7841SOL    HW223868   5.666   5.264   1.658
 7842SOL     OW23869   4.074   4.622   1.804
 7842SOL    HW123870   4.150   4.666   1.852
 7842SOL    HW223871   4.109   4.575   1.722
 7843SOL     OW23872   5.027   4.562   0.042
 7843SOL    HW123873   5.061   4.469   0.057
 7843SOL    HW223874   5.045   4.589  -0.053
 7844SOL     OW23875   4.792   5.057   0.849
 7844SOL    HW123876   4.799   4.973   0.794
 7844SOL    HW223877   4.854   5.126   0.813
 7845SOL     OW23878   4.043   4.534   0.949
 7845SOL    HW123879   4.136   4.570   0.954
 7845SOL    HW223880   4.037   4.449   1.001
 7846SOL     OW23881   4.063   4.233   1.006
 7846SOL    HW123882   4.011   4.150   0.989
 7846SOL    HW223883   4.140   4.238   0.942
 7847SOL     OW23884   4.862   4.104   1.678
 7847SOL    HW123885   4.817   4.167   1.742
 7847SOL    HW223886   4.955   4.135   1.661
 7848SOL     OW23887   4.884   3.931   1.477
 7848SOL    HW123888   4.884   3.995   1.554
 7848SOL    HW223889   4.912   3.979   1.394
 7849SOL     OW23890   3.732   5.050   0.200
 7849SOL    HW123891   3.639   5.071   0.169
 7849SOL    HW223892   3.742   4.951   0.213
 7850SOL     OW23893   3.812   5.525   0.927
 7850SOL    HW123894   3.770   5.439   0.900
 7850SOL    HW223895   3.906   5.528   0.893
 7851SOL     OW23896   4.228   5.292   0.910
 7851SOL    HW123897   4.294   5.366   0.919
 7851SOL    HW223898   4.272   5.213   0.868
 7852SOL     OW23899   4.726   4.520   1.238
 7852SOL    HW123900   4.767   4.488   1.324
 7852SOL    HW223901   4.630   4.493   1.235
 7853SOL     OW23902   3.764   4.268   1.114
 7853SOL    HW123903   3.849   4.235   1.073
 7853SOL    HW223904   3.777   4.283   1.212
 7854SOL     OW23905   3.913   4.244   1.722
 7854SOL    HW123906   3.972   4.204   1.652
 7854SOL    HW223907   3.855   4.315   1.681
 7855SOL     OW23908   5.093   4.674   1.660
 7855SOL    HW123909   5.132   4.763   1.680
 7855SOL    HW223910   5.103   4.654   1.563
 7856SOL     OW23911   4.539   4.296   0.325
 7856SOL    HW123912   4.546   4.207   0.279
 7856SOL    HW223913   4.445   4.330   0.317
 7857SOL     OW23914   5.381   4.328   1.206
 7857SOL    HW123915   5.343   4.259   1.268
 7857SOL    HW223916   5.463   4.292   1.162
 7858SOL     OW23917   3.976   5.288   1.744
 7858SOL    HW123918   3.946   5.345   1.820
 7858SOL    HW223919   3.969   5.191   1.770
 7859SOL     OW23920   4.395   4.188   1.269
 7859SOL    HW123921   4.361   4.099   1.239
 7859SOL    HW223922   4.421   4.242   1.189
 7860SOL     OW23923   4.654   5.402   1.465
 7860SOL    HW123924   4.630   5.384   1.370
 7860SOL    HW223925   4.684   5.496   1.475
 7861SOL     OW23926   4.197   4.224   0.191
 7861SOL    HW123927   4.258   4.304   0.195
 7861SOL    HW223928   4.102   4.255   0.198
 7862SOL     OW23929   3.883   4.861   1.466
 7862SOL    HW123930   3.905   4.800   1.542
 7862SOL    HW223931   3.893   4.812   1.380
 7863SOL     OW23932   5.071   4.783   1.234
 7863SOL    HW123933   5.095   4.720   1.160
 7863SOL    HW223934   4.981   4.823   1.216
 7864SOL     OW23935   5.026   4.579   0.309
 7864SOL    HW123936   4.940   4.548   0.351
 7864SOL    HW223937   5.022   4.565   0.210
 7865SOL     OW23938   5.483   5.471   1.154
 7865SOL    HW123939   5.544   5.501   1.081
 7865SOL    HW223940   5.445   5.382   1.132
 7866SOL     OW23941   4.976   5.455   1.128
 7866SOL    HW123942   5.060   5.460   1.074
 7866SOL    HW223943   4.953   5.359   1.146
 7867SOL     OW23944   3.807   4.982   1.022
 7867SOL    HW123945   3.802   4.981   1.122
 7867SOL    HW223946   3.724   4.941   0.984
 7868SOL     OW23947   5.450   3.859   0.523
 7868SOL    HW123948   5.523   3.842   0.456
 7868SOL    HW223949   5.419   3.772   0.561
 7869SOL     OW23950   5.112   5.297   0.477
 7869SOL    HW123951   5.179   5.309   0.403
 7869SOL    HW223952   5.072   5.386   0.500
 7870SOL     OW23953   3.854   5.518   1.851
 7870SOL    HW123954   3.813   5.444   1.904
 7870SOL    HW223955   3.918   5.569   1.909
 7871SOL     OW23956   5.004   4.651   0.672
 7871SOL    HW123957   5.064   4.570   0.674
 7871SOL    HW223958   5.044   4.720   0.612
 7872SOL     OW23959   4.554   4.997   1.422
 7872SOL    HW123960   4.549   5.030   1.517
 7872SOL    HW223961   4.468   5.016   1.376
 7873SOL     OW23962   4.396   5.340   0.154
 7873SOL    HW123963   4.405   5.350   0.055
 7873SOL    HW223964   4.356   5.251   0.175
 7874SOL     OW23965   5.374   5.444   1.394
 7874SOL    HW123966   5.427   5.454   1.310
 7874SOL    HW223967   5.347   5.534   1.428
 7875SOL     OW23968   5.565   3.899   0.963
 7875SOL    HW123969   5.604   3.814   0.927
 7875SOL    HW223970   5.467   3.901   0.944
 7876SOL     OW23971   3.987   4.050   0.720
 7876SOL    HW123972   3.908   4.101   0.686
 7876SOL    HW223973   3.978   4.035   0.818
 7877SOL     OW23974   4.918   5.336   0.031
 7877SOL    HW123975   4.924   5.243   0.068
 7877SOL    HW223976   4.859   5.336  -0.049
 7878SOL     OW23977   4.546   4.726   1.372
 7878SOL    HW123978   4.586   4.725   1.280
 7878SOL    HW223979   4.556   4.818   1.412
 7879SOL     OW23980   4.640   4.634   0.291
 7879SOL    HW123981   4.703   4.672   0.223
 7879SOL    HW223982   4.680   4.551   0.330
 7880SOL     OW23983   5.228   5.331   0.044
 7880SOL    HW123984   5.136   5.368   0.051
 7880SOL    HW223985   5.266   5.351  -0.046
 7881SOL     OW23986   4.096   5.012   1.490
 7881SOL    HW123987   4.083   5.105   1.456
 7881SOL    HW223988   4.012   4.960   1.477
 7882SOL     OW23989   5.338   5.016   1.289
 7882SOL    HW123990   5.398   5.019   1.369
 7882SOL    HW223991   5.263   5.080   1.302
 7883SOL     OW23992   4.763   4.822   0.696
 7883SOL    HW123993   4.693   4.775   0.750
 7883SOL    HW223994   4.822   4.754   0.653
 7884SOL     OW23995   4.738   3.960   0.971
 7884SOL    HW123996   4.730   3.924   0.878
 7884SOL    HW223997   4.736   3.884   1.036
 7885SOL     OW23998   4.314   5.211   0.491
 7885SOL    HW123999   4.356   5.153   0.421
 7885SOL    HW224000   4.270   5.290   0.447
 7886SOL     OW24001   5.433   4.109   1.381
 7886SOL    HW124002   5.506   4.178   1.385
 7886SOL    HW224003   5.461   4.034   1.322
 7887SOL     OW24004   3.979   5.072   0.290
 7887SOL    HW124005   3.883   5.073   0.263
 7887SOL    HW224006   3.991   5.125   0.374
 7888SOL     OW24007   3.829   4.737   1.726
 7888SOL    HW124008   3.752   4.704   1.780
 7888SOL    HW224009   3.914   4.707   1.768
 7889SOL     OW24010   4.396   3.927   1.489
 7889SOL    HW124011   4.486   3.911   1.449
 7889SOL    HW224012   4.404   3.932   1.588
 7890SOL     OW24013   5.164   4.580   1.398
 7890SOL    HW124014   5.107   4.632   1.335
 7890SOL    HW224015   5.260   4.592   1.374
 7891SOL     OW24016   3.796   3.890   0.318
 7891SOL    HW124017   3.779   3.973   0.264
 7891SOL    HW224018   3.886   3.853   0.296
 7892SOL     OW24019   4.907   5.059   0.119
 7892SOL    HW124020   4.808   5.048   0.121
 7892SOL    HW224021   4.941   5.074   0.212
 7893SOL     OW24022   4.337   4.566   1.431
 7893SOL    HW124023   4.393   4.647   1.414
 7893SOL    HW224024   4.396   4.486   1.434
 7894SOL     OW24025   5.217   5.491   0.959
 7894SOL    HW124026   5.250   5.555   0.890
 7894SOL    HW224027   5.283   5.485   1.034
 7895SOL     OW24028   4.440   4.289   1.708
 7895SOL    HW124029   4.459   4.354   1.782
 7895SOL    HW224030   4.500   4.209   1.717
 7896SOL     OW24031   5.174   4.944   1.633
 7896SOL    HW124032   5.165   4.934   1.732
 7896SOL    HW224033   5.270   4.937   1.607
 7897SOL     OW24034   4.114   5.465   1.560
 7897SOL    HW124035   4.023   5.506   1.558
 7897SOL    HW224036   4.107   5.371   1.592
 7898SOL     OW24037   5.398   4.607   1.254
 7898SOL    HW124038   5.371   4.518   1.217
 7898SOL    HW224039   5.399   4.675   1.181
 7899SOL     OW24040   4.949   4.049   0.449
 7899SOL    HW124041   5.014   3.975   0.438
 7899SOL    HW224042   4.969   4.099   0.533
 7900SOL     OW24043   4.318   4.469   0.652
 7900SOL    HW124044   4.368   4.554   0.633
 7900SOL    HW224045   4.230   4.471   0.604
 7901SOL     OW24046   5.501   4.066   1.642
 7901SOL    HW124047   5.484   4.097   1.548
 7901SOL    HW224048   5.417   4.029   1.680
 7902SOL     OW24049   5.454   4.658   1.517
 7902SOL    HW124050   5.492   4.749   1.532
 7902SOL    HW224051   5.446   4.641   1.418
 7903SOL     OW24052   4.583   5.098   0.016
 7903SOL    HW124053   4.537   5.113   0.104
 7903SOL    HW224054   4.627   5.183  -0.014
 7904SOL     OW24055   4.385   5.514   0.953
 7904SOL    HW124056   4.339   5.602   0.940
 7904SOL    HW224057   4.484   5.526   0.946
 7905SOL     OW24058   4.583   4.680   0.861
 7905SOL    HW124059   4.637   4.611   0.909
 7905SOL    HW224060   4.551   4.749   0.927
 7906SOL     OW24061   4.807   4.708   0.087
 7906SOL    HW124062   4.784   4.761   0.005
 7906SOL    HW224063   4.888   4.652   0.068
 7907SOL     OW24064   5.585   5.293   0.851
 7907SOL    HW124065   5.514   5.281   0.781
 7907SOL    HW224066   5.586   5.214   0.911
 7908SOL     OW24067   3.945   5.038   1.844
 7908SOL    HW124068   3.880   4.965   1.823
 7908SOL    HW224069   3.949   5.052   1.942
 7909SOL     OW24070   3.803   4.964   0.653
 7909SOL    HW124071   3.802   4.917   0.741
 7909SOL    HW224072   3.885   4.936   0.602
 7910SOL     OW24073   4.396   5.115   1.624
 7910SOL    HW124074   4.318   5.065   1.662
 7910SOL    HW224075   4.393   5.210   1.655
 7911SOL     OW24076   5.548   3.916   1.227
 7911SOL    HW124077   5.544   3.826   1.271
 7911SOL    HW224078   5.551   3.905   1.128
 7912SOL     OW24079   4.152   4.148   0.520
 7912SOL    HW124080   4.182   4.076   0.458
 7912SOL    HW224081   4.113   4.108   0.603
 7913SOL     OW24082   5.429   5.211   1.104
 7913SOL    HW124083   5.336   5.186   1.077
 7913SOL    HW224084   5.455   5.161   1.186
 7914SOL     OW24085   4.041   4.271   1.280
 7914SOL    HW124086   4.079   4.212   1.352
 7914SOL    HW224087   4.081   4.245   1.192
 7915SOL     OW24088   4.536   5.310   0.687
 7915SOL    HW124089   4.568   5.320   0.593
 7915SOL    HW224090   4.457   5.248   0.689
 7916SOL     OW24091   5.148   3.938   1.112
 7916SOL    HW124092   5.200   3.873   1.167
 7916SOL    HW224093   5.099   4.001   1.173
 7917SOL     OW24094   4.725   3.758   1.154
 7917SOL    HW124095   4.662   3.686   1.123
 7917SOL    HW224096   4.818   3.722   1.154
 7918SOL     OW24097   4.494   5.054   0.301
 7918SOL    HW124098   4.448   4.967   0.318
 7918SOL    HW224099   4.585   5.051   0.342
 7919SOL     OW24100   4.342   5.291   1.284
 7919SOL    HW124101   4.337   5.373   1.341
 7919SOL    HW224102   4.431   5.288   1.239
 7920SOL     OW24103   5.024   4.177   0.691
 7920SOL    HW124104   4.965   4.257   0.695
 7920SOL    HW224105   5.039   4.142   0.784
 7921SOL     OW24106   5.317   3.945   0.882
 7921SOL    HW124107   5.233   3.944   0.936
 7921SOL    HW224108   5.319   4.028   0.826
 7922SOL     OW24109   3.763   4.801   0.300
 7922SOL    HW124110   3.862   4.790   0.291
 7922SOL    HW224111   3.723   4.715   0.332
 7923SOL     OW24112   4.599   5.370   0.337
 7923SOL    HW124113   4.522   5.335   0.283
 7923SOL    HW224114   4.567   5.441   0.399
 7924SOL     OW24115   3.954   4.352   1.975
 7924SOL    HW124116   3.861   4.350   2.012
 7924SOL    HW224117   3.955   4.313   1.883
 7925SOL     OW24118   3.949   3.999   2.858
 7925SOL    HW124119   3.984   3.982   2.950
 7925SOL    HW224120   3.861   3.954   2.846
 7926SOL     OW24121   3.743   4.092   2.509
 7926SOL    HW124122   3.661   4.135   2.548
 7926SOL    HW224123   3.715   4.019   2.446
 7927SOL     OW24124   4.293   4.999   3.027
 7927SOL    HW124125   4.200   4.992   2.990
 7927SOL    HW224126   4.304   5.088   3.071
 7928SOL     OW24127   5.279   5.235   2.565
 7928SOL    HW124128   5.222   5.219   2.646
 7928SOL    HW224129   5.220   5.245   2.485
 7929SOL     OW24130   4.859   4.427   2.579
 7929SOL    HW124131   4.916   4.505   2.554
 7929SOL    HW224132   4.799   4.453   2.655
 7930SOL     OW24133   5.479   4.331   2.093
 7930SOL    HW124134   5.467   4.318   1.994
 7930SOL    HW224135   5.449   4.250   2.142
 7931SOL     OW24136   4.492   4.868   2.885
 7931SOL    HW124137   4.414   4.885   2.945
 7931SOL    HW224138   4.526   4.955   2.849
 7932SOL     OW24139   4.574   4.522   3.685
 7932SOL    HW124140   4.570   4.598   3.750
 7932SOL    HW224141   4.596   4.558   3.594
 7933SOL     OW24142   4.409   4.736   2.527
 7933SOL    HW124143   4.478   4.720   2.597
 7933SOL    HW224144   4.336   4.793   2.565
 7934SOL     OW24145   4.410   4.885   3.665
 7934SOL    HW124146   4.470   4.964   3.679
 7934SOL    HW224147   4.324   4.916   3.624
 7935SOL     OW24148   4.059   5.159   2.923
 7935SOL    HW124149   3.981   5.128   2.870
 7935SOL    HW224150   4.117   5.217   2.866
 7936SOL     OW24151   5.184   5.229   3.201
 7936SOL    HW124152   5.208   5.323   3.227
 7936SOL    HW224153   5.168   5.175   3.283
 7937SOL     OW24154   4.162   4.116   3.361
 7937SOL    HW124155   4.244   4.060   3.370
 7937SOL    HW224156   4.081   4.058   3.365
 7938SOL     OW24157   5.327   4.171   2.599
 7938SOL    HW124158   5.253   4.217   2.549
 7938SOL    HW224159   5.378   4.239   2.652
 7939SOL     OW24160   3.955   5.437   2.345
 7939SOL    HW124161   3.989   5.514   2.399
 7939SOL    HW224162   3.999   5.437   2.255
 7940SOL     OW24163   4.851   5.065   3.552
 7940SOL    HW124164   4.898   5.065   3.640
 7940SOL    HW224165   4.803   4.978   3.541
 7941SOL     OW24166   3.954   5.158   2.400
 7941SOL    HW124167   3.928   5.254   2.400
 7941SOL    HW224168   3.883   5.104   2.445
 7942SOL     OW24169   3.964   4.815   2.748
 7942SOL    HW124170   3.978   4.731   2.800
 7942SOL    HW224171   3.909   4.879   2.803
 7943SOL     OW24172   4.344   5.510   3.301
 7943SOL    HW124173   4.252   5.493   3.336
 7943SOL    HW224174   4.372   5.602   3.327
 7944SOL     OW24175   4.330   4.688   1.985
 7944SOL    HW124176   4.337   4.772   1.931
 7944SOL    HW224177   4.376   4.701   2.073
 7945SOL     OW24178   5.318   3.838   3.342
 7945SOL    HW124179   5.300   3.905   3.270
 7945SOL    HW224180   5.315   3.884   3.431
 7946SOL     OW24181   3.846   4.367   2.425
 7946SOL    HW124182   3.801   4.279   2.442
 7946SOL    HW224183   3.845   4.421   2.509
 7947SOL     OW24184   5.566   5.491   2.221
 7947SOL    HW124185   5.620   5.462   2.301
 7947SOL    HW224186   5.596   5.581   2.192
 7948SOL     OW24187   3.751   5.320   1.979
 7948SOL    HW124188   3.732   5.224   2.000
 7948SOL    HW224189   3.718   5.378   2.054
 7949SOL     OW24190   5.413   4.646   2.474
 7949SOL    HW124191   5.508   4.617   2.482
 7949SOL    HW224192   5.405   4.711   2.399
 7950SOL     OW24193   5.365   4.832   2.294
 7950SOL    HW124194   5.451   4.834   2.242
 7950SOL    HW224195   5.379   4.879   2.382
 7951SOL     OW24196   3.837   4.461   3.459
 7951SOL    HW124197   3.925   4.448   3.504
 7951SOL    HW224198   3.824   4.558   3.437
 7952SOL     OW24199   4.337   5.089   2.588
 7952SOL    HW124200   4.288   5.002   2.597
 7952SOL    HW224201   4.314   5.132   2.501
 7953SOL     OW24202   5.017   4.952   3.285
 7953SOL    HW124203   5.054   4.879   3.227
 7953SOL    HW224204   5.069   4.957   3.370
 7954SOL     OW24205   4.533   3.728   2.364
 7954SOL    HW124206   4.573   3.819   2.355
 7954SOL    HW224207   4.433   3.736   2.370
 7955SOL     OW24208   5.249   4.723   2.052
 7955SOL    HW124209   5.186   4.647   2.065
 7955SOL    HW224210   5.297   4.741   2.138
 7956SOL     OW24211   4.911   5.516   3.478
 7956SOL    HW124212   4.935   5.576   3.402
 7956SOL    HW224213   4.918   5.421   3.448
 7957SOL     OW24214   4.041   3.975   3.663
 7957SOL    HW124215   4.112   4.046   3.669
 7957SOL    HW224216   3.953   4.014   3.691
 7958SOL     OW24217   5.190   5.141   2.815
 7958SOL    HW124218   5.131   5.147   2.895
 7958SOL    HW224219   5.175   5.053   2.769
 7959SOL     OW24220   4.322   4.453   2.132
 7959SOL    HW124221   4.346   4.522   2.064
 7959SOL    HW224222   4.244   4.486   2.186
 7960SOL     OW24223   5.005   4.069   2.806
 7960SOL    HW124224   4.919   4.019   2.793
 7960SOL    HW224225   5.067   4.015   2.862
 7961SOL     OW24226   4.531   4.329   3.327
 7961SOL    HW124227   4.484   4.326   3.416
 7961SOL    HW224228   4.480   4.274   3.261
 7962SOL     OW24229   5.118   4.193   3.536
 7962SOL    HW124230   5.098   4.236   3.624
 7962SOL    HW224231   5.196   4.131   3.545
 7963SOL     OW24232   4.697   4.614   3.434
 7963SOL    HW124233   4.743   4.530   3.405
 7963SOL    HW224234   4.641   4.648   3.359
 7964SOL     OW24235   4.715   4.134   3.104
 7964SOL    HW124236   4.638   4.168   3.158
 7964SOL    HW224237   4.681   4.083   3.025
 7965SOL     OW24238   4.765   4.425   2.291
 7965SOL    HW124239   4.791   4.421   2.387
 7965SOL    HW224240   4.680   4.374   2.277
 7966SOL     OW24241   3.800   4.535   2.651
 7966SOL    HW124242   3.899   4.523   2.660
 7966SOL    HW224243   3.776   4.630   2.672
 7967SOL     OW24244   4.589   4.072   2.057
 7967SOL    HW124245   4.648   4.135   2.008
 7967SOL    HW224246   4.608   3.978   2.028
 7968SOL     OW24247   5.443   4.309   3.693
 7968SOL    HW124248   5.417   4.398   3.657
 7968SOL    HW224249   5.441   4.241   3.620
 7969SOL     OW24250   4.274   3.920   2.747
 7969SOL    HW124251   4.269   3.915   2.847
 7969SOL    HW224252   4.276   4.016   2.718
 7970SOL     OW24253   5.519   4.790   2.735
 7970SOL    HW124254   5.457   4.775   2.659
 7970SOL    HW224255   5.467   4.801   2.820
 7971SOL     OW24256   4.951   5.274   3.368
 7971SOL    HW124257   4.957   5.197   3.432
 7971SOL    HW224258   4.899   5.248   3.288
 7972SOL     OW24259   4.045   4.667   2.104
 7972SOL    HW124260   4.127   4.706   2.062
 7972SOL    HW224261   4.018   4.585   2.055
 7973SOL     OW24262   5.182   4.459   2.590
 7973SOL    HW124263   5.177   4.394   2.665
 7973SOL    HW224264   5.262   4.518   2.603
 7974SOL     OW24265   4.185   4.990   3.589
 7974SOL    HW124266   4.135   4.991   3.503
 7974SOL    HW224267   4.122   4.972   3.665
 7975SOL     OW24268   3.926   4.009   3.360
 7975SOL    HW124269   3.846   4.069   3.347
 7975SOL    HW224270   3.916   3.960   3.446
 7976SOL     OW24271   5.356   5.101   1.943
 7976SOL    HW124272   5.324   5.195   1.933
 7976SOL    HW224273   5.280   5.038   1.931
 7977SOL     OW24274   4.188   5.467   2.185
 7977SOL    HW124275   4.221   5.506   2.271
 7977SOL    HW224276   4.264   5.460   2.120
 7978SOL     OW24277   5.124   3.831   2.288
 7978SOL    HW124278   5.100   3.794   2.198
 7978SOL    HW224279   5.223   3.847   2.292
 7979SOL     OW24280   4.106   4.424   2.342
 7979SOL    HW124281   4.151   4.334   2.339
 7979SOL    HW224282   4.012   4.413   2.375
 7980SOL     OW24283   5.271   3.946   3.591
 7980SOL    HW124284   5.266   3.983   3.683
 7980SOL    HW224285   5.199   3.877   3.579
 7981SOL     OW24286   4.338   3.846   1.979
 7981SOL    HW124287   4.436   3.824   1.986
 7981SOL    HW224288   4.307   3.829   1.886
 7982SOL     OW24289   4.505   3.988   3.611
 7982SOL    HW124290   4.572   3.927   3.654
 7982SOL    HW224291   4.432   4.007   3.676
 7983SOL     OW24292   5.075   4.314   3.295
 7983SOL    HW124293   5.103   4.271   3.380
 7983SOL    HW224294   5.100   4.410   3.296
 7984SOL     OW24295   4.527   5.126   2.786
 7984SOL    HW124296   4.617   5.140   2.744
 7984SOL    HW224297   4.456   5.128   2.715
 7985SOL     OW24298   4.646   4.227   2.761
 7985SOL    HW124299   4.621   4.218   2.665
 7985SOL    HW224300   4.694   4.145   2.792
 7986SOL     OW24301   4.263   3.788   2.374
 7986SOL    HW124302   4.182   3.789   2.432
 7986SOL    HW224303   4.266   3.871   2.319
 7987SOL     OW24304   5.158   4.912   1.903
 7987SOL    HW124305   5.190   4.836   1.960
 7987SOL    HW224306   5.066   4.939   1.933
 7988SOL     OW24307   4.021   3.759   2.033
 7988SOL    HW124308   4.070   3.843   2.012
 7988SOL    HW224309   4.083   3.694   2.078
 7989SOL     OW24310   4.659   3.960   2.342
 7989SOL    HW124311   4.611   4.001   2.264
 7989SOL    HW224312   4.758   3.958   2.323
 7990SOL     OW24313   4.800   4.407   3.326
 7990SOL    HW124314   4.720   4.346   3.329
 7990SOL    HW224315   4.881   4.354   3.302
 7991SOL     OW24316   4.951   5.294   2.655
 7991SOL    HW124317   4.972   5.368   2.590
 7991SOL    HW224318   5.019   5.294   2.728
 7992SOL     OW24319   4.183   4.876   2.603
 7992SOL    HW124320   4.112   4.849   2.668
 7992SOL    HW224321   4.157   4.848   2.510
 7993SOL     OW24322   4.756   4.273   1.878
 7993SOL    HW124323   4.715   4.355   1.839
 7993SOL    HW224324   4.820   4.299   1.951
 7994SOL     OW24325   3.802   4.280   3.248
 7994SOL    HW124326   3.894   4.279   3.207
 7994SOL    HW224327   3.796   4.354   3.315
 7995SOL     OW24328   4.285   3.946   3.009
 7995SOL    HW124329   4.323   3.862   3.046
 7995SOL    HW224330   4.197   3.965   3.053
 7996SOL     OW24331   4.590   4.178   2.504
 7996SOL    HW124332   4.558   4.250   2.442
 7996SOL    HW224333   4.614   4.097   2.451
 7997SOL     OW24334   4.741   3.763   2.615
 7997SOL    HW124335   4.669   3.768   2.546
 7997SOL    HW224336   4.717   3.694   2.684
 7998SOL     OW24337   5.153   4.897   2.729
 7998SOL    HW124338   5.098   4.813   2.722
 7998SOL    HW224339   5.179   4.926   2.637
 7999SOL     OW24340   5.190   4.314   2.854
 7999SOL    HW124341   5.160   4.219   2.861
 7999SOL    HW224342   5.263   4.330   2.920
 8000SOL     OW24343   5.581   4.557   2.239
 8000SOL    HW124344   5.623   4.493   2.303
 8000SOL    HW224345   5.543   4.506   2.161
 8001SOL     OW24346   4.212   5.109   2.036
 8001SOL    HW124347   4.125   5.094   2.083
 8001SOL    HW224348   4.195   5.135   1.941
 8002SOL     OW24349   5.388   5.004   2.519
 8002SOL    HW124350   5.487   5.012   2.533
 8002SOL    HW224351   5.343   5.088   2.550
 8003SOL     OW24352   5.114   4.299   1.940
 8003SOL    HW124353   5.060   4.278   2.021
 8003SOL    HW224354   5.205   4.258   1.949
 8004SOL     OW24355   4.251   3.980   2.190
 8004SOL    HW124356   4.278   3.921   2.115
 8004SOL    HW224357   4.251   4.075   2.159
 8005SOL     OW24358   5.478   4.947   3.450
 8005SOL    HW124359   5.569   4.908   3.437
 8005SOL    HW224360   5.486   5.043   3.474
 8006SOL     OW24361   4.788   5.071   3.202
 8006SOL    HW124362   4.708   5.048   3.257
 8006SOL    HW224363   4.871   5.045   3.251
 8007SOL     OW24364   5.316   5.353   3.487
 8007SOL    HW124365   5.343   5.387   3.397
 8007SOL    HW224366   5.395   5.315   3.533
 8008SOL     OW24367   4.835   4.919   2.962
 8008SOL    HW124368   4.795   4.963   3.043
 8008SOL    HW224369   4.794   4.956   2.879
 8009SOL     OW24370   5.362   4.823   2.941
 8009SOL    HW124371   5.367   4.904   3.000
 8009SOL    HW224372   5.276   4.825   2.890
 8010SOL     OW24373   4.639   3.813   3.264
 8010SOL    HW124374   4.664   3.793   3.169
 8010SOL    HW224375   4.711   3.869   3.306
 8011SOL     OW24376   4.704   4.840   3.581
 8011SOL    HW124377   4.605   4.846   3.591
 8011SOL    HW224378   4.727   4.760   3.525
 8012SOL     OW24379   4.429   4.774   2.230
 8012SOL    HW124380   4.415   4.781   2.329
 8012SOL    HW224381   4.513   4.723   2.212
 8013SOL     OW24382   4.134   4.537   3.113
 8013SOL    HW124383   4.220   4.549   3.163
 8013SOL    HW224384   4.092   4.450   3.140
 8014SOL     OW24385   4.998   4.110   3.124
 8014SOL    HW124386   5.019   4.184   3.188
 8014SOL    HW224387   4.909   4.127   3.081
 8015SOL     OW24388   4.091   4.824   2.363
 8015SOL    HW124389   4.084   4.907   2.307
 8015SOL    HW224390   4.095   4.744   2.303
 8016SOL     OW24391   4.290   4.261   2.727
 8016SOL    HW124392   4.302   4.327   2.653
 8016SOL    HW224393   4.336   4.295   2.810
 8017SOL     OW24394   4.996   5.169   3.004
 8017SOL    HW124395   5.043   5.182   3.091
 8017SOL    HW224396   4.930   5.095   3.013
 8018SOL     OW24397   5.306   4.363   2.334
 8018SOL    HW124398   5.275   4.424   2.407
 8018SOL    HW224399   5.356   4.415   2.265
 8019SOL     OW24400   4.126   4.475   3.460
 8019SOL    HW124401   4.194   4.530   3.413
 8019SOL    HW224402   4.166   4.387   3.487
 8020SOL     OW24403   5.311   4.503   3.532
 8020SOL    HW124404   5.219   4.541   3.527
 8020SOL    HW224405   5.371   4.550   3.467
 8021SOL     OW24406   4.737   3.829   3.632
 8021SOL    HW124407   4.743   3.914   3.580
 8021SOL    HW224408   4.769   3.753   3.575
 8022SOL     OW24409   4.228   3.774   3.602
 8022SOL    HW124410   4.186   3.717   3.532
 8022SOL    HW224411   4.162   3.843   3.634
 8023SOL     OW24412   4.297   4.594   2.891
 8023SOL    HW124413   4.341   4.683   2.882
 8023SOL    HW224414   4.234   4.594   2.968
 8024SOL     OW24415   5.084   4.586   2.907
 8024SOL    HW124416   5.009   4.586   2.841
 8024SOL    HW224417   5.121   4.494   2.916
 8025SOL     OW24418   4.933   4.249   2.137
 8025SOL    HW124419   4.946   4.165   2.191
 8025SOL    HW224420   4.904   4.323   2.197
 8026SOL     OW24421   4.031   3.937   3.093
 8026SOL    HW124422   4.008   3.974   3.183
 8026SOL    HW224423   4.001   3.842   3.087
 8027SOL     OW24424   4.456   4.358   2.926
 8027SOL    HW124425   4.515   4.332   2.850
 8027SOL    HW224426   4.428   4.454   2.915
 8028SOL     OW24427   5.452   4.659   3.716
 8028SOL    HW124428   5.406   4.652   3.627
 8028SOL    HW224429   5.390   4.703   3.782
 8029SOL     OW24430   4.031   3.787   2.480
 8029SOL    HW124431   4.020   3.881   2.513
 8029SOL    HW224432   4.026   3.724   2.557
 8030SOL     OW24433   5.346   4.091   2.236
 8030SOL    HW124434   5.348   4.015   2.300
 8030SOL    HW224435   5.298   4.168   2.276
 8031SOL     OW24436   4.747   4.490   2.828
 8031SOL    HW124437   4.762   4.511   2.924
 8031SOL    HW224438   4.717   4.395   2.819
 8032SOL     OW24439   4.704   5.297   3.562
 8032SOL    HW124440   4.684   5.341   3.474
 8032SOL    HW224441   4.743   5.206   3.546
 8033SOL     OW24442   5.583   5.242   3.467
 8033SOL    HW124443   5.597   5.269   3.372
 8033SOL    HW224444   5.666   5.264   3.520
 8034SOL     OW24445   4.074   4.622   3.666
 8034SOL    HW124446   4.150   4.666   3.714
 8034SOL    HW224447   4.109   4.575   3.584
 8035SOL     OW24448   5.264   3.998   1.987
 8035SOL    HW124449   5.203   3.923   2.010
 8035SOL    HW224450   5.286   4.050   2.070
 8036SOL     OW24451   5.027   4.562   1.904
 8036SOL    HW124452   5.061   4.469   1.919
 8036SOL    HW224453   5.045   4.589   1.809
 8037SOL     OW24454   4.792   5.057   2.711
 8037SOL    HW124455   4.799   4.973   2.656
 8037SOL    HW224456   4.854   5.126   2.675
 8038SOL     OW24457   4.043   4.534   2.811
 8038SOL    HW124458   4.136   4.570   2.816
 8038SOL    HW224459   4.037   4.449   2.863
 8039SOL     OW24460   4.063   4.233   2.868
 8039SOL    HW124461   4.011   4.150   2.851
 8039SOL    HW224462   4.140   4.238   2.804
 8040SOL     OW24463   4.862   4.104   3.540
 8040SOL    HW124464   4.817   4.167   3.604
 8040SOL    HW224465   4.955   4.135   3.523
 8041SOL     OW24466   4.884   3.931   3.339
 8041SOL    HW124467   4.884   3.995   3.416
 8041SOL    HW224468   4.912   3.979   3.256
 8042SOL     OW24469   3.732   5.050   2.062
 8042SOL    HW124470   3.639   5.071   2.031
 8042SOL    HW224471   3.742   4.951   2.075
 8043SOL     OW24472   4.726   4.520   3.100
 8043SOL    HW124473   4.767   4.488   3.186
 8043SOL    HW224474   4.630   4.493   3.097
 8044SOL     OW24475   3.764   4.268   2.976
 8044SOL    HW124476   3.849   4.235   2.935
 8044SOL    HW224477   3.777   4.283   3.074
 8045SOL     OW24478   3.913   4.244   3.584
 8045SOL    HW124479   3.972   4.204   3.514
 8045SOL    HW224480   3.855   4.315   3.543
 8046SOL     OW24481   5.093   4.674   3.522
 8046SOL    HW124482   5.132   4.763   3.542
 8046SOL    HW224483   5.103   4.654   3.425
 8047SOL     OW24484   4.539   4.296   2.187
 8047SOL    HW124485   4.546   4.207   2.141
 8047SOL    HW224486   4.445   4.330   2.179
 8048SOL     OW24487   5.381   4.328   3.068
 8048SOL    HW124488   5.343   4.259   3.130
 8048SOL    HW224489   5.463   4.292   3.024
 8049SOL     OW24490   4.395   4.188   3.131
 8049SOL    HW124491   4.361   4.099   3.101
 8049SOL    HW224492   4.421   4.242   3.051
 8050SOL     OW24493   4.654   5.402   3.327
 8050SOL    HW124494   4.630   5.384   3.232
 8050SOL    HW224495   4.684   5.496   3.337
 8051SOL     OW24496   4.197   4.224   2.053
 8051SOL    HW124497   4.258   4.304   2.057
 8051SOL    HW224498   4.102   4.255   2.060
 8052SOL     OW24499   5.071   4.783   3.096
 8052SOL    HW124500   5.095   4.720   3.022
 8052SOL    HW224501   4.981   4.823   3.078
 8053SOL     OW24502   5.026   4.579   2.171
 8053SOL    HW124503   4.940   4.548   2.213
 8053SOL    HW224504   5.022   4.565   2.072
 8054SOL     OW24505   5.483   5.471   3.016
 8054SOL    HW124506   5.544   5.501   2.943
 8054SOL    HW224507   5.445   5.382   2.994
 8055SOL     OW24508   4.976   5.455   2.990
 8055SOL    HW124509   5.060   5.460   2.936
 8055SOL    HW224510   4.953   5.359   3.008
 8056SOL     OW24511   3.807   4.982   2.884
 8056SOL    HW124512   3.802   4.981   2.984
 8056SOL    HW224513   3.724   4.941   2.846
 8057SOL     OW24514   5.450   3.859   2.385
 8057SOL    HW124515   5.523   3.842   2.318
 8057SOL    HW224516   5.419   3.772   2.423
 8058SOL     OW24517   5.112   5.297   2.339
 8058SOL    HW124518   5.179   5.309   2.265
 8058SOL    HW224519   5.072   5.386   2.362
 8059SOL     OW24520   4.554   4.997   3.284
 8059SOL    HW124521   4.549   5.030   3.379
 8059SOL    HW224522   4.468   5.016   3.238
 8060SOL     OW24523   4.396   5.340   2.016
 8060SOL    HW124524   4.405   5.350   1.917
 8060SOL    HW224525   4.356   5.251   2.037
 8061SOL     OW24526   5.374   5.444   3.256
 8061SOL    HW124527   5.427   5.454   3.172
 8061SOL    HW224528   5.347   5.534   3.290
 8062SOL     OW24529   5.565   3.899   2.825
 8062SOL    HW124530   5.604   3.814   2.789
 8062SOL    HW224531   5.467   3.901   2.806
 8063SOL     OW24532   3.987   4.050   2.582
 8063SOL    HW124533   3.908   4.101   2.548
 8063SOL    HW224534   3.978   4.035   2.680
 8064SOL     OW24535   4.546   4.726   3.234
 8064SOL    HW124536   4.586   4.725   3.142
 8064SOL    HW224537   4.556   4.818   3.274
 8065SOL     OW24538   4.640   4.634   2.153
 8065SOL    HW124539   4.703   4.672   2.085
 8065SOL    HW224540   4.680   4.551   2.192
 8066SOL     OW24541   5.228   5.331   1.906
 8066SOL    HW124542   5.136   5.368   1.913
 8066SOL    HW224543   5.266   5.351   1.816
 8067SOL     OW24544   5.338   5.016   3.151
 8067SOL    HW124545   5.398   5.019   3.231
 8067SOL    HW224546   5.263   5.080   3.164
 8068SOL     OW24547   4.738   3.960   2.833
 8068SOL    HW124548   4.730   3.924   2.740
 8068SOL    HW224549   4.736   3.884   2.898
 8069SOL     OW24550   4.314   5.211   2.353
 8069SOL    HW124551   4.356   5.153   2.283
 8069SOL    HW224552   4.270   5.290   2.309
 8070SOL     OW24553   5.433   4.109   3.243
 8070SOL    HW124554   5.506   4.178   3.247
 8070SOL    HW224555   5.461   4.034   3.184
 8071SOL     OW24556   3.979   5.072   2.152
 8071SOL    HW124557   3.883   5.073   2.125
 8071SOL    HW224558   3.991   5.125   2.236
 8072SOL     OW24559   3.829   4.737   3.588
 8072SOL    HW124560   3.752   4.704   3.642
 8072SOL    HW224561   3.914   4.707   3.630
 8073SOL     OW24562   4.396   3.927   3.351
 8073SOL    HW124563   4.486   3.911   3.311
 8073SOL    HW224564   4.404   3.932   3.450
 8074SOL     OW24565   3.799   4.069   1.895
 8074SOL    HW124566   3.707   4.041   1.866
 8074SOL    HW224567   3.830   4.146   1.839
 8075SOL     OW24568   5.164   4.580   3.260
 8075SOL    HW124569   5.107   4.632   3.197
 8075SOL    HW224570   5.260   4.592   3.236
 8076SOL     OW24571   3.796   3.890   2.180
 8076SOL    HW124572   3.779   3.973   2.126
 8076SOL    HW224573   3.886   3.853   2.158
 8077SOL     OW24574   4.907   5.059   1.981
 8077SOL    HW124575   4.808   5.048   1.983
 8077SOL    HW224576   4.941   5.074   2.074
 8078SOL     OW24577   4.337   4.566   3.293
 8078SOL    HW124578   4.393   4.647   3.276
 8078SOL    HW224579   4.396   4.486   3.296
 8079SOL     OW24580   5.217   5.491   2.821
 8079SOL    HW124581   5.250   5.555   2.752
 8079SOL    HW224582   5.283   5.485   2.896
 8080SOL     OW24583   4.440   4.289   3.570
 8080SOL    HW124584   4.459   4.354   3.644
 8080SOL    HW224585   4.500   4.209   3.579
 8081SOL     OW24586   5.174   4.944   3.495
 8081SOL    HW124587   5.165   4.934   3.594
 8081SOL    HW224588   5.270   4.937   3.469
 8082SOL     OW24589   5.398   4.607   3.116
 8082SOL    HW124590   5.371   4.518   3.079
 8082SOL    HW224591   5.399   4.675   3.043
 8083SOL     OW24592   4.949   4.049   2.311
 8083SOL    HW124593   5.014   3.975   2.300
 8083SOL    HW224594   4.969   4.099   2.395
 8084SOL     OW24595   4.318   4.469   2.514
 8084SOL    HW124596   4.368   4.554   2.495
 8084SOL    HW224597   4.230   4.471   2.466
 8085SOL     OW24598   5.501   4.066   3.504
 8085SOL    HW124599   5.484   4.097   3.410
 8085SOL    HW224600   5.417   4.029   3.542
 8086SOL     OW24601   5.454   4.658   3.379
 8086SOL    HW124602   5.492   4.749   3.394
 8086SOL    HW224603   5.446   4.641   3.280
 8087SOL     OW24604   4.583   5.098   1.878
 8087SOL    HW124605   4.537   5.113   1.966
 8087SOL    HW224606   4.627   5.183   1.848
 8088SOL     OW24607   4.583   4.680   2.723
 8088SOL    HW124608   4.637   4.611   2.771
 8088SOL    HW224609   4.551   4.749   2.789
 8089SOL     OW24610   4.807   4.708   1.949
 8089SOL    HW124611   4.784   4.761   1.867
 8089SOL    HW224612   4.888   4.652   1.930
 8090SOL     OW24613   5.585   5.293   2.713
 8090SOL    HW124614   5.514   5.281   2.643
 8090SOL    HW224615   5.586   5.214   2.773
 8091SOL     OW24616   3.945   5.038   3.706
 8091SOL    HW124617   3.880   4.965   3.685
 8091SOL    HW224618   3.949   5.052   3.804
 8092SOL     OW24619   3.803   4.964   2.515
 8092SOL    HW124620   3.802   4.917   2.603
 8092SOL    HW224621   3.885   4.936   2.464
 8093SOL     OW24622   4.396   5.115   3.486
 8093SOL    HW124623   4.318   5.065   3.524
 8093SOL    HW224624   4.393   5.210   3.517
 8094SOL     OW24625   5.548   3.916   3.089
 8094SOL    HW124626   5.544   3.826   3.133
 8094SOL    HW224627   5.551   3.905   2.990
 8095SOL     OW24628   4.152   4.148   2.382
 8095SOL    HW124629   4.182   4.076   2.320
 8095SOL    HW224630   4.113   4.108   2.465
 8096SOL     OW24631   5.429   5.211   2.966
 8096SOL    HW124632   5.336   5.186   2.939
 8096SOL    HW224633   5.455   5.161   3.048
 8097SOL     OW24634   4.041   4.271   3.142
 8097SOL    HW124635   4.079   4.212   3.214
 8097SOL    HW224636   4.081   4.245   3.054
 8098SOL     OW24637   5.148   3.938   2.974
 8098SOL    HW124638   5.200   3.873   3.029
 8098SOL    HW224639   5.099   4.001   3.035
 8099SOL     OW24640   4.725   3.758   3.016
 8099SOL    HW124641   4.662   3.686   2.985
 8099SOL    HW224642   4.818   3.722   3.016
 8100SOL     OW24643   4.494   5.054   2.163
 8100SOL    HW124644   4.448   4.967   2.180
 8100SOL    HW224645   4.585   5.051   2.204
 8101SOL     OW24646   5.076   3.776   2.030
 8101SOL    HW124647   5.111   3.735   1.946
 8101SOL    HW224648   4.986   3.738   2.050
 8102SOL     OW24649   5.024   4.177   2.553
 8102SOL    HW124650   4.965   4.257   2.557
 8102SOL    HW224651   5.039   4.142   2.646
 8103SOL     OW24652   5.317   3.945   2.744
 8103SOL    HW124653   5.233   3.944   2.798
 8103SOL    HW224654   5.319   4.028   2.688
 8104SOL     OW24655   3.763   4.801   2.162
 8104SOL    HW124656   3.862   4.790   2.153
 8104SOL    HW224657   3.723   4.715   2.194
 8105SOL     OW24658   3.954   4.352   3.837
 8105SOL    HW124659   3.861   4.350   3.874
 8105SOL    HW224660   3.955   4.313   3.745
 8106SOL     OW24661   3.949   3.999   4.720
 8106SOL    HW124662   3.984   3.982   4.812
 8106SOL    HW224663   3.861   3.954   4.708
 8107SOL     OW24664   3.743   4.092   4.371
 8107SOL    HW124665   3.661   4.135   4.410
 8107SOL    HW224666   3.715   4.019   4.308
 8108SOL     OW24667   4.293   4.999   4.889
 8108SOL    HW124668   4.200   4.992   4.852
 8108SOL    HW224669   4.304   5.088   4.933
 8109SOL     OW24670   5.279   5.235   4.427
 8109SOL    HW124671   5.222   5.219   4.508
 8109SOL    HW224672   5.220   5.245   4.347
 8110SOL     OW24673   4.859   4.427   4.441
 8110SOL    HW124674   4.916   4.505   4.416
 8110SOL    HW224675   4.799   4.453   4.517
 8111SOL     OW24676   5.479   4.331   3.955
 8111SOL    HW124677   5.467   4.318   3.856
 8111SOL    HW224678   5.449   4.250   4.004
 8112SOL     OW24679   4.492   4.868   4.747
 8112SOL    HW124680   4.414   4.885   4.807
 8112SOL    HW224681   4.526   4.955   4.711
 8113SOL     OW24682   4.574   4.522   5.547
 8113SOL    HW124683   4.570   4.598   5.612
 8113SOL    HW224684   4.596   4.558   5.456
 8114SOL     OW24685   4.409   4.736   4.389
 8114SOL    HW124686   4.478   4.720   4.459
 8114SOL    HW224687   4.336   4.793   4.427
 8115SOL     OW24688   4.410   4.885   5.527
 8115SOL    HW124689   4.470   4.964   5.541
 8115SOL    HW224690   4.324   4.916   5.486
 8116SOL     OW24691   4.059   5.159   4.785
 8116SOL    HW124692   3.981   5.128   4.732
 8116SOL    HW224693   4.117   5.217   4.728
 8117SOL     OW24694   5.184   5.229   5.063
 8117SOL    HW124695   5.208   5.323   5.089
 8117SOL    HW224696   5.168   5.175   5.145
 8118SOL     OW24697   4.162   4.116   5.223
 8118SOL    HW124698   4.244   4.060   5.232
 8118SOL    HW224699   4.081   4.058   5.227
 8119SOL     OW24700   5.327   4.171   4.461
 8119SOL    HW124701   5.253   4.217   4.411
 8119SOL    HW224702   5.378   4.239   4.514
 8120SOL     OW24703   4.851   5.065   5.414
 8120SOL    HW124704   4.898   5.065   5.502
 8120SOL    HW224705   4.803   4.978   5.403
 8121SOL     OW24706   3.964   4.815   4.610
 8121SOL    HW124707   3.978   4.731   4.662
 8121SOL    HW224708   3.909   4.879   4.665
 8122SOL     OW24709   4.344   5.510   5.163
 8122SOL    HW124710   4.252   5.493   5.198
 8122SOL    HW224711   4.372   5.602   5.189
 8123SOL     OW24712   4.330   4.688   3.847
 8123SOL    HW124713   4.337   4.772   3.793
 8123SOL    HW224714   4.376   4.701   3.935
 8124SOL     OW24715   5.318   3.838   5.204
 8124SOL    HW124716   5.300   3.905   5.132
 8124SOL    HW224717   5.315   3.884   5.293
 8125SOL     OW24718   3.846   4.367   4.287
 8125SOL    HW124719   3.801   4.279   4.304
 8125SOL    HW224720   3.845   4.421   4.371
 8126SOL     OW24721   5.566   5.491   4.083
 8126SOL    HW124722   5.620   5.462   4.163
 8126SOL    HW224723   5.596   5.581   4.054
 8127SOL     OW24724   5.413   4.646   4.336
 8127SOL    HW124725   5.508   4.617   4.344
 8127SOL    HW224726   5.405   4.711   4.261
 8128SOL     OW24727   5.365   4.832   4.156
 8128SOL    HW124728   5.451   4.834   4.104
 8128SOL    HW224729   5.379   4.879   4.244
 8129SOL     OW24730   3.837   4.461   5.321
 8129SOL    HW124731   3.925   4.448   5.366
 8129SOL    HW224732   3.824   4.558   5.299
 8130SOL     OW24733   4.337   5.089   4.450
 8130SOL    HW124734   4.288   5.002   4.459
 8130SOL    HW224735   4.314   5.132   4.363
 8131SOL     OW24736   5.017   4.952   5.147
 8131SOL    HW124737   5.054   4.879   5.089
 8131SOL    HW224738   5.069   4.957   5.232
 8132SOL     OW24739   4.533   3.728   4.226
 8132SOL    HW124740   4.573   3.819   4.217
 8132SOL    HW224741   4.433   3.736   4.232
 8133SOL     OW24742   3.921   4.700   4.988
 8133SOL    HW124743   4.010   4.655   4.974
 8133SOL    HW224744   3.848   4.635   4.969
 8134SOL     OW24745   5.249   4.723   3.914
 8134SOL    HW124746   5.186   4.647   3.927
 8134SOL    HW224747   5.297   4.741   4.000
 8135SOL     OW24748   4.911   5.516   5.340
 8135SOL    HW124749   4.935   5.576   5.264
 8135SOL    HW224750   4.918   5.421   5.310
 8136SOL     OW24751   4.041   3.975   5.525
 8136SOL    HW124752   4.112   4.046   5.531
 8136SOL    HW224753   3.953   4.014   5.553
 8137SOL     OW24754   5.190   5.141   4.677
 8137SOL    HW124755   5.131   5.147   4.757
 8137SOL    HW224756   5.175   5.053   4.631
 8138SOL     OW24757   5.391   5.438   4.296
 8138SOL    HW124758   5.350   5.415   4.208
 8138SOL    HW224759   5.373   5.364   4.361
 8139SOL     OW24760   4.322   4.453   3.994
 8139SOL    HW124761   4.346   4.522   3.926
 8139SOL    HW224762   4.244   4.486   4.048
 8140SOL     OW24763   5.005   4.069   4.668
 8140SOL    HW124764   4.919   4.019   4.655
 8140SOL    HW224765   5.067   4.015   4.724
 8141SOL     OW24766   5.300   5.386   4.031
 8141SOL    HW124767   5.389   5.432   4.034
 8141SOL    HW224768   5.279   5.362   3.936
 8142SOL     OW24769   4.531   4.329   5.189
 8142SOL    HW124770   4.484   4.326   5.278
 8142SOL    HW224771   4.480   4.274   5.123
 8143SOL     OW24772   5.118   4.193   5.398
 8143SOL    HW124773   5.098   4.236   5.486
 8143SOL    HW224774   5.196   4.131   5.407
 8144SOL     OW24775   4.697   4.614   5.296
 8144SOL    HW124776   4.743   4.530   5.267
 8144SOL    HW224777   4.641   4.648   5.221
 8145SOL     OW24778   4.715   4.134   4.966
 8145SOL    HW124779   4.638   4.168   5.020
 8145SOL    HW224780   4.681   4.083   4.887
 8146SOL     OW24781   4.765   4.425   4.153
 8146SOL    HW124782   4.791   4.421   4.249
 8146SOL    HW224783   4.680   4.374   4.139
 8147SOL     OW24784   3.800   4.535   4.513
 8147SOL    HW124785   3.899   4.523   4.522
 8147SOL    HW224786   3.776   4.630   4.534
 8148SOL     OW24787   3.854   5.545   5.295
 8148SOL    HW124788   3.844   5.530   5.394
 8148SOL    HW224789   3.768   5.581   5.259
 8149SOL     OW24790   4.589   4.072   3.919
 8149SOL    HW124791   4.648   4.135   3.870
 8149SOL    HW224792   4.608   3.978   3.890
 8150SOL     OW24793   5.443   4.309   5.555
 8150SOL    HW124794   5.417   4.398   5.519
 8150SOL    HW224795   5.441   4.241   5.482
 8151SOL     OW24796   5.086   4.868   4.269
 8151SOL    HW124797   5.169   4.839   4.221
 8151SOL    HW224798   5.037   4.935   4.213
 8152SOL     OW24799   4.274   3.920   4.609
 8152SOL    HW124800   4.269   3.915   4.709
 8152SOL    HW224801   4.276   4.016   4.580
 8153SOL     OW24802   4.732   5.180   4.201
 8153SOL    HW124803   4.686   5.252   4.149
 8153SOL    HW224804   4.728   5.200   4.299
 8154SOL     OW24805   4.075   5.525   4.577
 8154SOL    HW124806   4.125   5.439   4.583
 8154SOL    HW224807   4.140   5.602   4.574
 8155SOL     OW24808   5.519   4.790   4.597
 8155SOL    HW124809   5.457   4.775   4.521
 8155SOL    HW224810   5.467   4.801   4.682
 8156SOL     OW24811   4.951   5.274   5.230
 8156SOL    HW124812   4.957   5.197   5.294
 8156SOL    HW224813   4.899   5.248   5.150
 8157SOL     OW24814   4.045   4.667   3.966
 8157SOL    HW124815   4.127   4.706   3.924
 8157SOL    HW224816   4.018   4.585   3.917
 8158SOL     OW24817   5.182   4.459   4.452
 8158SOL    HW124818   5.177   4.394   4.527
 8158SOL    HW224819   5.262   4.518   4.465
 8159SOL     OW24820   4.185   4.990   5.451
 8159SOL    HW124821   4.135   4.991   5.365
 8159SOL    HW224822   4.122   4.972   5.527
 8160SOL     OW24823   4.835   5.500   3.961
 8160SOL    HW124824   4.775   5.438   4.011
 8160SOL    HW224825   4.866   5.456   3.876
 8161SOL     OW24826   3.926   4.009   5.222
 8161SOL    HW124827   3.846   4.069   5.209
 8161SOL    HW224828   3.916   3.960   5.308
 8162SOL     OW24829   5.356   5.101   3.805
 8162SOL    HW124830   5.324   5.195   3.795
 8162SOL    HW224831   5.280   5.038   3.793
 8163SOL     OW24832   5.124   3.831   4.150
 8163SOL    HW124833   5.100   3.794   4.060
 8163SOL    HW224834   5.223   3.847   4.154
 8164SOL     OW24835   3.973   5.509   4.965
 8164SOL    HW124836   4.030   5.444   5.015
 8164SOL    HW224837   3.957   5.476   4.872
 8165SOL     OW24838   4.664   5.422   4.628
 8165SOL    HW124839   4.744   5.365   4.649
 8165SOL    HW224840   4.615   5.382   4.551
 8166SOL     OW24841   4.106   4.424   4.204
 8166SOL    HW124842   4.151   4.334   4.201
 8166SOL    HW224843   4.012   4.413   4.237
 8167SOL     OW24844   5.271   3.946   5.453
 8167SOL    HW124845   5.266   3.983   5.545
 8167SOL    HW224846   5.199   3.877   5.441
 8168SOL     OW24847   4.338   3.846   3.841
 8168SOL    HW124848   4.436   3.824   3.848
 8168SOL    HW224849   4.307   3.829   3.748
 8169SOL     OW24850   4.505   3.988   5.473
 8169SOL    HW124851   4.572   3.927   5.516
 8169SOL    HW224852   4.432   4.007   5.538
 8170SOL     OW24853   4.612   5.238   4.919
 8170SOL    HW124854   4.589   5.213   4.825
 8170SOL    HW224855   4.673   5.169   4.958
 8171SOL     OW24856   5.075   4.314   5.157
 8171SOL    HW124857   5.103   4.271   5.242
 8171SOL    HW224858   5.100   4.410   5.158
 8172SOL     OW24859   4.527   5.126   4.648
 8172SOL    HW124860   4.617   5.140   4.606
 8172SOL    HW224861   4.456   5.128   4.577
 8173SOL     OW24862   4.646   4.227   4.623
 8173SOL    HW124863   4.621   4.218   4.527
 8173SOL    HW224864   4.694   4.145   4.654
 8174SOL     OW24865   4.263   3.788   4.236
 8174SOL    HW124866   4.182   3.789   4.294
 8174SOL    HW224867   4.266   3.871   4.181
 8175SOL     OW24868   5.158   4.912   3.765
 8175SOL    HW124869   5.190   4.836   3.822
 8175SOL    HW224870   5.066   4.939   3.795
 8176SOL     OW24871   4.021   3.759   3.895
 8176SOL    HW124872   4.070   3.843   3.874
 8176SOL    HW224873   4.083   3.694   3.940
 8177SOL     OW24874   4.659   3.960   4.204
 8177SOL    HW124875   4.611   4.001   4.126
 8177SOL    HW224876   4.758   3.958   4.185
 8178SOL     OW24877   4.800   4.407   5.188
 8178SOL    HW124878   4.720   4.346   5.191
 8178SOL    HW224879   4.881   4.354   5.164
 8179SOL     OW24880   4.951   5.294   4.517
 8179SOL    HW124881   4.972   5.368   4.452
 8179SOL    HW224882   5.019   5.294   4.590
 8180SOL     OW24883   4.183   4.876   4.465
 8180SOL    HW124884   4.112   4.849   4.530
 8180SOL    HW224885   4.157   4.848   4.372
 8181SOL     OW24886   4.995   5.521   4.315
 8181SOL    HW124887   5.039   5.585   4.251
 8181SOL    HW224888   4.945   5.573   4.385
 8182SOL     OW24889   4.756   4.273   3.740
 8182SOL    HW124890   4.715   4.355   3.701
 8182SOL    HW224891   4.820   4.299   3.813
 8183SOL     OW24892   3.802   4.280   5.110
 8183SOL    HW124893   3.894   4.279   5.069
 8183SOL    HW224894   3.796   4.354   5.177
 8184SOL     OW24895   4.285   3.946   4.871
 8184SOL    HW124896   4.323   3.862   4.908
 8184SOL    HW224897   4.197   3.965   4.915
 8185SOL     OW24898   4.590   4.178   4.366
 8185SOL    HW124899   4.558   4.250   4.304
 8185SOL    HW224900   4.614   4.097   4.313
 8186SOL     OW24901   4.741   3.763   4.477
 8186SOL    HW124902   4.669   3.768   4.408
 8186SOL    HW224903   4.717   3.694   4.546
 8187SOL     OW24904   5.153   4.897   4.591
 8187SOL    HW124905   5.098   4.813   4.584
 8187SOL    HW224906   5.179   4.926   4.499
 8188SOL     OW24907   5.190   4.314   4.716
 8188SOL    HW124908   5.160   4.219   4.723
 8188SOL    HW224909   5.263   4.330   4.782
 8189SOL     OW24910   5.581   4.557   4.101
 8189SOL    HW124911   5.623   4.493   4.165
 8189SOL    HW224912   5.543   4.506   4.023
 8190SOL     OW24913   4.212   5.109   3.898
 8190SOL    HW124914   4.125   5.094   3.945
 8190SOL    HW224915   4.195   5.135   3.803
 8191SOL     OW24916   5.388   5.004   4.381
 8191SOL    HW124917   5.487   5.012   4.395
 8191SOL    HW224918   5.343   5.088   4.412
 8192SOL     OW24919   5.114   4.299   3.802
 8192SOL    HW124920   5.060   4.278   3.883
 8192SOL    HW224921   5.205   4.258   3.811
 8193SOL     OW24922   4.251   3.980   4.052
 8193SOL    HW124923   4.278   3.921   3.977
 8193SOL    HW224924   4.251   4.075   4.021
 8194SOL     OW24925   5.478   4.947   5.312
 8194SOL    HW124926   5.569   4.908   5.299
 8194SOL    HW224927   5.486   5.043   5.336
 8195SOL     OW24928   4.788   5.071   5.064
 8195SOL    HW124929   4.708   5.048   5.119
 8195SOL    HW224930   4.871   5.045   5.113
 8196SOL     OW24931   5.316   5.353   5.349
 8196SOL    HW124932   5.343   5.387   5.259
 8196SOL    HW224933   5.395   5.315   5.395
 8197SOL     OW24934   4.835   4.919   4.824
 8197SOL    HW124935   4.795   4.963   4.905
 8197SOL    HW224936   4.794   4.956   4.741
 8198SOL     OW24937   5.362   4.823   4.803
 8198SOL    HW124938   5.367   4.904   4.862
 8198SOL    HW224939   5.276   4.825   4.752
 8199SOL     OW24940   4.639   3.813   5.126
 8199SOL    HW124941   4.664   3.793   5.031
 8199SOL    HW224942   4.711   3.869   5.168
 8200SOL     OW24943   4.704   4.840   5.443
 8200SOL    HW124944   4.605   4.846   5.453
 8200SOL    HW224945   4.727   4.760   5.387
 8201SOL     OW24946   4.429   4.774   4.092
 8201SOL    HW124947   4.415   4.781   4.191
 8201SOL    HW224948   4.513   4.723   4.074
 8202SOL     OW24949   4.134   4.537   4.975
 8202SOL    HW124950   4.220   4.549   5.025
 8202SOL    HW224951   4.092   4.450   5.002
 8203SOL     OW24952   4.998   4.110   4.986
 8203SOL    HW124953   5.019   4.184   5.050
 8203SOL    HW224954   4.909   4.127   4.943
 8204SOL     OW24955   3.788   5.288   5.055
 8204SOL    HW124956   3.742   5.370   5.021
 8204SOL    HW224957   3.886   5.307   5.064
 8205SOL     OW24958   4.290   4.261   4.589
 8205SOL    HW124959   4.302   4.327   4.515
 8205SOL    HW224960   4.336   4.295   4.672
 8206SOL     OW24961   4.976   5.072   4.112
 8206SOL    HW124962   5.026   5.149   4.152
 8206SOL    HW224963   4.881   5.074   4.144
 8207SOL     OW24964   4.996   5.169   4.866
 8207SOL    HW124965   5.043   5.182   4.953
 8207SOL    HW224966   4.930   5.095   4.875
 8208SOL     OW24967   5.306   4.363   4.196
 8208SOL    HW124968   5.275   4.424   4.269
 8208SOL    HW224969   5.356   4.415   4.127
 8209SOL     OW24970   4.078   5.234   5.053
 8209SOL    HW124971   4.057   5.190   4.966
 8209SOL    HW224972   4.175   5.260   5.056
 8210SOL     OW24973   4.126   4.475   5.322
 8210SOL    HW124974   4.194   4.530   5.275
 8210SOL    HW224975   4.166   4.387   5.349
 8211SOL     OW24976   5.311   4.503   5.394
 8211SOL    HW124977   5.219   4.541   5.389
 8211SOL    HW224978   5.371   4.550   5.329
 8212SOL     OW24979   4.737   3.829   5.494
 8212SOL    HW124980   4.743   3.914   5.442
 8212SOL    HW224981   4.769   3.753   5.437
 8213SOL     OW24982   4.228   3.774   5.464
 8213SOL    HW124983   4.186   3.717   5.394
 8213SOL    HW224984   4.162   3.843   5.496
 8214SOL     OW24985   4.297   4.594   4.753
 8214SOL    HW124986   4.341   4.683   4.744
 8214SOL    HW224987   4.234   4.594   4.830
 8215SOL     OW24988   5.084   4.586   4.769
 8215SOL    HW124989   5.009   4.586   4.703
 8215SOL    HW224990   5.121   4.494   4.778
 8216SOL     OW24991   4.933   4.249   3.999
 8216SOL    HW124992   4.946   4.165   4.053
 8216SOL    HW224993   4.904   4.323   4.059
 8217SOL     OW24994   4.031   3.937   4.955
 8217SOL    HW124995   4.008   3.974   5.045
 8217SOL    HW224996   4.001   3.842   4.949
 8218SOL     OW24997   3.761   5.034   5.006
 8218SOL    HW124998   3.814   4.985   5.074
 8218SOL    HW224999   3.783   5.132   5.011
 8219SOL     OW25000   4.456   4.358   4.788
 8219SOL    HW125001   4.515   4.332   4.712
 8219SOL    HW225002   4.428   4.454   4.777
 8220SOL     OW25003   5.452   4.659   5.578
 8220SOL    HW125004   5.406   4.652   5.489
 8220SOL    HW225005   5.390   4.703   5.644
 8221SOL     OW25006   4.031   3.787   4.342
 8221SOL    HW125007   4.020   3.881   4.375
 8221SOL    HW225008   4.026   3.724   4.419
 8222SOL     OW25009   5.346   4.091   4.098
 8222SOL    HW125010   5.348   4.015   4.162
 8222SOL    HW225011   5.298   4.168   4.138
 8223SOL     OW25012   4.747   4.490   4.690
 8223SOL    HW125013   4.762   4.511   4.786
 8223SOL    HW225014   4.717   4.395   4.681
 8224SOL     OW25015   4.704   5.297   5.424
 8224SOL    HW125016   4.684   5.341   5.336
 8224SOL    HW225017   4.743   5.206   5.408
 8225SOL     OW25018   5.583   5.242   5.329
 8225SOL    HW125019   5.597   5.269   5.234
 8225SOL    HW225020   5.666   5.264   5.382
 8226SOL     OW25021   4.074   4.622   5.528
 8226SOL    HW125022   4.150   4.666   5.576
 8226SOL    HW225023   4.109   4.575   5.446
 8227SOL     OW25024   5.264   3.998   3.849
 8227SOL    HW125025   5.203   3.923   3.872
 8227SOL    HW225026   5.286   4.050   3.932
 8228SOL     OW25027   5.027   4.562   3.766
 8228SOL    HW125028   5.061   4.469   3.781
 8228SOL    HW225029   5.045   4.589   3.671
 8229SOL     OW25030   4.792   5.057   4.573
 8229SOL    HW125031   4.799   4.973   4.518
 8229SOL    HW225032   4.854   5.126   4.537
 8230SOL     OW25033   4.043   4.534   4.673
 8230SOL    HW125034   4.136   4.570   4.678
 8230SOL    HW225035   4.037   4.449   4.725
 8231SOL     OW25036   4.063   4.233   4.730
 8231SOL    HW125037   4.011   4.150   4.713
 8231SOL    HW225038   4.140   4.238   4.666
 8232SOL     OW25039   4.862   4.104   5.402
 8232SOL    HW125040   4.817   4.167   5.466
 8232SOL    HW225041   4.955   4.135   5.385
 8233SOL     OW25042   4.884   3.931   5.201
 8233SOL    HW125043   4.884   3.995   5.278
 8233SOL    HW225044   4.912   3.979   5.118
 8234SOL     OW25045   3.812   5.525   4.651
 8234SOL    HW125046   3.770   5.439   4.624
 8234SOL    HW225047   3.906   5.528   4.617
 8235SOL     OW25048   4.228   5.292   4.634
 8235SOL    HW125049   4.294   5.366   4.643
 8235SOL    HW225050   4.272   5.213   4.592
 8236SOL     OW25051   4.726   4.520   4.962
 8236SOL    HW125052   4.767   4.488   5.048
 8236SOL    HW225053   4.630   4.493   4.959
 8237SOL     OW25054   3.764   4.268   4.838
 8237SOL    HW125055   3.849   4.235   4.797
 8237SOL    HW225056   3.777   4.283   4.936
 8238SOL     OW25057   3.913   4.244   5.446
 8238SOL    HW125058   3.972   4.204   5.376
 8238SOL    HW225059   3.855   4.315   5.405
 8239SOL     OW25060   5.093   4.674   5.384
 8239SOL    HW125061   5.132   4.763   5.404
 8239SOL    HW225062   5.103   4.654   5.287
 8240SOL     OW25063   4.539   4.296   4.049
 8240SOL    HW125064   4.546   4.207   4.003
 8240SOL    HW225065   4.445   4.330   4.041
 8241SOL     OW25066   5.381   4.328   4.930
 8241SOL    HW125067   5.343   4.259   4.992
 8241SOL    HW225068   5.463   4.292   4.886
 8242SOL     OW25069   3.976   5.288   5.468
 8242SOL    HW125070   3.946   5.345   5.544
 8242SOL    HW225071   3.969   5.191   5.494
 8243SOL     OW25072   4.395   4.188   4.993
 8243SOL    HW125073   4.361   4.099   4.963
 8243SOL    HW225074   4.421   4.242   4.913
 8244SOL     OW25075   4.654   5.402   5.189
 8244SOL    HW125076   4.630   5.384   5.094
 8244SOL    HW225077   4.684   5.496   5.199
 8245SOL     OW25078   4.197   4.224   3.915
 8245SOL    HW125079   4.258   4.304   3.919
 8245SOL    HW225080   4.102   4.255   3.922
 8246SOL     OW25081   3.883   4.861   5.190
 8246SOL    HW125082   3.905   4.800   5.266
 8246SOL    HW225083   3.893   4.812   5.104
 8247SOL     OW25084   5.071   4.783   4.958
 8247SOL    HW125085   5.095   4.720   4.884
 8247SOL    HW225086   4.981   4.823   4.940
 8248SOL     OW25087   5.026   4.579   4.033
 8248SOL    HW125088   4.940   4.548   4.075
 8248SOL    HW225089   5.022   4.565   3.934
 8249SOL     OW25090   5.483   5.471   4.878
 8249SOL    HW125091   5.544   5.501   4.805
 8249SOL    HW225092   5.445   5.382   4.856
 8250SOL     OW25093   4.976   5.455   4.852
 8250SOL    HW125094   5.060   5.460   4.798
 8250SOL    HW225095   4.953   5.359   4.870
 8251SOL     OW25096   3.807   4.982   4.746
 8251SOL    HW125097   3.802   4.981   4.846
 8251SOL    HW225098   3.724   4.941   4.708
 8252SOL     OW25099   4.412   5.386   5.440
 8252SOL    HW125100   4.356   5.467   5.449
 8252SOL    HW225101   4.464   5.390   5.354
 8253SOL     OW25102   5.450   3.859   4.247
 8253SOL    HW125103   5.523   3.842   4.180
 8253SOL    HW225104   5.419   3.772   4.285
 8254SOL     OW25105   5.112   5.297   4.201
 8254SOL    HW125106   5.179   5.309   4.127
 8254SOL    HW225107   5.072   5.386   4.224
 8255SOL     OW25108   3.854   5.518   5.575
 8255SOL    HW125109   3.813   5.444   5.628
 8255SOL    HW225110   3.918   5.569   5.633
 8256SOL     OW25111   5.004   4.651   4.396
 8256SOL    HW125112   5.064   4.570   4.398
 8256SOL    HW225113   5.044   4.720   4.336
 8257SOL     OW25114   4.554   4.997   5.146
 8257SOL    HW125115   4.549   5.030   5.241
 8257SOL    HW225116   4.468   5.016   5.100
 8258SOL     OW25117   5.374   5.444   5.118
 8258SOL    HW125118   5.427   5.454   5.034
 8258SOL    HW225119   5.347   5.534   5.152
 8259SOL     OW25120   5.565   3.899   4.687
 8259SOL    HW125121   5.604   3.814   4.651
 8259SOL    HW225122   5.467   3.901   4.668
 8260SOL     OW25123   3.987   4.050   4.444
 8260SOL    HW125124   3.908   4.101   4.410
 8260SOL    HW225125   3.978   4.035   4.542
 8261SOL     OW25126   4.918   5.336   3.755
 8261SOL    HW125127   4.924   5.243   3.792
 8261SOL    HW225128   4.859   5.336   3.675
 8262SOL     OW25129   4.546   4.726   5.096
 8262SOL    HW125130   4.586   4.725   5.004
 8262SOL    HW225131   4.556   4.818   5.136
 8263SOL     OW25132   4.640   4.634   4.015
 8263SOL    HW125133   4.703   4.672   3.947
 8263SOL    HW225134   4.680   4.551   4.054
 8264SOL     OW25135   5.228   5.331   3.768
 8264SOL    HW125136   5.136   5.368   3.775
 8264SOL    HW225137   5.266   5.351   3.678
 8265SOL     OW25138   4.096   5.012   5.214
 8265SOL    HW125139   4.083   5.105   5.180
 8265SOL    HW225140   4.012   4.960   5.201
 8266SOL     OW25141   5.338   5.016   5.013
 8266SOL    HW125142   5.398   5.019   5.093
 8266SOL    HW225143   5.263   5.080   5.026
 8267SOL     OW25144   4.763   4.822   4.420
 8267SOL    HW125145   4.693   4.775   4.474
 8267SOL    HW225146   4.822   4.754   4.377
 8268SOL     OW25147   4.738   3.960   4.695
 8268SOL    HW125148   4.730   3.924   4.602
 8268SOL    HW225149   4.736   3.884   4.760
 8269SOL     OW25150   4.314   5.211   4.215
 8269SOL    HW125151   4.356   5.153   4.145
 8269SOL    HW225152   4.270   5.290   4.171
 8270SOL     OW25153   5.433   4.109   5.105
 8270SOL    HW125154   5.506   4.178   5.109
 8270SOL    HW225155   5.461   4.034   5.046
 8271SOL     OW25156   3.829   4.737   5.450
 8271SOL    HW125157   3.752   4.704   5.504
 8271SOL    HW225158   3.914   4.707   5.492
 8272SOL     OW25159   4.396   3.927   5.213
 8272SOL    HW125160   4.486   3.911   5.173
 8272SOL    HW225161   4.404   3.932   5.312
 8273SOL     OW25162   3.799   4.069   3.757
 8273SOL    HW125163   3.707   4.041   3.728
 8273SOL    HW225164   3.830   4.146   3.701
 8274SOL     OW25165   5.164   4.580   5.122
 8274SOL    HW125166   5.107   4.632   5.059
 8274SOL    HW225167   5.260   4.592   5.098
 8275SOL     OW25168   3.796   3.890   4.042
 8275SOL    HW125169   3.779   3.973   3.988
 8275SOL    HW225170   3.886   3.853   4.020
 8276SOL     OW25171   4.907   5.059   3.843
 8276SOL    HW125172   4.808   5.048   3.845
 8276SOL    HW225173   4.941   5.074   3.936
 8277SOL     OW25174   4.337   4.566   5.155
 8277SOL    HW125175   4.393   4.647   5.138
 8277SOL    HW225176   4.396   4.486   5.158
 8278SOL     OW25177   5.217   5.491   4.683
 8278SOL    HW125178   5.250   5.555   4.614
 8278SOL    HW225179   5.283   5.485   4.758
 8279SOL     OW25180   4.440   4.289   5.432
 8279SOL    HW125181   4.459   4.354   5.506
 8279SOL    HW225182   4.500   4.209   5.441
 8280SOL     OW25183   5.174   4.944   5.357
 8280SOL    HW125184   5.165   4.934   5.456
 8280SOL    HW225185   5.270   4.937   5.331
 8281SOL     OW25186   4.114   5.465   5.284
 8281SOL    HW125187   4.023   5.506   5.282
 8281SOL    HW225188   4.107   5.371   5.316
 8282SOL     OW25189   5.398   4.607   4.978
 8282SOL    HW125190   5.371   4.518   4.941
 8282SOL    HW225191   5.399   4.675   4.905
 8283SOL     OW25192   4.949   4.049   4.173
 8283SOL    HW125193   5.014   3.975   4.162
 8283SOL    HW225194   4.969   4.099   4.257
 8284SOL     OW25195   4.318   4.469   4.376
 8284SOL    HW125196   4.368   4.554   4.357
 8284SOL    HW225197   4.230   4.471   4.328
 8285SOL     OW25198   5.501   4.066   5.366
 8285SOL    HW125199   5.484   4.097   5.272
 8285SOL    HW225200   5.417   4.029   5.404
 8286SOL     OW25201   5.454   4.658   5.241
 8286SOL    HW125202   5.492   4.749   5.256
 8286SOL    HW225203   5.446   4.641   5.142
 8287SOL     OW25204   4.583   5.098   3.740
 8287SOL    HW125205   4.537   5.113   3.828
 8287SOL    HW225206   4.627   5.183   3.710
 8288SOL     OW25207   4.385   5.514   4.677
 8288SOL    HW125208   4.339   5.602   4.664
 8288SOL    HW225209   4.484   5.526   4.670
 8289SOL     OW25210   4.583   4.680   4.585
 8289SOL    HW125211   4.637   4.611   4.633
 8289SOL    HW225212   4.551   4.749   4.651
 8290SOL     OW25213   4.807   4.708   3.811
 8290SOL    HW125214   4.784   4.761   3.729
 8290SOL    HW225215   4.888   4.652   3.792
 8291SOL     OW25216   5.585   5.293   4.575
 8291SOL    HW125217   5.514   5.281   4.505
 8291SOL    HW225218   5.586   5.214   4.635
 8292SOL     OW25219   3.945   5.038   5.568
 8292SOL    HW125220   3.880   4.965   5.547
 8292SOL    HW225221   3.949   5.052   5.666
 8293SOL     OW25222   4.396   5.115   5.348
 8293SOL    HW125223   4.318   5.065   5.386
 8293SOL    HW225224   4.393   5.210   5.379
 8294SOL     OW25225   5.548   3.916   4.951
 8294SOL    HW125226   5.544   3.826   4.995
 8294SOL    HW225227   5.551   3.905   4.852
 8295SOL     OW25228   4.152   4.148   4.244
 8295SOL    HW125229   4.182   4.076   4.182
 8295SOL    HW225230   4.113   4.108   4.327
 8296SOL     OW25231   5.429   5.211   4.828
 8296SOL    HW125232   5.336   5.186   4.801
 8296SOL    HW225233   5.455   5.161   4.910
 8297SOL     OW25234   4.041   4.271   5.004
 8297SOL    HW125235   4.079   4.212   5.076
 8297SOL    HW225236   4.081   4.245   4.916
 8298SOL     OW25237   4.536   5.310   4.411
 8298SOL    HW125238   4.568   5.320   4.317
 8298SOL    HW225239   4.457   5.248   4.413
 8299SOL     OW25240   5.148   3.938   4.836
 8299SOL    HW125241   5.200   3.873   4.891
 8299SOL    HW225242   5.099   4.001   4.897
 8300SOL     OW25243   4.725   3.758   4.878
 8300SOL    HW125244   4.662   3.686   4.847
 8300SOL    HW225245   4.818   3.722   4.878
 8301SOL     OW25246   4.494   5.054   4.025
 8301SOL    HW125247   4.448   4.967   4.042
 8301SOL    HW225248   4.585   5.051   4.066
 8302SOL     OW25249   4.342   5.291   5.008
 8302SOL    HW125250   4.337   5.373   5.065
 8302SOL    HW225251   4.431   5.288   4.963
 8303SOL     OW25252   5.076   3.776   3.892
 8303SOL    HW125253   5.111   3.735   3.808
 8303SOL    HW225254   4.986   3.738   3.912
 8304SOL     OW25255   5.024   4.177   4.415
 8304SOL    HW125256   4.965   4.257   4.419
 8304SOL    HW225257   5.039   4.142   4.508
 8305SOL     OW25258   5.317   3.945   4.606
 8305SOL    HW125259   5.233   3.944   4.660
 8305SOL    HW225260   5.319   4.028   4.550
 8306SOL     OW25261   3.763   4.801   4.024
 8306SOL    HW125262   3.862   4.790   4.015
 8306SOL    HW225263   3.723   4.715   4.056
 8307SOL     OW25264   4.599   5.370   4.061
 8307SOL    HW125265   4.522   5.335   4.007
 8307SOL    HW225266   4.567   5.441   4.123
 8308SOL     OW25267   3.954   4.352   5.699
 8308SOL    HW125268   3.861   4.350   5.736
 8308SOL    HW225269   3.955   4.313   5.607
 8309SOL     OW25270   3.949   3.999   6.582
 8309SOL    HW125271   3.984   3.982   6.674
 8309SOL    HW225272   3.861   3.954   6.570
 8310SOL     OW25273   3.743   4.092   6.233
 8310SOL    HW125274   3.661   4.135   6.272
 8310SOL    HW225275   3.715   4.019   6.170
 8311SOL     OW25276   4.293   4.999   6.751
 8311SOL    HW125277   4.200   4.992   6.714
 8311SOL    HW225278   4.304   5.088   6.795
 8312SOL     OW25279   5.279   5.235   6.289
 8312SOL    HW125280   5.222   5.219   6.370
 8312SOL    HW225281   5.220   5.245   6.209
 8313SOL     OW25282   4.859   4.427   6.303
 8313SOL    HW125283   4.916   4.505   6.278
 8313SOL    HW225284   4.799   4.453   6.379
 8314SOL     OW25285   5.479   4.331   5.817
 8314SOL    HW125286   5.467   4.318   5.718
 8314SOL    HW225287   5.449   4.250   5.866
 8315SOL     OW25288   4.492   4.868   6.609
 8315SOL    HW125289   4.414   4.885   6.669
 8315SOL    HW225290   4.526   4.955   6.573
 8316SOL     OW25291   4.409   4.736   6.251
 8316SOL    HW125292   4.478   4.720   6.321
 8316SOL    HW225293   4.336   4.793   6.289
 8317SOL     OW25294   4.059   5.159   6.647
 8317SOL    HW125295   3.981   5.128   6.594
 8317SOL    HW225296   4.117   5.217   6.590
 8318SOL     OW25297   5.327   4.171   6.323
 8318SOL    HW125298   5.253   4.217   6.273
 8318SOL    HW225299   5.378   4.239   6.376
 8319SOL     OW25300   3.955   5.437   6.069
 8319SOL    HW125301   3.989   5.514   6.123
 8319SOL    HW225302   3.999   5.437   5.979
 8320SOL     OW25303   3.954   5.158   6.124
 8320SOL    HW125304   3.928   5.254   6.124
 8320SOL    HW225305   3.883   5.104   6.169
 8321SOL     OW25306   3.964   4.815   6.472
 8321SOL    HW125307   3.978   4.731   6.524
 8321SOL    HW225308   3.909   4.879   6.527
 8322SOL     OW25309   4.330   4.688   5.709
 8322SOL    HW125310   4.337   4.772   5.655
 8322SOL    HW225311   4.376   4.701   5.797
 8323SOL     OW25312   3.846   4.367   6.149
 8323SOL    HW125313   3.801   4.279   6.166
 8323SOL    HW225314   3.845   4.421   6.233
 8324SOL     OW25315   5.566   5.491   5.945
 8324SOL    HW125316   5.620   5.462   6.025
 8324SOL    HW225317   5.596   5.581   5.916
 8325SOL     OW25318   3.751   5.320   5.703
 8325SOL    HW125319   3.732   5.224   5.724
 8325SOL    HW225320   3.718   5.378   5.778
 8326SOL     OW25321   5.413   4.646   6.198
 8326SOL    HW125322   5.508   4.617   6.206
 8326SOL    HW225323   5.405   4.711   6.123
 8327SOL     OW25324   5.365   4.832   6.018
 8327SOL    HW125325   5.451   4.834   5.966
 8327SOL    HW225326   5.379   4.879   6.106
 8328SOL     OW25327   4.337   5.089   6.312
 8328SOL    HW125328   4.288   5.002   6.321
 8328SOL    HW225329   4.314   5.132   6.225
 8329SOL     OW25330   4.533   3.728   6.088
 8329SOL    HW125331   4.573   3.819   6.079
 8329SOL    HW225332   4.433   3.736   6.094
 8330SOL     OW25333   5.249   4.723   5.776
 8330SOL    HW125334   5.186   4.647   5.789
 8330SOL    HW225335   5.297   4.741   5.862
 8331SOL     OW25336   5.391   5.438   6.158
 8331SOL    HW125337   5.350   5.415   6.070
 8331SOL    HW225338   5.373   5.364   6.223
 8332SOL     OW25339   4.322   4.453   5.856
 8332SOL    HW125340   4.346   4.522   5.788
 8332SOL    HW225341   4.244   4.486   5.910
 8333SOL     OW25342   5.005   4.069   6.530
 8333SOL    HW125343   4.919   4.019   6.517
 8333SOL    HW225344   5.067   4.015   6.586
 8334SOL     OW25345   5.300   5.386   5.893
 8334SOL    HW125346   5.389   5.432   5.896
 8334SOL    HW225347   5.279   5.362   5.798
 8335SOL     OW25348   4.715   4.134   6.828
 8335SOL    HW125349   4.638   4.168   6.882
 8335SOL    HW225350   4.681   4.083   6.749
 8336SOL     OW25351   4.765   4.425   6.015
 8336SOL    HW125352   4.791   4.421   6.111
 8336SOL    HW225353   4.680   4.374   6.001
 8337SOL     OW25354   3.800   4.535   6.375
 8337SOL    HW125355   3.899   4.523   6.384
 8337SOL    HW225356   3.776   4.630   6.396
 8338SOL     OW25357   4.589   4.072   5.781
 8338SOL    HW125358   4.648   4.135   5.732
 8338SOL    HW225359   4.608   3.978   5.752
 8339SOL     OW25360   5.086   4.868   6.131
 8339SOL    HW125361   5.169   4.839   6.083
 8339SOL    HW225362   5.037   4.935   6.075
 8340SOL     OW25363   4.732   5.180   6.063
 8340SOL    HW125364   4.686   5.252   6.011
 8340SOL    HW225365   4.728   5.200   6.161
 8341SOL     OW25366   4.075   5.525   6.439
 8341SOL    HW125367   4.125   5.439   6.445
 8341SOL    HW225368   4.140   5.602   6.436
 8342SOL     OW25369   5.519   4.790   6.459
 8342SOL    HW125370   5.457   4.775   6.383
 8342SOL    HW225371   5.467   4.801   6.544
 8343SOL     OW25372   4.045   4.667   5.828
 8343SOL    HW125373   4.127   4.706   5.786
 8343SOL    HW225374   4.018   4.585   5.779
 8344SOL     OW25375   5.182   4.459   6.314
 8344SOL    HW125376   5.177   4.394   6.389
 8344SOL    HW225377   5.262   4.518   6.327
 8345SOL     OW25378   4.835   5.500   5.823
 8345SOL    HW125379   4.775   5.438   5.873
 8345SOL    HW225380   4.866   5.456   5.738
 8346SOL     OW25381   5.356   5.101   5.667
 8346SOL    HW125382   5.324   5.195   5.657
 8346SOL    HW225383   5.280   5.038   5.655
 8347SOL     OW25384   4.188   5.467   5.909
 8347SOL    HW125385   4.221   5.506   5.995
 8347SOL    HW225386   4.264   5.460   5.844
 8348SOL     OW25387   5.124   3.831   6.012
 8348SOL    HW125388   5.100   3.794   5.922
 8348SOL    HW225389   5.223   3.847   6.016
 8349SOL     OW25390   3.973   5.509   6.827
 8349SOL    HW125391   4.030   5.444   6.877
 8349SOL    HW225392   3.957   5.476   6.734
 8350SOL     OW25393   4.664   5.422   6.490
 8350SOL    HW125394   4.744   5.365   6.511
 8350SOL    HW225395   4.615   5.382   6.413
 8351SOL     OW25396   4.106   4.424   6.066
 8351SOL    HW125397   4.151   4.334   6.063
 8351SOL    HW225398   4.012   4.413   6.099
 8352SOL     OW25399   4.338   3.846   5.703
 8352SOL    HW125400   4.436   3.824   5.710
 8352SOL    HW225401   4.307   3.829   5.610
 8353SOL     OW25402   4.612   5.238   6.781
 8353SOL    HW125403   4.589   5.213   6.687
 8353SOL    HW225404   4.673   5.169   6.820
 8354SOL     OW25405   4.527   5.126   6.510
 8354SOL    HW125406   4.617   5.140   6.468
 8354SOL    HW225407   4.456   5.128   6.439
 8355SOL     OW25408   4.263   3.788   6.098
 8355SOL    HW125409   4.182   3.789   6.156
 8355SOL    HW225410   4.266   3.871   6.043
 8356SOL     OW25411   5.158   4.912   5.627
 8356SOL    HW125412   5.190   4.836   5.684
 8356SOL    HW225413   5.066   4.939   5.657
 8357SOL     OW25414   4.021   3.759   5.757
 8357SOL    HW125415   4.070   3.843   5.736
 8357SOL    HW225416   4.083   3.694   5.802
 8358SOL     OW25417   4.659   3.960   6.066
 8358SOL    HW125418   4.611   4.001   5.988
 8358SOL    HW225419   4.758   3.958   6.047
 8359SOL     OW25420   4.951   5.294   6.379
 8359SOL    HW125421   4.972   5.368   6.314
 8359SOL    HW225422   5.019   5.294   6.452
 8360SOL     OW25423   4.183   4.876   6.327
 8360SOL    HW125424   4.112   4.849   6.392
 8360SOL    HW225425   4.157   4.848   6.234
 8361SOL     OW25426   4.995   5.521   6.177
 8361SOL    HW125427   5.039   5.585   6.113
 8361SOL    HW225428   4.945   5.573   6.247
 8362SOL     OW25429   4.756   4.273   5.602
 8362SOL    HW125430   4.715   4.355   5.563
 8362SOL    HW225431   4.820   4.299   5.675
 8363SOL     OW25432   4.590   4.178   6.228
 8363SOL    HW125433   4.558   4.250   6.166
 8363SOL    HW225434   4.614   4.097   6.175
 8364SOL     OW25435   4.741   3.763   6.339
 8364SOL    HW125436   4.669   3.768   6.270
 8364SOL    HW225437   4.717   3.694   6.408
 8365SOL     OW25438   5.153   4.897   6.453
 8365SOL    HW125439   5.098   4.813   6.446
 8365SOL    HW225440   5.179   4.926   6.361
 8366SOL     OW25441   5.190   4.314   6.578
 8366SOL    HW125442   5.160   4.219   6.585
 8366SOL    HW225443   5.263   4.330   6.644
 8367SOL     OW25444   5.581   4.557   5.963
 8367SOL    HW125445   5.623   4.493   6.027
 8367SOL    HW225446   5.543   4.506   5.885
 8368SOL     OW25447   4.212   5.109   5.760
 8368SOL    HW125448   4.125   5.094   5.807
 8368SOL    HW225449   4.195   5.135   5.665
 8369SOL     OW25450   5.388   5.004   6.243
 8369SOL    HW125451   5.487   5.012   6.257
 8369SOL    HW225452   5.343   5.088   6.274
 8370SOL     OW25453   5.114   4.299   5.664
 8370SOL    HW125454   5.060   4.278   5.745
 8370SOL    HW225455   5.205   4.258   5.673
 8371SOL     OW25456   4.251   3.980   5.914
 8371SOL    HW125457   4.278   3.921   5.839
 8371SOL    HW225458   4.251   4.075   5.883
 8372SOL     OW25459   4.835   4.919   6.686
 8372SOL    HW125460   4.795   4.963   6.767
 8372SOL    HW225461   4.794   4.956   6.603
 8373SOL     OW25462   4.429   4.774   5.954
 8373SOL    HW125463   4.415   4.781   6.053
 8373SOL    HW225464   4.513   4.723   5.936
 8374SOL     OW25465   4.091   4.824   6.087
 8374SOL    HW125466   4.084   4.907   6.031
 8374SOL    HW225467   4.095   4.744   6.027
 8375SOL     OW25468   4.290   4.261   6.451
 8375SOL    HW125469   4.302   4.327   6.377
 8375SOL    HW225470   4.336   4.295   6.534
 8376SOL     OW25471   4.976   5.072   5.974
 8376SOL    HW125472   5.026   5.149   6.014
 8376SOL    HW225473   4.881   5.074   6.006
 8377SOL     OW25474   4.996   5.169   6.728
 8377SOL    HW125475   5.043   5.182   6.815
 8377SOL    HW225476   4.930   5.095   6.737
 8378SOL     OW25477   5.306   4.363   6.058
 8378SOL    HW125478   5.275   4.424   6.131
 8378SOL    HW225479   5.356   4.415   5.989
 8379SOL     OW25480   4.297   4.594   6.615
 8379SOL    HW125481   4.341   4.683   6.606
 8379SOL    HW225482   4.234   4.594   6.692
 8380SOL     OW25483   5.084   4.586   6.631
 8380SOL    HW125484   5.009   4.586   6.565
 8380SOL    HW225485   5.121   4.494   6.640
 8381SOL     OW25486   4.933   4.249   5.861
 8381SOL    HW125487   4.946   4.165   5.915
 8381SOL    HW225488   4.904   4.323   5.921
 8382SOL     OW25489   4.456   4.358   6.650
 8382SOL    HW125490   4.515   4.332   6.574
 8382SOL    HW225491   4.428   4.454   6.639
 8383SOL     OW25492   4.031   3.787   6.204
 8383SOL    HW125493   4.020   3.881   6.237
 8383SOL    HW225494   4.026   3.724   6.281
 8384SOL     OW25495   5.346   4.091   5.960
 8384SOL    HW125496   5.348   4.015   6.024
 8384SOL    HW225497   5.298   4.168   6.000
 8385SOL     OW25498   4.747   4.490   6.552
 8385SOL    HW125499   4.762   4.511   6.648
 8385SOL    HW225500   4.717   4.395   6.543
 8386SOL     OW25501   5.264   3.998   5.711
 8386SOL    HW125502   5.203   3.923   5.734
 8386SOL    HW225503   5.286   4.050   5.794
 8387SOL     OW25504   5.027   4.562   5.628
 8387SOL    HW125505   5.061   4.469   5.643
 8387SOL    HW225506   5.045   4.589   5.533
 8388SOL     OW25507   4.792   5.057   6.435
 8388SOL    HW125508   4.799   4.973   6.380
 8388SOL    HW225509   4.854   5.126   6.399
 8389SOL     OW25510   4.043   4.534   6.535
 8389SOL    HW125511   4.136   4.570   6.540
 8389SOL    HW225512   4.037   4.449   6.587
 8390SOL     OW25513   4.063   4.233   6.592
 8390SOL    HW125514   4.011   4.150   6.575
 8390SOL    HW225515   4.140   4.238   6.528
 8391SOL     OW25516   3.732   5.050   5.786
 8391SOL    HW125517   3.639   5.071   5.755
 8391SOL    HW225518   3.742   4.951   5.799
 8392SOL     OW25519   3.812   5.525   6.513
 8392SOL    HW125520   3.770   5.439   6.486
 8392SOL    HW225521   3.906   5.528   6.479
 8393SOL     OW25522   4.228   5.292   6.496
 8393SOL    HW125523   4.294   5.366   6.505
 8393SOL    HW225524   4.272   5.213   6.454
 8394SOL     OW25525   3.764   4.268   6.700
 8394SOL    HW125526   3.849   4.235   6.659
 8394SOL    HW225527   3.777   4.283   6.798
 8395SOL     OW25528   4.539   4.296   5.911
 8395SOL    HW125529   4.546   4.207   5.865
 8395SOL    HW225530   4.445   4.330   5.903
 8396SOL     OW25531   4.197   4.224   5.777
 8396SOL    HW125532   4.258   4.304   5.781
 8396SOL    HW225533   4.102   4.255   5.784
 8397SOL     OW25534   5.071   4.783   6.820
 8397SOL    HW125535   5.095   4.720   6.746
 8397SOL    HW225536   4.981   4.823   6.802
 8398SOL     OW25537   5.026   4.579   5.895
 8398SOL    HW125538   4.940   4.548   5.937
 8398SOL    HW225539   5.022   4.565   5.796
 8399SOL     OW25540   4.976   5.455   6.714
 8399SOL    HW125541   5.060   5.460   6.660
 8399SOL    HW225542   4.953   5.359   6.732
 8400SOL     OW25543   3.807   4.982   6.608
 8400SOL    HW125544   3.802   4.981   6.708
 8400SOL    HW225545   3.724   4.941   6.570
 8401SOL     OW25546   5.450   3.859   6.109
 8401SOL    HW125547   5.523   3.842   6.042
 8401SOL    HW225548   5.419   3.772   6.147
 8402SOL     OW25549   5.112   5.297   6.063
 8402SOL    HW125550   5.179   5.309   5.989
 8402SOL    HW225551   5.072   5.386   6.086
 8403SOL     OW25552   5.004   4.651   6.258
 8403SOL    HW125553   5.064   4.570   6.260
 8403SOL    HW225554   5.044   4.720   6.198
 8404SOL     OW25555   4.396   5.340   5.740
 8404SOL    HW125556   4.405   5.350   5.641
 8404SOL    HW225557   4.356   5.251   5.761
 8405SOL     OW25558   5.565   3.899   6.549
 8405SOL    HW125559   5.604   3.814   6.513
 8405SOL    HW225560   5.467   3.901   6.530
 8406SOL     OW25561   3.987   4.050   6.306
 8406SOL    HW125562   3.908   4.101   6.272
 8406SOL    HW225563   3.978   4.035   6.404
 8407SOL     OW25564   4.918   5.336   5.617
 8407SOL    HW125565   4.924   5.243   5.654
 8407SOL    HW225566   4.859   5.336   5.537
 8408SOL     OW25567   4.640   4.634   5.877
 8408SOL    HW125568   4.703   4.672   5.809
 8408SOL    HW225569   4.680   4.551   5.916
 8409SOL     OW25570   5.228   5.331   5.630
 8409SOL    HW125571   5.136   5.368   5.637
 8409SOL    HW225572   5.266   5.351   5.540
 8410SOL     OW25573   4.763   4.822   6.282
 8410SOL    HW125574   4.693   4.775   6.336
 8410SOL    HW225575   4.822   4.754   6.239
 8411SOL     OW25576   4.314   5.211   6.077
 8411SOL    HW125577   4.356   5.153   6.007
 8411SOL    HW225578   4.270   5.290   6.033
 8412SOL     OW25579   3.979   5.072   5.876
 8412SOL    HW125580   3.883   5.073   5.849
 8412SOL    HW225581   3.991   5.125   5.960
 8413SOL     OW25582   3.799   4.069   5.619
 8413SOL    HW125583   3.707   4.041   5.590
 8413SOL    HW225584   3.830   4.146   5.563
 8414SOL     OW25585   3.796   3.890   5.904
 8414SOL    HW125586   3.779   3.973   5.850
 8414SOL    HW225587   3.886   3.853   5.882
 8415SOL     OW25588   4.907   5.059   5.705
 8415SOL    HW125589   4.808   5.048   5.707
 8415SOL    HW225590   4.941   5.074   5.798
 8416SOL     OW25591   5.398   4.607   6.840
 8416SOL    HW125592   5.371   4.518   6.803
 8416SOL    HW225593   5.399   4.675   6.767
 8417SOL     OW25594   4.949   4.049   6.035
 8417SOL    HW125595   5.014   3.975   6.024
 8417SOL    HW225596   4.969   4.099   6.119
 8418SOL     OW25597   4.318   4.469   6.238
 8418SOL    HW125598   4.368   4.554   6.219
 8418SOL    HW225599   4.230   4.471   6.190
 8419SOL     OW25600   4.583   5.098   5.602
 8419SOL    HW125601   4.537   5.113   5.690
 8419SOL    HW225602   4.627   5.183   5.572
 8420SOL     OW25603   4.385   5.514   6.539
 8420SOL    HW125604   4.339   5.602   6.526
 8420SOL    HW225605   4.484   5.526   6.532
 8421SOL     OW25606   4.583   4.680   6.447
 8421SOL    HW125607   4.637   4.611   6.495
 8421SOL    HW225608   4.551   4.749   6.513
 8422SOL     OW25609   4.807   4.708   5.673
 8422SOL    HW125610   4.784   4.761   5.591
 8422SOL    HW225611   4.888   4.652   5.654
 8423SOL     OW25612   5.585   5.293   6.437
 8423SOL    HW125613   5.514   5.281   6.367
 8423SOL    HW225614   5.586   5.214   6.497
 8424SOL     OW25615   3.803   4.964   6.239
 8424SOL    HW125616   3.802   4.917   6.327
 8424SOL    HW225617   3.885   4.936   6.188
 8425SOL     OW25618   4.152   4.148   6.106
 8425SOL    HW125619   4.182   4.076   6.044
 8425SOL    HW225620   4.113   4.108   6.189
 8426SOL     OW25621   4.041   4.271   6.866
 8426SOL    HW125622   4.079   4.212   6.938
 8426SOL    HW225623   4.081   4.245   6.778
 8427SOL     OW25624   4.536   5.310   6.273
 8427SOL    HW125625   4.568   5.320   6.179
 8427SOL    HW225626   4.457   5.248   6.275
 8428SOL     OW25627   4.494   5.054   5.887
 8428SOL    HW125628   4.448   4.967   5.904
 8428SOL    HW225629   4.585   5.051   5.928
 8429SOL     OW25630   5.076   3.776   5.754
 8429SOL    HW125631   5.111   3.735   5.670
 8429SOL    HW225632   4.986   3.738   5.774
 8430SOL     OW25633   5.024   4.177   6.277
 8430SOL    HW125634   4.965   4.257   6.281
 8430SOL    HW225635   5.039   4.142   6.370
 8431SOL     OW25636   3.763   4.801   5.886
 8431SOL    HW125637   3.862   4.790   5.877
 8431SOL    HW225638   3.723   4.715   5.918
 8432SOL     OW25639   4.599   5.370   5.923
 8432SOL    HW125640   4.522   5.335   5.869
 8432SOL    HW225641   4.567   5.441   5.985
 8433SOL     OW25642   3.954   6.214   0.113
 8433SOL    HW125643   3.861   6.212   0.150
 8433SOL    HW225644   3.955   6.175   0.021
 8434SOL     OW25645   3.949   5.861   0.996
 8434SOL    HW125646   3.984   5.844   1.088
 8434SOL    HW225647   3.861   5.816   0.984
 8435SOL     OW25648   3.743   5.954   0.647
 8435SOL    HW125649   3.661   5.997   0.686
 8435SOL    HW225650   3.715   5.881   0.584
 8436SOL     OW25651   4.293   6.861   1.165
 8436SOL    HW125652   4.200   6.854   1.128
 8436SOL    HW225653   4.304   6.950   1.209
 8437SOL     OW25654   5.279   7.097   0.703
 8437SOL    HW125655   5.222   7.081   0.784
 8437SOL    HW225656   5.220   7.107   0.623
 8438SOL     OW25657   4.859   6.289   0.717
 8438SOL    HW125658   4.916   6.367   0.692
 8438SOL    HW225659   4.799   6.315   0.793
 8439SOL     OW25660   4.492   6.730   1.023
 8439SOL    HW125661   4.414   6.747   1.083
 8439SOL    HW225662   4.526   6.817   0.987
 8440SOL     OW25663   4.574   6.384   1.823
 8440SOL    HW125664   4.570   6.460   1.888
 8440SOL    HW225665   4.596   6.420   1.732
 8441SOL     OW25666   4.409   6.598   0.665
 8441SOL    HW125667   4.478   6.582   0.735
 8441SOL    HW225668   4.336   6.655   0.703
 8442SOL     OW25669   4.410   6.747   1.803
 8442SOL    HW125670   4.470   6.826   1.817
 8442SOL    HW225671   4.324   6.778   1.762
 8443SOL     OW25672   4.059   7.021   1.061
 8443SOL    HW125673   3.981   6.990   1.008
 8443SOL    HW225674   4.117   7.079   1.004
 8444SOL     OW25675   5.184   7.091   1.339
 8444SOL    HW125676   5.208   7.185   1.365
 8444SOL    HW225677   5.168   7.037   1.421
 8445SOL     OW25678   4.162   5.978   1.499
 8445SOL    HW125679   4.244   5.922   1.508
 8445SOL    HW225680   4.081   5.920   1.503
 8446SOL     OW25681   5.327   6.033   0.737
 8446SOL    HW125682   5.253   6.079   0.687
 8446SOL    HW225683   5.378   6.101   0.790
 8447SOL     OW25684   3.955   7.299   0.483
 8447SOL    HW125685   3.989   7.376   0.537
 8447SOL    HW225686   3.999   7.299   0.393
 8448SOL     OW25687   4.851   6.927   1.690
 8448SOL    HW125688   4.898   6.927   1.778
 8448SOL    HW225689   4.803   6.840   1.679
 8449SOL     OW25690   3.954   7.020   0.538
 8449SOL    HW125691   3.928   7.116   0.538
 8449SOL    HW225692   3.883   6.966   0.583
 8450SOL     OW25693   3.964   6.677   0.886
 8450SOL    HW125694   3.978   6.593   0.938
 8450SOL    HW225695   3.909   6.741   0.941
 8451SOL     OW25696   4.344   7.372   1.439
 8451SOL    HW125697   4.252   7.355   1.474
 8451SOL    HW225698   4.372   7.464   1.465
 8452SOL     OW25699   4.330   6.550   0.123
 8452SOL    HW125700   4.337   6.634   0.069
 8452SOL    HW225701   4.376   6.563   0.211
 8453SOL     OW25702   3.846   6.229   0.563
 8453SOL    HW125703   3.801   6.141   0.580
 8453SOL    HW225704   3.845   6.283   0.647
 8454SOL     OW25705   3.751   7.182   0.117
 8454SOL    HW125706   3.732   7.086   0.138
 8454SOL    HW225707   3.718   7.240   0.192
 8455SOL     OW25708   5.413   6.508   0.612
 8455SOL    HW125709   5.508   6.479   0.620
 8455SOL    HW225710   5.405   6.573   0.537
 8456SOL     OW25711   5.365   6.694   0.432
 8456SOL    HW125712   5.451   6.696   0.380
 8456SOL    HW225713   5.379   6.741   0.520
 8457SOL     OW25714   3.837   6.323   1.597
 8457SOL    HW125715   3.925   6.310   1.642
 8457SOL    HW225716   3.824   6.420   1.575
 8458SOL     OW25717   4.337   6.951   0.726
 8458SOL    HW125718   4.288   6.864   0.735
 8458SOL    HW225719   4.314   6.994   0.639
 8459SOL     OW25720   5.017   6.814   1.423
 8459SOL    HW125721   5.054   6.741   1.365
 8459SOL    HW225722   5.069   6.819   1.508
 8460SOL     OW25723   4.533   5.590   0.502
 8460SOL    HW125724   4.573   5.681   0.493
 8460SOL    HW225725   4.433   5.598   0.508
 8461SOL     OW25726   3.921   6.562   1.264
 8461SOL    HW125727   4.010   6.517   1.250
 8461SOL    HW225728   3.848   6.497   1.245
 8462SOL     OW25729   5.249   6.585   0.190
 8462SOL    HW125730   5.186   6.509   0.203
 8462SOL    HW225731   5.297   6.603   0.276
 8463SOL     OW25732   4.911   7.378   1.616
 8463SOL    HW125733   4.935   7.438   1.540
 8463SOL    HW225734   4.918   7.283   1.586
 8464SOL     OW25735   4.041   5.837   1.801
 8464SOL    HW125736   4.112   5.908   1.807
 8464SOL    HW225737   3.953   5.876   1.829
 8465SOL     OW25738   5.190   7.003   0.953
 8465SOL    HW125739   5.131   7.009   1.033
 8465SOL    HW225740   5.175   6.915   0.907
 8466SOL     OW25741   5.391   7.300   0.572
 8466SOL    HW125742   5.350   7.277   0.484
 8466SOL    HW225743   5.373   7.226   0.637
 8467SOL     OW25744   4.322   6.315   0.270
 8467SOL    HW125745   4.346   6.384   0.202
 8467SOL    HW225746   4.244   6.348   0.324
 8468SOL     OW25747   5.005   5.931   0.944
 8468SOL    HW125748   4.919   5.881   0.931
 8468SOL    HW225749   5.067   5.877   1.000
 8469SOL     OW25750   5.300   7.248   0.307
 8469SOL    HW125751   5.389   7.294   0.310
 8469SOL    HW225752   5.279   7.224   0.212
 8470SOL     OW25753   4.531   6.191   1.465
 8470SOL    HW125754   4.484   6.188   1.554
 8470SOL    HW225755   4.480   6.136   1.399
 8471SOL     OW25756   5.118   6.055   1.674
 8471SOL    HW125757   5.098   6.098   1.762
 8471SOL    HW225758   5.196   5.993   1.683
 8472SOL     OW25759   4.697   6.476   1.572
 8472SOL    HW125760   4.743   6.392   1.543
 8472SOL    HW225761   4.641   6.510   1.497
 8473SOL     OW25762   4.765   6.287   0.429
 8473SOL    HW125763   4.791   6.283   0.525
 8473SOL    HW225764   4.680   6.236   0.415
 8474SOL     OW25765   3.800   6.397   0.789
 8474SOL    HW125766   3.899   6.385   0.798
 8474SOL    HW225767   3.776   6.492   0.810
 8475SOL     OW25768   3.854   7.407   1.571
 8475SOL    HW125769   3.844   7.392   1.670
 8475SOL    HW225770   3.768   7.443   1.535
 8476SOL     OW25771   4.589   5.934   0.195
 8476SOL    HW125772   4.648   5.997   0.146
 8476SOL    HW225773   4.608   5.840   0.166
 8477SOL     OW25774   5.443   6.171   1.831
 8477SOL    HW125775   5.417   6.260   1.795
 8477SOL    HW225776   5.441   6.103   1.758
 8478SOL     OW25777   5.086   6.730   0.545
 8478SOL    HW125778   5.169   6.701   0.497
 8478SOL    HW225779   5.037   6.797   0.489
 8479SOL     OW25780   4.274   5.782   0.885
 8479SOL    HW125781   4.269   5.777   0.985
 8479SOL    HW225782   4.276   5.878   0.856
 8480SOL     OW25783   4.732   7.042   0.477
 8480SOL    HW125784   4.686   7.114   0.425
 8480SOL    HW225785   4.728   7.062   0.575
 8481SOL     OW25786   4.075   7.387   0.853
 8481SOL    HW125787   4.125   7.301   0.859
 8481SOL    HW225788   4.140   7.464   0.850
 8482SOL     OW25789   5.519   6.652   0.873
 8482SOL    HW125790   5.457   6.637   0.797
 8482SOL    HW225791   5.467   6.663   0.958
 8483SOL     OW25792   4.951   7.136   1.506
 8483SOL    HW125793   4.957   7.059   1.570
 8483SOL    HW225794   4.899   7.110   1.426
 8484SOL     OW25795   4.045   6.529   0.242
 8484SOL    HW125796   4.127   6.568   0.200
 8484SOL    HW225797   4.018   6.447   0.193
 8485SOL     OW25798   5.182   6.321   0.728
 8485SOL    HW125799   5.177   6.256   0.803
 8485SOL    HW225800   5.262   6.380   0.741
 8486SOL     OW25801   4.185   6.852   1.727
 8486SOL    HW125802   4.135   6.853   1.641
 8486SOL    HW225803   4.122   6.834   1.803
 8487SOL     OW25804   3.926   5.871   1.498
 8487SOL    HW125805   3.846   5.931   1.485
 8487SOL    HW225806   3.916   5.822   1.584
 8488SOL     OW25807   4.188   7.329   0.323
 8488SOL    HW125808   4.221   7.368   0.409
 8488SOL    HW225809   4.264   7.322   0.258
 8489SOL     OW25810   5.124   5.693   0.426
 8489SOL    HW125811   5.100   5.656   0.336
 8489SOL    HW225812   5.223   5.709   0.430
 8490SOL     OW25813   3.973   7.371   1.241
 8490SOL    HW125814   4.030   7.306   1.291
 8490SOL    HW225815   3.957   7.338   1.148
 8491SOL     OW25816   4.664   7.284   0.904
 8491SOL    HW125817   4.744   7.227   0.925
 8491SOL    HW225818   4.615   7.244   0.827
 8492SOL     OW25819   4.106   6.286   0.480
 8492SOL    HW125820   4.151   6.196   0.477
 8492SOL    HW225821   4.012   6.275   0.513
 8493SOL     OW25822   5.271   5.808   1.729
 8493SOL    HW125823   5.266   5.845   1.821
 8493SOL    HW225824   5.199   5.739   1.717
 8494SOL     OW25825   4.338   5.708   0.117
 8494SOL    HW125826   4.436   5.686   0.124
 8494SOL    HW225827   4.307   5.691   0.024
 8495SOL     OW25828   4.612   7.100   1.195
 8495SOL    HW125829   4.589   7.075   1.101
 8495SOL    HW225830   4.673   7.031   1.234
 8496SOL     OW25831   5.075   6.176   1.433
 8496SOL    HW125832   5.103   6.133   1.518
 8496SOL    HW225833   5.100   6.272   1.434
 8497SOL     OW25834   4.527   6.988   0.924
 8497SOL    HW125835   4.617   7.002   0.882
 8497SOL    HW225836   4.456   6.990   0.853
 8498SOL     OW25837   4.646   6.089   0.899
 8498SOL    HW125838   4.621   6.080   0.803
 8498SOL    HW225839   4.694   6.007   0.930
 8499SOL     OW25840   4.263   5.650   0.512
 8499SOL    HW125841   4.182   5.651   0.570
 8499SOL    HW225842   4.266   5.733   0.457
 8500SOL     OW25843   5.158   6.774   0.041
 8500SOL    HW125844   5.190   6.698   0.098
 8500SOL    HW225845   5.066   6.801   0.071
 8501SOL     OW25846   4.021   5.621   0.171
 8501SOL    HW125847   4.070   5.705   0.150
 8501SOL    HW225848   4.083   5.556   0.216
 8502SOL     OW25849   4.659   5.822   0.480
 8502SOL    HW125850   4.611   5.863   0.402
 8502SOL    HW225851   4.758   5.820   0.461
 8503SOL     OW25852   4.800   6.269   1.464
 8503SOL    HW125853   4.720   6.208   1.467
 8503SOL    HW225854   4.881   6.216   1.440
 8504SOL     OW25855   4.951   7.156   0.793
 8504SOL    HW125856   4.972   7.230   0.728
 8504SOL    HW225857   5.019   7.156   0.866
 8505SOL     OW25858   4.183   6.738   0.741
 8505SOL    HW125859   4.112   6.711   0.806
 8505SOL    HW225860   4.157   6.710   0.648
 8506SOL     OW25861   4.756   6.135   0.016
 8506SOL    HW125862   4.715   6.217  -0.023
 8506SOL    HW225863   4.820   6.161   0.089
 8507SOL     OW25864   3.802   6.142   1.386
 8507SOL    HW125865   3.894   6.141   1.345
 8507SOL    HW225866   3.796   6.216   1.453
 8508SOL     OW25867   4.285   5.808   1.147
 8508SOL    HW125868   4.323   5.724   1.184
 8508SOL    HW225869   4.197   5.827   1.191
 8509SOL     OW25870   4.590   6.040   0.642
 8509SOL    HW125871   4.558   6.112   0.580
 8509SOL    HW225872   4.614   5.959   0.589
 8510SOL     OW25873   4.741   5.625   0.753
 8510SOL    HW125874   4.669   5.630   0.684
 8510SOL    HW225875   4.717   5.556   0.822
 8511SOL     OW25876   5.153   6.759   0.867
 8511SOL    HW125877   5.098   6.675   0.860
 8511SOL    HW225878   5.179   6.788   0.775
 8512SOL     OW25879   5.190   6.176   0.992
 8512SOL    HW125880   5.160   6.081   0.999
 8512SOL    HW225881   5.263   6.192   1.058
 8513SOL     OW25882   5.581   6.419   0.377
 8513SOL    HW125883   5.623   6.355   0.441
 8513SOL    HW225884   5.543   6.368   0.299
 8514SOL     OW25885   4.212   6.971   0.174
 8514SOL    HW125886   4.125   6.956   0.221
 8514SOL    HW225887   4.195   6.997   0.079
 8515SOL     OW25888   5.388   6.866   0.657
 8515SOL    HW125889   5.487   6.874   0.671
 8515SOL    HW225890   5.343   6.950   0.688
 8516SOL     OW25891   5.114   6.161   0.078
 8516SOL    HW125892   5.060   6.140   0.159
 8516SOL    HW225893   5.205   6.120   0.087
 8517SOL     OW25894   4.251   5.842   0.328
 8517SOL    HW125895   4.278   5.783   0.253
 8517SOL    HW225896   4.251   5.937   0.297
 8518SOL     OW25897   5.478   6.809   1.588
 8518SOL    HW125898   5.569   6.770   1.575
 8518SOL    HW225899   5.486   6.905   1.612
 8519SOL     OW25900   4.788   6.933   1.340
 8519SOL    HW125901   4.708   6.910   1.395
 8519SOL    HW225902   4.871   6.907   1.389
 8520SOL     OW25903   5.316   7.215   1.625
 8520SOL    HW125904   5.343   7.249   1.535
 8520SOL    HW225905   5.395   7.177   1.671
 8521SOL     OW25906   4.835   6.781   1.100
 8521SOL    HW125907   4.795   6.825   1.181
 8521SOL    HW225908   4.794   6.818   1.017
 8522SOL     OW25909   5.362   6.685   1.079
 8522SOL    HW125910   5.367   6.766   1.138
 8522SOL    HW225911   5.276   6.687   1.028
 8523SOL     OW25912   4.639   5.675   1.402
 8523SOL    HW125913   4.664   5.655   1.307
 8523SOL    HW225914   4.711   5.731   1.444
 8524SOL     OW25915   4.704   6.702   1.719
 8524SOL    HW125916   4.605   6.708   1.729
 8524SOL    HW225917   4.727   6.622   1.663
 8525SOL     OW25918   4.429   6.636   0.368
 8525SOL    HW125919   4.415   6.643   0.467
 8525SOL    HW225920   4.513   6.585   0.350
 8526SOL     OW25921   4.134   6.399   1.251
 8526SOL    HW125922   4.220   6.411   1.301
 8526SOL    HW225923   4.092   6.312   1.278
 8527SOL     OW25924   3.788   7.150   1.331
 8527SOL    HW125925   3.742   7.232   1.297
 8527SOL    HW225926   3.886   7.169   1.340
 8528SOL     OW25927   4.091   6.686   0.501
 8528SOL    HW125928   4.084   6.769   0.445
 8528SOL    HW225929   4.095   6.606   0.441
 8529SOL     OW25930   4.290   6.123   0.865
 8529SOL    HW125931   4.302   6.189   0.791
 8529SOL    HW225932   4.336   6.157   0.948
 8530SOL     OW25933   4.976   6.934   0.388
 8530SOL    HW125934   5.026   7.011   0.428
 8530SOL    HW225935   4.881   6.936   0.420
 8531SOL     OW25936   4.996   7.031   1.142
 8531SOL    HW125937   5.043   7.044   1.229
 8531SOL    HW225938   4.930   6.957   1.151
 8532SOL     OW25939   5.306   6.225   0.472
 8532SOL    HW125940   5.275   6.286   0.545
 8532SOL    HW225941   5.356   6.277   0.403
 8533SOL     OW25942   4.078   7.096   1.329
 8533SOL    HW125943   4.057   7.052   1.242
 8533SOL    HW225944   4.175   7.122   1.332
 8534SOL     OW25945   4.126   6.337   1.598
 8534SOL    HW125946   4.194   6.392   1.551
 8534SOL    HW225947   4.166   6.249   1.625
 8535SOL     OW25948   5.311   6.365   1.670
 8535SOL    HW125949   5.219   6.403   1.665
 8535SOL    HW225950   5.371   6.412   1.605
 8536SOL     OW25951   4.737   5.691   1.770
 8536SOL    HW125952   4.743   5.776   1.718
 8536SOL    HW225953   4.769   5.615   1.713
 8537SOL     OW25954   4.228   5.636   1.740
 8537SOL    HW125955   4.186   5.579   1.670
 8537SOL    HW225956   4.162   5.705   1.772
 8538SOL     OW25957   4.297   6.456   1.029
 8538SOL    HW125958   4.341   6.545   1.020
 8538SOL    HW225959   4.234   6.456   1.106
 8539SOL     OW25960   5.084   6.448   1.045
 8539SOL    HW125961   5.009   6.448   0.979
 8539SOL    HW225962   5.121   6.356   1.054
 8540SOL     OW25963   4.933   6.111   0.275
 8540SOL    HW125964   4.946   6.027   0.329
 8540SOL    HW225965   4.904   6.185   0.335
 8541SOL     OW25966   4.031   5.799   1.231
 8541SOL    HW125967   4.008   5.836   1.321
 8541SOL    HW225968   4.001   5.704   1.225
 8542SOL     OW25969   3.761   6.896   1.282
 8542SOL    HW125970   3.814   6.847   1.350
 8542SOL    HW225971   3.783   6.994   1.287
 8543SOL     OW25972   4.456   6.220   1.064
 8543SOL    HW125973   4.515   6.194   0.988
 8543SOL    HW225974   4.428   6.316   1.053
 8544SOL     OW25975   5.452   6.521   1.854
 8544SOL    HW125976   5.406   6.514   1.765
 8544SOL    HW225977   5.390   6.565   1.920
 8545SOL     OW25978   4.031   5.649   0.618
 8545SOL    HW125979   4.020   5.743   0.651
 8545SOL    HW225980   4.026   5.586   0.695
 8546SOL     OW25981   5.346   5.953   0.374
 8546SOL    HW125982   5.348   5.877   0.438
 8546SOL    HW225983   5.298   6.030   0.414
 8547SOL     OW25984   4.747   6.352   0.966
 8547SOL    HW125985   4.762   6.373   1.062
 8547SOL    HW225986   4.717   6.257   0.957
 8548SOL     OW25987   4.704   7.159   1.700
 8548SOL    HW125988   4.684   7.203   1.612
 8548SOL    HW225989   4.743   7.068   1.684
 8549SOL     OW25990   5.583   7.104   1.605
 8549SOL    HW125991   5.597   7.131   1.510
 8549SOL    HW225992   5.666   7.126   1.658
 8550SOL     OW25993   4.074   6.484   1.804
 8550SOL    HW125994   4.150   6.528   1.852
 8550SOL    HW225995   4.109   6.437   1.722
 8551SOL     OW25996   5.264   5.860   0.125
 8551SOL    HW125997   5.203   5.785   0.148
 8551SOL    HW225998   5.286   5.912   0.208
 8552SOL     OW25999   5.027   6.424   0.042
 8552SOL    HW126000   5.061   6.331   0.057
 8552SOL    HW226001   5.045   6.451  -0.053
 8553SOL     OW26002   4.792   6.919   0.849
 8553SOL    HW126003   4.799   6.835   0.794
 8553SOL    HW226004   4.854   6.988   0.813
 8554SOL     OW26005   4.043   6.396   0.949
 8554SOL    HW126006   4.136   6.432   0.954
 8554SOL    HW226007   4.037   6.311   1.001
 8555SOL     OW26008   4.063   6.095   1.006
 8555SOL    HW126009   4.011   6.012   0.989
 8555SOL    HW226010   4.140   6.100   0.942
 8556SOL     OW26011   4.862   5.966   1.678
 8556SOL    HW126012   4.817   6.029   1.742
 8556SOL    HW226013   4.955   5.997   1.661
 8557SOL     OW26014   3.732   6.912   0.200
 8557SOL    HW126015   3.639   6.933   0.169
 8557SOL    HW226016   3.742   6.813   0.213
 8558SOL     OW26017   3.812   7.387   0.927
 8558SOL    HW126018   3.770   7.301   0.900
 8558SOL    HW226019   3.906   7.390   0.893
 8559SOL     OW26020   4.228   7.154   0.910
 8559SOL    HW126021   4.294   7.228   0.919
 8559SOL    HW226022   4.272   7.075   0.868
 8560SOL     OW26023   4.726   6.382   1.238
 8560SOL    HW126024   4.767   6.350   1.324
 8560SOL    HW226025   4.630   6.355   1.235
 8561SOL     OW26026   3.764   6.130   1.114
 8561SOL    HW126027   3.849   6.097   1.073
 8561SOL    HW226028   3.777   6.145   1.212
 8562SOL     OW26029   3.913   6.106   1.722
 8562SOL    HW126030   3.972   6.066   1.652
 8562SOL    HW226031   3.855   6.177   1.681
 8563SOL     OW26032   5.093   6.536   1.660
 8563SOL    HW126033   5.132   6.625   1.680
 8563SOL    HW226034   5.103   6.516   1.563
 8564SOL     OW26035   4.539   6.158   0.325
 8564SOL    HW126036   4.546   6.069   0.279
 8564SOL    HW226037   4.445   6.192   0.317
 8565SOL     OW26038   5.381   6.190   1.206
 8565SOL    HW126039   5.343   6.121   1.268
 8565SOL    HW226040   5.463   6.154   1.162
 8566SOL     OW26041   3.976   7.150   1.744
 8566SOL    HW126042   3.946   7.207   1.820
 8566SOL    HW226043   3.969   7.053   1.770
 8567SOL     OW26044   4.395   6.050   1.269
 8567SOL    HW126045   4.361   5.961   1.239
 8567SOL    HW226046   4.421   6.104   1.189
 8568SOL     OW26047   4.654   7.264   1.465
 8568SOL    HW126048   4.630   7.246   1.370
 8568SOL    HW226049   4.684   7.358   1.475
 8569SOL     OW26050   4.197   6.086   0.191
 8569SOL    HW126051   4.258   6.166   0.195
 8569SOL    HW226052   4.102   6.117   0.198
 8570SOL     OW26053   3.883   6.723   1.466
 8570SOL    HW126054   3.905   6.662   1.542
 8570SOL    HW226055   3.893   6.674   1.380
 8571SOL     OW26056   5.071   6.645   1.234
 8571SOL    HW126057   5.095   6.582   1.160
 8571SOL    HW226058   4.981   6.685   1.216
 8572SOL     OW26059   5.026   6.441   0.309
 8572SOL    HW126060   4.940   6.410   0.351
 8572SOL    HW226061   5.022   6.427   0.210
 8573SOL     OW26062   5.483   7.333   1.154
 8573SOL    HW126063   5.544   7.363   1.081
 8573SOL    HW226064   5.445   7.244   1.132
 8574SOL     OW26065   4.976   7.317   1.128
 8574SOL    HW126066   5.060   7.322   1.074
 8574SOL    HW226067   4.953   7.221   1.146
 8575SOL     OW26068   3.807   6.844   1.022
 8575SOL    HW126069   3.802   6.843   1.122
 8575SOL    HW226070   3.724   6.803   0.984
 8576SOL     OW26071   4.412   7.248   1.716
 8576SOL    HW126072   4.356   7.329   1.725
 8576SOL    HW226073   4.464   7.252   1.630
 8577SOL     OW26074   4.627   5.672   0.133
 8577SOL    HW126075   4.678   5.673   0.047
 8577SOL    HW226076   4.683   5.630   0.204
 8578SOL     OW26077   5.450   5.721   0.523
 8578SOL    HW126078   5.523   5.704   0.456
 8578SOL    HW226079   5.419   5.634   0.561
 8579SOL     OW26080   5.112   7.159   0.477
 8579SOL    HW126081   5.179   7.171   0.403
 8579SOL    HW226082   5.072   7.248   0.500
 8580SOL     OW26083   3.854   7.380   1.851
 8580SOL    HW126084   3.813   7.306   1.904
 8580SOL    HW226085   3.918   7.431   1.909
 8581SOL     OW26086   5.004   6.513   0.672
 8581SOL    HW126087   5.064   6.432   0.674
 8581SOL    HW226088   5.044   6.582   0.612
 8582SOL     OW26089   4.554   6.859   1.422
 8582SOL    HW126090   4.549   6.892   1.517
 8582SOL    HW226091   4.468   6.878   1.376
 8583SOL     OW26092   4.396   7.202   0.154
 8583SOL    HW126093   4.405   7.212   0.055
 8583SOL    HW226094   4.356   7.113   0.175
 8584SOL     OW26095   5.374   7.306   1.394
 8584SOL    HW126096   5.427   7.316   1.310
 8584SOL    HW226097   5.347   7.396   1.428
 8585SOL     OW26098   5.565   5.761   0.963
 8585SOL    HW126099   5.604   5.676   0.927
 8585SOL    HW226100   5.467   5.763   0.944
 8586SOL     OW26101   3.987   5.912   0.720
 8586SOL    HW126102   3.908   5.963   0.686
 8586SOL    HW226103   3.978   5.897   0.818
 8587SOL     OW26104   4.918   7.198   0.031
 8587SOL    HW126105   4.924   7.105   0.068
 8587SOL    HW226106   4.859   7.198  -0.049
 8588SOL     OW26107   4.546   6.588   1.372
 8588SOL    HW126108   4.586   6.587   1.280
 8588SOL    HW226109   4.556   6.680   1.412
 8589SOL     OW26110   4.640   6.496   0.291
 8589SOL    HW126111   4.703   6.534   0.223
 8589SOL    HW226112   4.680   6.413   0.330
 8590SOL     OW26113   5.228   7.193   0.044
 8590SOL    HW126114   5.136   7.230   0.051
 8590SOL    HW226115   5.266   7.213  -0.046
 8591SOL     OW26116   4.096   6.874   1.490
 8591SOL    HW126117   4.083   6.967   1.456
 8591SOL    HW226118   4.012   6.822   1.477
 8592SOL     OW26119   5.338   6.878   1.289
 8592SOL    HW126120   5.398   6.881   1.369
 8592SOL    HW226121   5.263   6.942   1.302
 8593SOL     OW26122   4.763   6.684   0.696
 8593SOL    HW126123   4.693   6.637   0.750
 8593SOL    HW226124   4.822   6.616   0.653
 8594SOL     OW26125   4.738   5.822   0.971
 8594SOL    HW126126   4.730   5.786   0.878
 8594SOL    HW226127   4.736   5.746   1.036
 8595SOL     OW26128   4.314   7.073   0.491
 8595SOL    HW126129   4.356   7.015   0.421
 8595SOL    HW226130   4.270   7.152   0.447
 8596SOL     OW26131   5.433   5.971   1.381
 8596SOL    HW126132   5.506   6.040   1.385
 8596SOL    HW226133   5.461   5.896   1.322
 8597SOL     OW26134   3.979   6.934   0.290
 8597SOL    HW126135   3.883   6.935   0.263
 8597SOL    HW226136   3.991   6.987   0.374
 8598SOL     OW26137   3.829   6.599   1.726
 8598SOL    HW126138   3.752   6.566   1.780
 8598SOL    HW226139   3.914   6.569   1.768
 8599SOL     OW26140   3.799   5.931   0.033
 8599SOL    HW126141   3.707   5.903   0.004
 8599SOL    HW226142   3.830   6.008  -0.023
 8600SOL     OW26143   5.164   6.442   1.398
 8600SOL    HW126144   5.107   6.494   1.335
 8600SOL    HW226145   5.260   6.454   1.374
 8601SOL     OW26146   3.796   5.752   0.318
 8601SOL    HW126147   3.779   5.835   0.264
 8601SOL    HW226148   3.886   5.715   0.296
 8602SOL     OW26149   4.907   6.921   0.119
 8602SOL    HW126150   4.808   6.910   0.121
 8602SOL    HW226151   4.941   6.936   0.212
 8603SOL     OW26152   4.337   6.428   1.431
 8603SOL    HW126153   4.393   6.509   1.414
 8603SOL    HW226154   4.396   6.348   1.434
 8604SOL     OW26155   5.217   7.353   0.959
 8604SOL    HW126156   5.250   7.417   0.890
 8604SOL    HW226157   5.283   7.347   1.034
 8605SOL     OW26158   4.440   6.151   1.708
 8605SOL    HW126159   4.459   6.216   1.782
 8605SOL    HW226160   4.500   6.071   1.717
 8606SOL     OW26161   5.174   6.806   1.633
 8606SOL    HW126162   5.165   6.796   1.732
 8606SOL    HW226163   5.270   6.799   1.607
 8607SOL     OW26164   4.114   7.327   1.560
 8607SOL    HW126165   4.023   7.368   1.558
 8607SOL    HW226166   4.107   7.233   1.592
 8608SOL     OW26167   5.398   6.469   1.254
 8608SOL    HW126168   5.371   6.380   1.217
 8608SOL    HW226169   5.399   6.537   1.181
 8609SOL     OW26170   4.949   5.911   0.449
 8609SOL    HW126171   5.014   5.837   0.438
 8609SOL    HW226172   4.969   5.961   0.533
 8610SOL     OW26173   4.318   6.331   0.652
 8610SOL    HW126174   4.368   6.416   0.633
 8610SOL    HW226175   4.230   6.333   0.604
 8611SOL     OW26176   5.501   5.928   1.642
 8611SOL    HW126177   5.484   5.959   1.548
 8611SOL    HW226178   5.417   5.891   1.680
 8612SOL     OW26179   5.454   6.520   1.517
 8612SOL    HW126180   5.492   6.611   1.532
 8612SOL    HW226181   5.446   6.503   1.418
 8613SOL     OW26182   4.583   6.960   0.016
 8613SOL    HW126183   4.537   6.975   0.104
 8613SOL    HW226184   4.627   7.045  -0.014
 8614SOL     OW26185   4.385   7.376   0.953
 8614SOL    HW126186   4.339   7.464   0.940
 8614SOL    HW226187   4.484   7.388   0.946
 8615SOL     OW26188   4.583   6.542   0.861
 8615SOL    HW126189   4.637   6.473   0.909
 8615SOL    HW226190   4.551   6.611   0.927
 8616SOL     OW26191   4.807   6.570   0.087
 8616SOL    HW126192   4.784   6.623   0.005
 8616SOL    HW226193   4.888   6.514   0.068
 8617SOL     OW26194   5.585   7.155   0.851
 8617SOL    HW126195   5.514   7.143   0.781
 8617SOL    HW226196   5.586   7.076   0.911
 8618SOL     OW26197   3.945   6.900   1.844
 8618SOL    HW126198   3.880   6.827   1.823
 8618SOL    HW226199   3.949   6.914   1.942
 8619SOL     OW26200   3.803   6.826   0.653
 8619SOL    HW126201   3.802   6.779   0.741
 8619SOL    HW226202   3.885   6.798   0.602
 8620SOL     OW26203   4.396   6.977   1.624
 8620SOL    HW126204   4.318   6.927   1.662
 8620SOL    HW226205   4.393   7.072   1.655
 8621SOL     OW26206   5.548   5.778   1.227
 8621SOL    HW126207   5.544   5.688   1.271
 8621SOL    HW226208   5.551   5.767   1.128
 8622SOL     OW26209   4.152   6.010   0.520
 8622SOL    HW126210   4.182   5.938   0.458
 8622SOL    HW226211   4.113   5.970   0.603
 8623SOL     OW26212   5.429   7.073   1.104
 8623SOL    HW126213   5.336   7.048   1.077
 8623SOL    HW226214   5.455   7.023   1.186
 8624SOL     OW26215   4.041   6.133   1.280
 8624SOL    HW126216   4.079   6.074   1.352
 8624SOL    HW226217   4.081   6.107   1.192
 8625SOL     OW26218   4.536   7.172   0.687
 8625SOL    HW126219   4.568   7.182   0.593
 8625SOL    HW226220   4.457   7.110   0.689
 8626SOL     OW26221   4.725   5.620   1.154
 8626SOL    HW126222   4.662   5.548   1.123
 8626SOL    HW226223   4.818   5.584   1.154
 8627SOL     OW26224   4.494   6.916   0.301
 8627SOL    HW126225   4.448   6.829   0.318
 8627SOL    HW226226   4.585   6.913   0.342
 8628SOL     OW26227   4.342   7.153   1.284
 8628SOL    HW126228   4.337   7.235   1.341
 8628SOL    HW226229   4.431   7.150   1.239
 8629SOL     OW26230   5.076   5.638   0.168
 8629SOL    HW126231   5.111   5.597   0.084
 8629SOL    HW226232   4.986   5.600   0.188
 8630SOL     OW26233   5.024   6.039   0.691
 8630SOL    HW126234   4.965   6.119   0.695
 8630SOL    HW226235   5.039   6.004   0.784
 8631SOL     OW26236   5.317   5.807   0.882
 8631SOL    HW126237   5.233   5.806   0.936
 8631SOL    HW226238   5.319   5.890   0.826
 8632SOL     OW26239   3.763   6.663   0.300
 8632SOL    HW126240   3.862   6.652   0.291
 8632SOL    HW226241   3.723   6.577   0.332
 8633SOL     OW26242   4.599   7.232   0.337
 8633SOL    HW126243   4.522   7.197   0.283
 8633SOL    HW226244   4.567   7.303   0.399
 8634SOL     OW26245   3.954   6.214   1.975
 8634SOL    HW126246   3.861   6.212   2.012
 8634SOL    HW226247   3.955   6.175   1.883
 8635SOL     OW26248   3.743   5.954   2.509
 8635SOL    HW126249   3.661   5.997   2.548
 8635SOL    HW226250   3.715   5.881   2.446
 8636SOL     OW26251   4.293   6.861   3.027
 8636SOL    HW126252   4.200   6.854   2.990
 8636SOL    HW226253   4.304   6.950   3.071
 8637SOL     OW26254   5.279   7.097   2.565
 8637SOL    HW126255   5.222   7.081   2.646
 8637SOL    HW226256   5.220   7.107   2.485
 8638SOL     OW26257   4.859   6.289   2.579
 8638SOL    HW126258   4.916   6.367   2.554
 8638SOL    HW226259   4.799   6.315   2.655
 8639SOL     OW26260   5.479   6.193   2.093
 8639SOL    HW126261   5.467   6.180   1.994
 8639SOL    HW226262   5.449   6.112   2.142
 8640SOL     OW26263   4.492   6.730   2.885
 8640SOL    HW126264   4.414   6.747   2.945
 8640SOL    HW226265   4.526   6.817   2.849
 8641SOL     OW26266   4.574   6.384   3.685
 8641SOL    HW126267   4.570   6.460   3.750
 8641SOL    HW226268   4.596   6.420   3.594
 8642SOL     OW26269   4.409   6.598   2.527
 8642SOL    HW126270   4.478   6.582   2.597
 8642SOL    HW226271   4.336   6.655   2.565
 8643SOL     OW26272   4.410   6.747   3.665
 8643SOL    HW126273   4.470   6.826   3.679
 8643SOL    HW226274   4.324   6.778   3.624
 8644SOL     OW26275   4.059   7.021   2.923
 8644SOL    HW126276   3.981   6.990   2.870
 8644SOL    HW226277   4.117   7.079   2.866
 8645SOL     OW26278   5.184   7.091   3.201
 8645SOL    HW126279   5.208   7.185   3.227
 8645SOL    HW226280   5.168   7.037   3.283
 8646SOL     OW26281   5.327   6.033   2.599
 8646SOL    HW126282   5.253   6.079   2.549
 8646SOL    HW226283   5.378   6.101   2.652
 8647SOL     OW26284   3.955   7.299   2.345
 8647SOL    HW126285   3.989   7.376   2.399
 8647SOL    HW226286   3.999   7.299   2.255
 8648SOL     OW26287   4.851   6.927   3.552
 8648SOL    HW126288   4.898   6.927   3.640
 8648SOL    HW226289   4.803   6.840   3.541
 8649SOL     OW26290   3.954   7.020   2.400
 8649SOL    HW126291   3.928   7.116   2.400
 8649SOL    HW226292   3.883   6.966   2.445
 8650SOL     OW26293   3.964   6.677   2.748
 8650SOL    HW126294   3.978   6.593   2.800
 8650SOL    HW226295   3.909   6.741   2.803
 8651SOL     OW26296   4.344   7.372   3.301
 8651SOL    HW126297   4.252   7.355   3.336
 8651SOL    HW226298   4.372   7.464   3.327
 8652SOL     OW26299   4.330   6.550   1.985
 8652SOL    HW126300   4.337   6.634   1.931
 8652SOL    HW226301   4.376   6.563   2.073
 8653SOL     OW26302   5.318   5.700   3.342
 8653SOL    HW126303   5.300   5.767   3.270
 8653SOL    HW226304   5.315   5.746   3.431
 8654SOL     OW26305   3.846   6.229   2.425
 8654SOL    HW126306   3.801   6.141   2.442
 8654SOL    HW226307   3.845   6.283   2.509
 8655SOL     OW26308   5.566   7.353   2.221
 8655SOL    HW126309   5.620   7.324   2.301
 8655SOL    HW226310   5.596   7.443   2.192
 8656SOL     OW26311   3.751   7.182   1.979
 8656SOL    HW126312   3.732   7.086   2.000
 8656SOL    HW226313   3.718   7.240   2.054
 8657SOL     OW26314   5.413   6.508   2.474
 8657SOL    HW126315   5.508   6.479   2.482
 8657SOL    HW226316   5.405   6.573   2.399
 8658SOL     OW26317   5.365   6.694   2.294
 8658SOL    HW126318   5.451   6.696   2.242
 8658SOL    HW226319   5.379   6.741   2.382
 8659SOL     OW26320   3.837   6.323   3.459
 8659SOL    HW126321   3.925   6.310   3.504
 8659SOL    HW226322   3.824   6.420   3.437
 8660SOL     OW26323   4.337   6.951   2.588
 8660SOL    HW126324   4.288   6.864   2.597
 8660SOL    HW226325   4.314   6.994   2.501
 8661SOL     OW26326   5.017   6.814   3.285
 8661SOL    HW126327   5.054   6.741   3.227
 8661SOL    HW226328   5.069   6.819   3.370
 8662SOL     OW26329   3.921   6.562   3.126
 8662SOL    HW126330   4.010   6.517   3.112
 8662SOL    HW226331   3.848   6.497   3.107
 8663SOL     OW26332   5.249   6.585   2.052
 8663SOL    HW126333   5.186   6.509   2.065
 8663SOL    HW226334   5.297   6.603   2.138
 8664SOL     OW26335   4.911   7.378   3.478
 8664SOL    HW126336   4.935   7.438   3.402
 8664SOL    HW226337   4.918   7.283   3.448
 8665SOL     OW26338   5.190   7.003   2.815
 8665SOL    HW126339   5.131   7.009   2.895
 8665SOL    HW226340   5.175   6.915   2.769
 8666SOL     OW26341   5.391   7.300   2.434
 8666SOL    HW126342   5.350   7.277   2.346
 8666SOL    HW226343   5.373   7.226   2.499
 8667SOL     OW26344   4.322   6.315   2.132
 8667SOL    HW126345   4.346   6.384   2.064
 8667SOL    HW226346   4.244   6.348   2.186
 8668SOL     OW26347   5.300   7.248   2.169
 8668SOL    HW126348   5.389   7.294   2.172
 8668SOL    HW226349   5.279   7.224   2.074
 8669SOL     OW26350   4.531   6.191   3.327
 8669SOL    HW126351   4.484   6.188   3.416
 8669SOL    HW226352   4.480   6.136   3.261
 8670SOL     OW26353   5.118   6.055   3.536
 8670SOL    HW126354   5.098   6.098   3.624
 8670SOL    HW226355   5.196   5.993   3.545
 8671SOL     OW26356   4.697   6.476   3.434
 8671SOL    HW126357   4.743   6.392   3.405
 8671SOL    HW226358   4.641   6.510   3.359
 8672SOL     OW26359   4.765   6.287   2.291
 8672SOL    HW126360   4.791   6.283   2.387
 8672SOL    HW226361   4.680   6.236   2.277
 8673SOL     OW26362   3.800   6.397   2.651
 8673SOL    HW126363   3.899   6.385   2.660
 8673SOL    HW226364   3.776   6.492   2.672
 8674SOL     OW26365   3.854   7.407   3.433
 8674SOL    HW126366   3.844   7.392   3.532
 8674SOL    HW226367   3.768   7.443   3.397
 8675SOL     OW26368   5.443   6.171   3.693
 8675SOL    HW126369   5.417   6.260   3.657
 8675SOL    HW226370   5.441   6.103   3.620
 8676SOL     OW26371   5.086   6.730   2.407
 8676SOL    HW126372   5.169   6.701   2.359
 8676SOL    HW226373   5.037   6.797   2.351
 8677SOL     OW26374   4.732   7.042   2.339
 8677SOL    HW126375   4.686   7.114   2.287
 8677SOL    HW226376   4.728   7.062   2.437
 8678SOL     OW26377   4.075   7.387   2.715
 8678SOL    HW126378   4.125   7.301   2.721
 8678SOL    HW226379   4.140   7.464   2.712
 8679SOL     OW26380   5.519   6.652   2.735
 8679SOL    HW126381   5.457   6.637   2.659
 8679SOL    HW226382   5.467   6.663   2.820
 8680SOL     OW26383   4.951   7.136   3.368
 8680SOL    HW126384   4.957   7.059   3.432
 8680SOL    HW226385   4.899   7.110   3.288
 8681SOL     OW26386   4.045   6.529   2.104
 8681SOL    HW126387   4.127   6.568   2.062
 8681SOL    HW226388   4.018   6.447   2.055
 8682SOL     OW26389   5.182   6.321   2.590
 8682SOL    HW126390   5.177   6.256   2.665
 8682SOL    HW226391   5.262   6.380   2.603
 8683SOL     OW26392   4.185   6.852   3.589
 8683SOL    HW126393   4.135   6.853   3.503
 8683SOL    HW226394   4.122   6.834   3.665
 8684SOL     OW26395   5.356   6.963   1.943
 8684SOL    HW126396   5.324   7.057   1.933
 8684SOL    HW226397   5.280   6.900   1.931
 8685SOL     OW26398   4.188   7.329   2.185
 8685SOL    HW126399   4.221   7.368   2.271
 8685SOL    HW226400   4.264   7.322   2.120
 8686SOL     OW26401   3.973   7.371   3.103
 8686SOL    HW126402   4.030   7.306   3.153
 8686SOL    HW226403   3.957   7.338   3.010
 8687SOL     OW26404   4.664   7.284   2.766
 8687SOL    HW126405   4.744   7.227   2.787
 8687SOL    HW226406   4.615   7.244   2.689
 8688SOL     OW26407   4.106   6.286   2.342
 8688SOL    HW126408   4.151   6.196   2.339
 8688SOL    HW226409   4.012   6.275   2.375
 8689SOL     OW26410   5.271   5.808   3.591
 8689SOL    HW126411   5.266   5.845   3.683
 8689SOL    HW226412   5.199   5.739   3.579
 8690SOL     OW26413   4.505   5.850   3.611
 8690SOL    HW126414   4.572   5.789   3.654
 8690SOL    HW226415   4.432   5.869   3.676
 8691SOL     OW26416   4.612   7.100   3.057
 8691SOL    HW126417   4.589   7.075   2.963
 8691SOL    HW226418   4.673   7.031   3.096
 8692SOL     OW26419   5.075   6.176   3.295
 8692SOL    HW126420   5.103   6.133   3.380
 8692SOL    HW226421   5.100   6.272   3.296
 8693SOL     OW26422   4.527   6.988   2.786
 8693SOL    HW126423   4.617   7.002   2.744
 8693SOL    HW226424   4.456   6.990   2.715
 8694SOL     OW26425   4.646   6.089   2.761
 8694SOL    HW126426   4.621   6.080   2.665
 8694SOL    HW226427   4.694   6.007   2.792
 8695SOL     OW26428   5.158   6.774   1.903
 8695SOL    HW126429   5.190   6.698   1.960
 8695SOL    HW226430   5.066   6.801   1.933
 8696SOL     OW26431   4.021   5.621   2.033
 8696SOL    HW126432   4.070   5.705   2.012
 8696SOL    HW226433   4.083   5.556   2.078
 8697SOL     OW26434   4.800   6.269   3.326
 8697SOL    HW126435   4.720   6.208   3.329
 8697SOL    HW226436   4.881   6.216   3.302
 8698SOL     OW26437   4.951   7.156   2.655
 8698SOL    HW126438   4.972   7.230   2.590
 8698SOL    HW226439   5.019   7.156   2.728
 8699SOL     OW26440   4.183   6.738   2.603
 8699SOL    HW126441   4.112   6.711   2.668
 8699SOL    HW226442   4.157   6.710   2.510
 8700SOL     OW26443   3.802   6.142   3.248
 8700SOL    HW126444   3.894   6.141   3.207
 8700SOL    HW226445   3.796   6.216   3.315
 8701SOL     OW26446   4.590   6.040   2.504
 8701SOL    HW126447   4.558   6.112   2.442
 8701SOL    HW226448   4.614   5.959   2.451
 8702SOL     OW26449   5.153   6.759   2.729
 8702SOL    HW126450   5.098   6.675   2.722
 8702SOL    HW226451   5.179   6.788   2.637
 8703SOL     OW26452   5.190   6.176   2.854
 8703SOL    HW126453   5.160   6.081   2.861
 8703SOL    HW226454   5.263   6.192   2.920
 8704SOL     OW26455   5.581   6.419   2.239
 8704SOL    HW126456   5.623   6.355   2.303
 8704SOL    HW226457   5.543   6.368   2.161
 8705SOL     OW26458   4.212   6.971   2.036
 8705SOL    HW126459   4.125   6.956   2.083
 8705SOL    HW226460   4.195   6.997   1.941
 8706SOL     OW26461   5.388   6.866   2.519
 8706SOL    HW126462   5.487   6.874   2.533
 8706SOL    HW226463   5.343   6.950   2.550
 8707SOL     OW26464   5.114   6.161   1.940
 8707SOL    HW126465   5.060   6.140   2.021
 8707SOL    HW226466   5.205   6.120   1.949
 8708SOL     OW26467   5.478   6.809   3.450
 8708SOL    HW126468   5.569   6.770   3.437
 8708SOL    HW226469   5.486   6.905   3.474
 8709SOL     OW26470   4.788   6.933   3.202
 8709SOL    HW126471   4.708   6.910   3.257
 8709SOL    HW226472   4.871   6.907   3.251
 8710SOL     OW26473   5.316   7.215   3.487
 8710SOL    HW126474   5.343   7.249   3.397
 8710SOL    HW226475   5.395   7.177   3.533
 8711SOL     OW26476   4.835   6.781   2.962
 8711SOL    HW126477   4.795   6.825   3.043
 8711SOL    HW226478   4.794   6.818   2.879
 8712SOL     OW26479   5.362   6.685   2.941
 8712SOL    HW126480   5.367   6.766   3.000
 8712SOL    HW226481   5.276   6.687   2.890
 8713SOL     OW26482   4.704   6.702   3.581
 8713SOL    HW126483   4.605   6.708   3.591
 8713SOL    HW226484   4.727   6.622   3.525
 8714SOL     OW26485   4.429   6.636   2.230
 8714SOL    HW126486   4.415   6.643   2.329
 8714SOL    HW226487   4.513   6.585   2.212
 8715SOL     OW26488   4.134   6.399   3.113
 8715SOL    HW126489   4.220   6.411   3.163
 8715SOL    HW226490   4.092   6.312   3.140
 8716SOL     OW26491   4.998   5.972   3.124
 8716SOL    HW126492   5.019   6.046   3.188
 8716SOL    HW226493   4.909   5.989   3.081
 8717SOL     OW26494   3.788   7.150   3.193
 8717SOL    HW126495   3.742   7.232   3.159
 8717SOL    HW226496   3.886   7.169   3.202
 8718SOL     OW26497   4.091   6.686   2.363
 8718SOL    HW126498   4.084   6.769   2.307
 8718SOL    HW226499   4.095   6.606   2.303
 8719SOL     OW26500   4.290   6.123   2.727
 8719SOL    HW126501   4.302   6.189   2.653
 8719SOL    HW226502   4.336   6.157   2.810
 8720SOL     OW26503   4.976   6.934   2.250
 8720SOL    HW126504   5.026   7.011   2.290
 8720SOL    HW226505   4.881   6.936   2.282
 8721SOL     OW26506   4.996   7.031   3.004
 8721SOL    HW126507   5.043   7.044   3.091
 8721SOL    HW226508   4.930   6.957   3.013
 8722SOL     OW26509   5.306   6.225   2.334
 8722SOL    HW126510   5.275   6.286   2.407
 8722SOL    HW226511   5.356   6.277   2.265
 8723SOL     OW26512   4.078   7.096   3.191
 8723SOL    HW126513   4.057   7.052   3.104
 8723SOL    HW226514   4.175   7.122   3.194
 8724SOL     OW26515   5.311   6.365   3.532
 8724SOL    HW126516   5.219   6.403   3.527
 8724SOL    HW226517   5.371   6.412   3.467
 8725SOL     OW26518   4.737   5.691   3.632
 8725SOL    HW126519   4.743   5.776   3.580
 8725SOL    HW226520   4.769   5.615   3.575
 8726SOL     OW26521   4.297   6.456   2.891
 8726SOL    HW126522   4.341   6.545   2.882
 8726SOL    HW226523   4.234   6.456   2.968
 8727SOL     OW26524   5.084   6.448   2.907
 8727SOL    HW126525   5.009   6.448   2.841
 8727SOL    HW226526   5.121   6.356   2.916
 8728SOL     OW26527   4.933   6.111   2.137
 8728SOL    HW126528   4.946   6.027   2.191
 8728SOL    HW226529   4.904   6.185   2.197
 8729SOL     OW26530   3.761   6.896   3.144
 8729SOL    HW126531   3.814   6.847   3.212
 8729SOL    HW226532   3.783   6.994   3.149
 8730SOL     OW26533   4.456   6.220   2.926
 8730SOL    HW126534   4.515   6.194   2.850
 8730SOL    HW226535   4.428   6.316   2.915
 8731SOL     OW26536   5.452   6.521   3.716
 8731SOL    HW126537   5.406   6.514   3.627
 8731SOL    HW226538   5.390   6.565   3.782
 8732SOL     OW26539   5.346   5.953   2.236
 8732SOL    HW126540   5.348   5.877   2.300
 8732SOL    HW226541   5.298   6.030   2.276
 8733SOL     OW26542   4.747   6.352   2.828
 8733SOL    HW126543   4.762   6.373   2.924
 8733SOL    HW226544   4.717   6.257   2.819
 8734SOL     OW26545   4.704   7.159   3.562
 8734SOL    HW126546   4.684   7.203   3.474
 8734SOL    HW226547   4.743   7.068   3.546
 8735SOL     OW26548   5.583   7.104   3.467
 8735SOL    HW126549   5.597   7.131   3.372
 8735SOL    HW226550   5.666   7.126   3.520
 8736SOL     OW26551   4.074   6.484   3.666
 8736SOL    HW126552   4.150   6.528   3.714
 8736SOL    HW226553   4.109   6.437   3.584
 8737SOL     OW26554   5.027   6.424   1.904
 8737SOL    HW126555   5.061   6.331   1.919
 8737SOL    HW226556   5.045   6.451   1.809
 8738SOL     OW26557   4.792   6.919   2.711
 8738SOL    HW126558   4.799   6.835   2.656
 8738SOL    HW226559   4.854   6.988   2.675
 8739SOL     OW26560   4.043   6.396   2.811
 8739SOL    HW126561   4.136   6.432   2.816
 8739SOL    HW226562   4.037   6.311   2.863
 8740SOL     OW26563   4.063   6.095   2.868
 8740SOL    HW126564   4.011   6.012   2.851
 8740SOL    HW226565   4.140   6.100   2.804
 8741SOL     OW26566   4.862   5.966   3.540
 8741SOL    HW126567   4.817   6.029   3.604
 8741SOL    HW226568   4.955   5.997   3.523
 8742SOL     OW26569   4.884   5.793   3.339
 8742SOL    HW126570   4.884   5.857   3.416
 8742SOL    HW226571   4.912   5.841   3.256
 8743SOL     OW26572   3.732   6.912   2.062
 8743SOL    HW126573   3.639   6.933   2.031
 8743SOL    HW226574   3.742   6.813   2.075
 8744SOL     OW26575   3.812   7.387   2.789
 8744SOL    HW126576   3.770   7.301   2.762
 8744SOL    HW226577   3.906   7.390   2.755
 8745SOL     OW26578   4.228   7.154   2.772
 8745SOL    HW126579   4.294   7.228   2.781
 8745SOL    HW226580   4.272   7.075   2.730
 8746SOL     OW26581   4.726   6.382   3.100
 8746SOL    HW126582   4.767   6.350   3.186
 8746SOL    HW226583   4.630   6.355   3.097
 8747SOL     OW26584   3.764   6.130   2.976
 8747SOL    HW126585   3.849   6.097   2.935
 8747SOL    HW226586   3.777   6.145   3.074
 8748SOL     OW26587   5.093   6.536   3.522
 8748SOL    HW126588   5.132   6.625   3.542
 8748SOL    HW226589   5.103   6.516   3.425
 8749SOL     OW26590   4.539   6.158   2.187
 8749SOL    HW126591   4.546   6.069   2.141
 8749SOL    HW226592   4.445   6.192   2.179
 8750SOL     OW26593   5.381   6.190   3.068
 8750SOL    HW126594   5.343   6.121   3.130
 8750SOL    HW226595   5.463   6.154   3.024
 8751SOL     OW26596   3.976   7.150   3.606
 8751SOL    HW126597   3.946   7.207   3.682
 8751SOL    HW226598   3.969   7.053   3.632
 8752SOL     OW26599   4.654   7.264   3.327
 8752SOL    HW126600   4.630   7.246   3.232
 8752SOL    HW226601   4.684   7.358   3.337
 8753SOL     OW26602   4.197   6.086   2.053
 8753SOL    HW126603   4.258   6.166   2.057
 8753SOL    HW226604   4.102   6.117   2.060
 8754SOL     OW26605   3.883   6.723   3.328
 8754SOL    HW126606   3.905   6.662   3.404
 8754SOL    HW226607   3.893   6.674   3.242
 8755SOL     OW26608   5.071   6.645   3.096
 8755SOL    HW126609   5.095   6.582   3.022
 8755SOL    HW226610   4.981   6.685   3.078
 8756SOL     OW26611   5.026   6.441   2.171
 8756SOL    HW126612   4.940   6.410   2.213
 8756SOL    HW226613   5.022   6.427   2.072
 8757SOL     OW26614   5.483   7.333   3.016
 8757SOL    HW126615   5.544   7.363   2.943
 8757SOL    HW226616   5.445   7.244   2.994
 8758SOL     OW26617   4.976   7.317   2.990
 8758SOL    HW126618   5.060   7.322   2.936
 8758SOL    HW226619   4.953   7.221   3.008
 8759SOL     OW26620   3.807   6.844   2.884
 8759SOL    HW126621   3.802   6.843   2.984
 8759SOL    HW226622   3.724   6.803   2.846
 8760SOL     OW26623   4.412   7.248   3.578
 8760SOL    HW126624   4.356   7.329   3.587
 8760SOL    HW226625   4.464   7.252   3.492
 8761SOL     OW26626   5.112   7.159   2.339
 8761SOL    HW126627   5.179   7.171   2.265
 8761SOL    HW226628   5.072   7.248   2.362
 8762SOL     OW26629   3.854   7.380   3.713
 8762SOL    HW126630   3.813   7.306   3.766
 8762SOL    HW226631   3.918   7.431   3.771
 8763SOL     OW26632   5.004   6.513   2.534
 8763SOL    HW126633   5.064   6.432   2.536
 8763SOL    HW226634   5.044   6.582   2.474
 8764SOL     OW26635   4.554   6.859   3.284
 8764SOL    HW126636   4.549   6.892   3.379
 8764SOL    HW226637   4.468   6.878   3.238
 8765SOL     OW26638   4.396   7.202   2.016
 8765SOL    HW126639   4.405   7.212   1.917
 8765SOL    HW226640   4.356   7.113   2.037
 8766SOL     OW26641   5.374   7.306   3.256
 8766SOL    HW126642   5.427   7.316   3.172
 8766SOL    HW226643   5.347   7.396   3.290
 8767SOL     OW26644   5.565   5.761   2.825
 8767SOL    HW126645   5.604   5.676   2.789
 8767SOL    HW226646   5.467   5.763   2.806
 8768SOL     OW26647   3.987   5.912   2.582
 8768SOL    HW126648   3.908   5.963   2.548
 8768SOL    HW226649   3.978   5.897   2.680
 8769SOL     OW26650   4.918   7.198   1.893
 8769SOL    HW126651   4.924   7.105   1.930
 8769SOL    HW226652   4.859   7.198   1.813
 8770SOL     OW26653   4.546   6.588   3.234
 8770SOL    HW126654   4.586   6.587   3.142
 8770SOL    HW226655   4.556   6.680   3.274
 8771SOL     OW26656   4.640   6.496   2.153
 8771SOL    HW126657   4.703   6.534   2.085
 8771SOL    HW226658   4.680   6.413   2.192
 8772SOL     OW26659   5.228   7.193   1.906
 8772SOL    HW126660   5.136   7.230   1.913
 8772SOL    HW226661   5.266   7.213   1.816
 8773SOL     OW26662   4.096   6.874   3.352
 8773SOL    HW126663   4.083   6.967   3.318
 8773SOL    HW226664   4.012   6.822   3.339
 8774SOL     OW26665   5.338   6.878   3.151
 8774SOL    HW126666   5.398   6.881   3.231
 8774SOL    HW226667   5.263   6.942   3.164
 8775SOL     OW26668   4.763   6.684   2.558
 8775SOL    HW126669   4.693   6.637   2.612
 8775SOL    HW226670   4.822   6.616   2.515
 8776SOL     OW26671   4.314   7.073   2.353
 8776SOL    HW126672   4.356   7.015   2.283
 8776SOL    HW226673   4.270   7.152   2.309
 8777SOL     OW26674   5.433   5.971   3.243
 8777SOL    HW126675   5.506   6.040   3.247
 8777SOL    HW226676   5.461   5.896   3.184
 8778SOL     OW26677   3.979   6.934   2.152
 8778SOL    HW126678   3.883   6.935   2.125
 8778SOL    HW226679   3.991   6.987   2.236
 8779SOL     OW26680   3.829   6.599   3.588
 8779SOL    HW126681   3.752   6.566   3.642
 8779SOL    HW226682   3.914   6.569   3.630
 8780SOL     OW26683   4.396   5.789   3.351
 8780SOL    HW126684   4.486   5.773   3.311
 8780SOL    HW226685   4.404   5.794   3.450
 8781SOL     OW26686   3.799   5.931   1.895
 8781SOL    HW126687   3.707   5.903   1.866
 8781SOL    HW226688   3.830   6.008   1.839
 8782SOL     OW26689   5.164   6.442   3.260
 8782SOL    HW126690   5.107   6.494   3.197
 8782SOL    HW226691   5.260   6.454   3.236
 8783SOL     OW26692   3.796   5.752   2.180
 8783SOL    HW126693   3.779   5.835   2.126
 8783SOL    HW226694   3.886   5.715   2.158
 8784SOL     OW26695   4.907   6.921   1.981
 8784SOL    HW126696   4.808   6.910   1.983
 8784SOL    HW226697   4.941   6.936   2.074
 8785SOL     OW26698   4.337   6.428   3.293
 8785SOL    HW126699   4.393   6.509   3.276
 8785SOL    HW226700   4.396   6.348   3.296
 8786SOL     OW26701   5.217   7.353   2.821
 8786SOL    HW126702   5.250   7.417   2.752
 8786SOL    HW226703   5.283   7.347   2.896
 8787SOL     OW26704   4.440   6.151   3.570
 8787SOL    HW126705   4.459   6.216   3.644
 8787SOL    HW226706   4.500   6.071   3.579
 8788SOL     OW26707   5.174   6.806   3.495
 8788SOL    HW126708   5.165   6.796   3.594
 8788SOL    HW226709   5.270   6.799   3.469
 8789SOL     OW26710   4.114   7.327   3.422
 8789SOL    HW126711   4.023   7.368   3.420
 8789SOL    HW226712   4.107   7.233   3.454
 8790SOL     OW26713   5.398   6.469   3.116
 8790SOL    HW126714   5.371   6.380   3.079
 8790SOL    HW226715   5.399   6.537   3.043
 8791SOL     OW26716   4.949   5.911   2.311
 8791SOL    HW126717   5.014   5.837   2.300
 8791SOL    HW226718   4.969   5.961   2.395
 8792SOL     OW26719   5.501   5.928   3.504
 8792SOL    HW126720   5.484   5.959   3.410
 8792SOL    HW226721   5.417   5.891   3.542
 8793SOL     OW26722   5.454   6.520   3.379
 8793SOL    HW126723   5.492   6.611   3.394
 8793SOL    HW226724   5.446   6.503   3.280
 8794SOL     OW26725   4.583   6.960   1.878
 8794SOL    HW126726   4.537   6.975   1.966
 8794SOL    HW226727   4.627   7.045   1.848
 8795SOL     OW26728   4.385   7.376   2.815
 8795SOL    HW126729   4.339   7.464   2.802
 8795SOL    HW226730   4.484   7.388   2.808
 8796SOL     OW26731   4.583   6.542   2.723
 8796SOL    HW126732   4.637   6.473   2.771
 8796SOL    HW226733   4.551   6.611   2.789
 8797SOL     OW26734   4.807   6.570   1.949
 8797SOL    HW126735   4.784   6.623   1.867
 8797SOL    HW226736   4.888   6.514   1.930
 8798SOL     OW26737   5.585   7.155   2.713
 8798SOL    HW126738   5.514   7.143   2.643
 8798SOL    HW226739   5.586   7.076   2.773
 8799SOL     OW26740   3.945   6.900   3.706
 8799SOL    HW126741   3.880   6.827   3.685
 8799SOL    HW226742   3.949   6.914   3.804
 8800SOL     OW26743   3.803   6.826   2.515
 8800SOL    HW126744   3.802   6.779   2.603
 8800SOL    HW226745   3.885   6.798   2.464
 8801SOL     OW26746   4.396   6.977   3.486
 8801SOL    HW126747   4.318   6.927   3.524
 8801SOL    HW226748   4.393   7.072   3.517
 8802SOL     OW26749   5.548   5.778   3.089
 8802SOL    HW126750   5.544   5.688   3.133
 8802SOL    HW226751   5.551   5.767   2.990
 8803SOL     OW26752   5.429   7.073   2.966
 8803SOL    HW126753   5.336   7.048   2.939
 8803SOL    HW226754   5.455   7.023   3.048
 8804SOL     OW26755   4.041   6.133   3.142
 8804SOL    HW126756   4.079   6.074   3.214
 8804SOL    HW226757   4.081   6.107   3.054
 8805SOL     OW26758   4.536   7.172   2.549
 8805SOL    HW126759   4.568   7.182   2.455
 8805SOL    HW226760   4.457   7.110   2.551
 8806SOL     OW26761   5.148   5.800   2.974
 8806SOL    HW126762   5.200   5.735   3.029
 8806SOL    HW226763   5.099   5.863   3.035
 8807SOL     OW26764   4.494   6.916   2.163
 8807SOL    HW126765   4.448   6.829   2.180
 8807SOL    HW226766   4.585   6.913   2.204
 8808SOL     OW26767   4.342   7.153   3.146
 8808SOL    HW126768   4.337   7.235   3.203
 8808SOL    HW226769   4.431   7.150   3.101
 8809SOL     OW26770   5.024   6.039   2.553
 8809SOL    HW126771   4.965   6.119   2.557
 8809SOL    HW226772   5.039   6.004   2.646
 8810SOL     OW26773   3.763   6.663   2.162
 8810SOL    HW126774   3.862   6.652   2.153
 8810SOL    HW226775   3.723   6.577   2.194
 8811SOL     OW26776   4.599   7.232   2.199
 8811SOL    HW126777   4.522   7.197   2.145
 8811SOL    HW226778   4.567   7.303   2.261
 8812SOL     OW26779   3.949   5.861   4.720
 8812SOL    HW126780   3.984   5.844   4.812
 8812SOL    HW226781   3.861   5.816   4.708
 8813SOL     OW26782   4.293   6.861   4.889
 8813SOL    HW126783   4.200   6.854   4.852
 8813SOL    HW226784   4.304   6.950   4.933
 8814SOL     OW26785   5.279   7.097   4.427
 8814SOL    HW126786   5.222   7.081   4.508
 8814SOL    HW226787   5.220   7.107   4.347
 8815SOL     OW26788   4.859   6.289   4.441
 8815SOL    HW126789   4.916   6.367   4.416
 8815SOL    HW226790   4.799   6.315   4.517
 8816SOL     OW26791   5.479   6.193   3.955
 8816SOL    HW126792   5.467   6.180   3.856
 8816SOL    HW226793   5.449   6.112   4.004
 8817SOL     OW26794   4.492   6.730   4.747
 8817SOL    HW126795   4.414   6.747   4.807
 8817SOL    HW226796   4.526   6.817   4.711
 8818SOL     OW26797   4.574   6.384   5.547
 8818SOL    HW126798   4.570   6.460   5.612
 8818SOL    HW226799   4.596   6.420   5.456
 8819SOL     OW26800   4.409   6.598   4.389
 8819SOL    HW126801   4.478   6.582   4.459
 8819SOL    HW226802   4.336   6.655   4.427
 8820SOL     OW26803   4.410   6.747   5.527
 8820SOL    HW126804   4.470   6.826   5.541
 8820SOL    HW226805   4.324   6.778   5.486
 8821SOL     OW26806   4.059   7.021   4.785
 8821SOL    HW126807   3.981   6.990   4.732
 8821SOL    HW226808   4.117   7.079   4.728
 8822SOL     OW26809   5.184   7.091   5.063
 8822SOL    HW126810   5.208   7.185   5.089
 8822SOL    HW226811   5.168   7.037   5.145
 8823SOL     OW26812   4.162   5.978   5.223
 8823SOL    HW126813   4.244   5.922   5.232
 8823SOL    HW226814   4.081   5.920   5.227
 8824SOL     OW26815   5.327   6.033   4.461
 8824SOL    HW126816   5.253   6.079   4.411
 8824SOL    HW226817   5.378   6.101   4.514
 8825SOL     OW26818   3.955   7.299   4.207
 8825SOL    HW126819   3.989   7.376   4.261
 8825SOL    HW226820   3.999   7.299   4.117
 8826SOL     OW26821   4.851   6.927   5.414
 8826SOL    HW126822   4.898   6.927   5.502
 8826SOL    HW226823   4.803   6.840   5.403
 8827SOL     OW26824   3.954   7.020   4.262
 8827SOL    HW126825   3.928   7.116   4.262
 8827SOL    HW226826   3.883   6.966   4.307
 8828SOL     OW26827   3.964   6.677   4.610
 8828SOL    HW126828   3.978   6.593   4.662
 8828SOL    HW226829   3.909   6.741   4.665
 8829SOL     OW26830   4.344   7.372   5.163
 8829SOL    HW126831   4.252   7.355   5.198
 8829SOL    HW226832   4.372   7.464   5.189
 8830SOL     OW26833   4.330   6.550   3.847
 8830SOL    HW126834   4.337   6.634   3.793
 8830SOL    HW226835   4.376   6.563   3.935
 8831SOL     OW26836   5.318   5.700   5.204
 8831SOL    HW126837   5.300   5.767   5.132
 8831SOL    HW226838   5.315   5.746   5.293
 8832SOL     OW26839   3.846   6.229   4.287
 8832SOL    HW126840   3.801   6.141   4.304
 8832SOL    HW226841   3.845   6.283   4.371
 8833SOL     OW26842   5.566   7.353   4.083
 8833SOL    HW126843   5.620   7.324   4.163
 8833SOL    HW226844   5.596   7.443   4.054
 8834SOL     OW26845   3.751   7.182   3.841
 8834SOL    HW126846   3.732   7.086   3.862
 8834SOL    HW226847   3.718   7.240   3.916
 8835SOL     OW26848   5.413   6.508   4.336
 8835SOL    HW126849   5.508   6.479   4.344
 8835SOL    HW226850   5.405   6.573   4.261
 8836SOL     OW26851   5.365   6.694   4.156
 8836SOL    HW126852   5.451   6.696   4.104
 8836SOL    HW226853   5.379   6.741   4.244
 8837SOL     OW26854   3.837   6.323   5.321
 8837SOL    HW126855   3.925   6.310   5.366
 8837SOL    HW226856   3.824   6.420   5.299
 8838SOL     OW26857   4.337   6.951   4.450
 8838SOL    HW126858   4.288   6.864   4.459
 8838SOL    HW226859   4.314   6.994   4.363
 8839SOL     OW26860   5.017   6.814   5.147
 8839SOL    HW126861   5.054   6.741   5.089
 8839SOL    HW226862   5.069   6.819   5.232
 8840SOL     OW26863   4.533   5.590   4.226
 8840SOL    HW126864   4.573   5.681   4.217
 8840SOL    HW226865   4.433   5.598   4.232
 8841SOL     OW26866   3.921   6.562   4.988
 8841SOL    HW126867   4.010   6.517   4.974
 8841SOL    HW226868   3.848   6.497   4.969
 8842SOL     OW26869   5.249   6.585   3.914
 8842SOL    HW126870   5.186   6.509   3.927
 8842SOL    HW226871   5.297   6.603   4.000
 8843SOL     OW26872   4.911   7.378   5.340
 8843SOL    HW126873   4.935   7.438   5.264
 8843SOL    HW226874   4.918   7.283   5.310
 8844SOL     OW26875   4.041   5.837   5.525
 8844SOL    HW126876   4.112   5.908   5.531
 8844SOL    HW226877   3.953   5.876   5.553
 8845SOL     OW26878   5.190   7.003   4.677
 8845SOL    HW126879   5.131   7.009   4.757
 8845SOL    HW226880   5.175   6.915   4.631
 8846SOL     OW26881   5.391   7.300   4.296
 8846SOL    HW126882   5.350   7.277   4.208
 8846SOL    HW226883   5.373   7.226   4.361
 8847SOL     OW26884   4.322   6.315   3.994
 8847SOL    HW126885   4.346   6.384   3.926
 8847SOL    HW226886   4.244   6.348   4.048
 8848SOL     OW26887   5.005   5.931   4.668
 8848SOL    HW126888   4.919   5.881   4.655
 8848SOL    HW226889   5.067   5.877   4.724
 8849SOL     OW26890   5.300   7.248   4.031
 8849SOL    HW126891   5.389   7.294   4.034
 8849SOL    HW226892   5.279   7.224   3.936
 8850SOL     OW26893   4.531   6.191   5.189
 8850SOL    HW126894   4.484   6.188   5.278
 8850SOL    HW226895   4.480   6.136   5.123
 8851SOL     OW26896   5.118   6.055   5.398
 8851SOL    HW126897   5.098   6.098   5.486
 8851SOL    HW226898   5.196   5.993   5.407
 8852SOL     OW26899   4.697   6.476   5.296
 8852SOL    HW126900   4.743   6.392   5.267
 8852SOL    HW226901   4.641   6.510   5.221
 8853SOL     OW26902   4.715   5.996   4.966
 8853SOL    HW126903   4.638   6.030   5.020
 8853SOL    HW226904   4.681   5.945   4.887
 8854SOL     OW26905   4.765   6.287   4.153
 8854SOL    HW126906   4.791   6.283   4.249
 8854SOL    HW226907   4.680   6.236   4.139
 8855SOL     OW26908   3.800   6.397   4.513
 8855SOL    HW126909   3.899   6.385   4.522
 8855SOL    HW226910   3.776   6.492   4.534
 8856SOL     OW26911   3.854   7.407   5.295
 8856SOL    HW126912   3.844   7.392   5.394
 8856SOL    HW226913   3.768   7.443   5.259
 8857SOL     OW26914   4.589   5.934   3.919
 8857SOL    HW126915   4.648   5.997   3.870
 8857SOL    HW226916   4.608   5.840   3.890
 8858SOL     OW26917   5.443   6.171   5.555
 8858SOL    HW126918   5.417   6.260   5.519
 8858SOL    HW226919   5.441   6.103   5.482
 8859SOL     OW26920   5.086   6.730   4.269
 8859SOL    HW126921   5.169   6.701   4.221
 8859SOL    HW226922   5.037   6.797   4.213
 8860SOL     OW26923   4.274   5.782   4.609
 8860SOL    HW126924   4.269   5.777   4.709
 8860SOL    HW226925   4.276   5.878   4.580
 8861SOL     OW26926   4.732   7.042   4.201
 8861SOL    HW126927   4.686   7.114   4.149
 8861SOL    HW226928   4.728   7.062   4.299
 8862SOL     OW26929   4.075   7.387   4.577
 8862SOL    HW126930   4.125   7.301   4.583
 8862SOL    HW226931   4.140   7.464   4.574
 8863SOL     OW26932   5.519   6.652   4.597
 8863SOL    HW126933   5.457   6.637   4.521
 8863SOL    HW226934   5.467   6.663   4.682
 8864SOL     OW26935   4.951   7.136   5.230
 8864SOL    HW126936   4.957   7.059   5.294
 8864SOL    HW226937   4.899   7.110   5.150
 8865SOL     OW26938   4.045   6.529   3.966
 8865SOL    HW126939   4.127   6.568   3.924
 8865SOL    HW226940   4.018   6.447   3.917
 8866SOL     OW26941   5.182   6.321   4.452
 8866SOL    HW126942   5.177   6.256   4.527
 8866SOL    HW226943   5.262   6.380   4.465
 8867SOL     OW26944   4.185   6.852   5.451
 8867SOL    HW126945   4.135   6.853   5.365
 8867SOL    HW226946   4.122   6.834   5.527
 8868SOL     OW26947   3.926   5.871   5.222
 8868SOL    HW126948   3.846   5.931   5.209
 8868SOL    HW226949   3.916   5.822   5.308
 8869SOL     OW26950   5.356   6.963   3.805
 8869SOL    HW126951   5.324   7.057   3.795
 8869SOL    HW226952   5.280   6.900   3.793
 8870SOL     OW26953   4.188   7.329   4.047
 8870SOL    HW126954   4.221   7.368   4.133
 8870SOL    HW226955   4.264   7.322   3.982
 8871SOL     OW26956   5.124   5.693   4.150
 8871SOL    HW126957   5.100   5.656   4.060
 8871SOL    HW226958   5.223   5.709   4.154
 8872SOL     OW26959   3.973   7.371   4.965
 8872SOL    HW126960   4.030   7.306   5.015
 8872SOL    HW226961   3.957   7.338   4.872
 8873SOL     OW26962   4.664   7.284   4.628
 8873SOL    HW126963   4.744   7.227   4.649
 8873SOL    HW226964   4.615   7.244   4.551
 8874SOL     OW26965   4.106   6.286   4.204
 8874SOL    HW126966   4.151   6.196   4.201
 8874SOL    HW226967   4.012   6.275   4.237
 8875SOL     OW26968   5.271   5.808   5.453
 8875SOL    HW126969   5.266   5.845   5.545
 8875SOL    HW226970   5.199   5.739   5.441
 8876SOL     OW26971   4.505   5.850   5.473
 8876SOL    HW126972   4.572   5.789   5.516
 8876SOL    HW226973   4.432   5.869   5.538
 8877SOL     OW26974   4.612   7.100   4.919
 8877SOL    HW126975   4.589   7.075   4.825
 8877SOL    HW226976   4.673   7.031   4.958
 8878SOL     OW26977   5.075   6.176   5.157
 8878SOL    HW126978   5.103   6.133   5.242
 8878SOL    HW226979   5.100   6.272   5.158
 8879SOL     OW26980   4.527   6.988   4.648
 8879SOL    HW126981   4.617   7.002   4.606
 8879SOL    HW226982   4.456   6.990   4.577
 8880SOL     OW26983   4.646   6.089   4.623
 8880SOL    HW126984   4.621   6.080   4.527
 8880SOL    HW226985   4.694   6.007   4.654
 8881SOL     OW26986   4.263   5.650   4.236
 8881SOL    HW126987   4.182   5.651   4.294
 8881SOL    HW226988   4.266   5.733   4.181
 8882SOL     OW26989   5.158   6.774   3.765
 8882SOL    HW126990   5.190   6.698   3.822
 8882SOL    HW226991   5.066   6.801   3.795
 8883SOL     OW26992   4.659   5.822   4.204
 8883SOL    HW126993   4.611   5.863   4.126
 8883SOL    HW226994   4.758   5.820   4.185
 8884SOL     OW26995   4.800   6.269   5.188
 8884SOL    HW126996   4.720   6.208   5.191
 8884SOL    HW226997   4.881   6.216   5.164
 8885SOL     OW26998   4.951   7.156   4.517
 8885SOL    HW126999   4.972   7.230   4.452
 8885SOL    HW227000   5.019   7.156   4.590
 8886SOL     OW27001   4.183   6.738   4.465
 8886SOL    HW127002   4.112   6.711   4.530
 8886SOL    HW227003   4.157   6.710   4.372
 8887SOL     OW27004   4.756   6.135   3.740
 8887SOL    HW127005   4.715   6.217   3.701
 8887SOL    HW227006   4.820   6.161   3.813
 8888SOL     OW27007   3.802   6.142   5.110
 8888SOL    HW127008   3.894   6.141   5.069
 8888SOL    HW227009   3.796   6.216   5.177
 8889SOL     OW27010   4.285   5.808   4.871
 8889SOL    HW127011   4.323   5.724   4.908
 8889SOL    HW227012   4.197   5.827   4.915
 8890SOL     OW27013   4.590   6.040   4.366
 8890SOL    HW127014   4.558   6.112   4.304
 8890SOL    HW227015   4.614   5.959   4.313
 8891SOL     OW27016   4.741   5.625   4.477
 8891SOL    HW127017   4.669   5.630   4.408
 8891SOL    HW227018   4.717   5.556   4.546
 8892SOL     OW27019   5.153   6.759   4.591
 8892SOL    HW127020   5.098   6.675   4.584
 8892SOL    HW227021   5.179   6.788   4.499
 8893SOL     OW27022   5.190   6.176   4.716
 8893SOL    HW127023   5.160   6.081   4.723
 8893SOL    HW227024   5.263   6.192   4.782
 8894SOL     OW27025   5.581   6.419   4.101
 8894SOL    HW127026   5.623   6.355   4.165
 8894SOL    HW227027   5.543   6.368   4.023
 8895SOL     OW27028   4.212   6.971   3.898
 8895SOL    HW127029   4.125   6.956   3.945
 8895SOL    HW227030   4.195   6.997   3.803
 8896SOL     OW27031   5.388   6.866   4.381
 8896SOL    HW127032   5.487   6.874   4.395
 8896SOL    HW227033   5.343   6.950   4.412
 8897SOL     OW27034   5.114   6.161   3.802
 8897SOL    HW127035   5.060   6.140   3.883
 8897SOL    HW227036   5.205   6.120   3.811
 8898SOL     OW27037   5.478   6.809   5.312
 8898SOL    HW127038   5.569   6.770   5.299
 8898SOL    HW227039   5.486   6.905   5.336
 8899SOL     OW27040   4.788   6.933   5.064
 8899SOL    HW127041   4.708   6.910   5.119
 8899SOL    HW227042   4.871   6.907   5.113
 8900SOL     OW27043   5.316   7.215   5.349
 8900SOL    HW127044   5.343   7.249   5.259
 8900SOL    HW227045   5.395   7.177   5.395
 8901SOL     OW27046   4.835   6.781   4.824
 8901SOL    HW127047   4.795   6.825   4.905
 8901SOL    HW227048   4.794   6.818   4.741
 8902SOL     OW27049   5.362   6.685   4.803
 8902SOL    HW127050   5.367   6.766   4.862
 8902SOL    HW227051   5.276   6.687   4.752
 8903SOL     OW27052   4.639   5.675   5.126
 8903SOL    HW127053   4.664   5.655   5.031
 8903SOL    HW227054   4.711   5.731   5.168
 8904SOL     OW27055   4.704   6.702   5.443
 8904SOL    HW127056   4.605   6.708   5.453
 8904SOL    HW227057   4.727   6.622   5.387
 8905SOL     OW27058   4.429   6.636   4.092
 8905SOL    HW127059   4.415   6.643   4.191
 8905SOL    HW227060   4.513   6.585   4.074
 8906SOL     OW27061   4.134   6.399   4.975
 8906SOL    HW127062   4.220   6.411   5.025
 8906SOL    HW227063   4.092   6.312   5.002
 8907SOL     OW27064   4.998   5.972   4.986
 8907SOL    HW127065   5.019   6.046   5.050
 8907SOL    HW227066   4.909   5.989   4.943
 8908SOL     OW27067   3.788   7.150   5.055
 8908SOL    HW127068   3.742   7.232   5.021
 8908SOL    HW227069   3.886   7.169   5.064
 8909SOL     OW27070   4.091   6.686   4.225
 8909SOL    HW127071   4.084   6.769   4.169
 8909SOL    HW227072   4.095   6.606   4.165
 8910SOL     OW27073   4.290   6.123   4.589
 8910SOL    HW127074   4.302   6.189   4.515
 8910SOL    HW227075   4.336   6.157   4.672
 8911SOL     OW27076   4.976   6.934   4.112
 8911SOL    HW127077   5.026   7.011   4.152
 8911SOL    HW227078   4.881   6.936   4.144
 8912SOL     OW27079   4.996   7.031   4.866
 8912SOL    HW127080   5.043   7.044   4.953
 8912SOL    HW227081   4.930   6.957   4.875
 8913SOL     OW27082   5.306   6.225   4.196
 8913SOL    HW127083   5.275   6.286   4.269
 8913SOL    HW227084   5.356   6.277   4.127
 8914SOL     OW27085   4.078   7.096   5.053
 8914SOL    HW127086   4.057   7.052   4.966
 8914SOL    HW227087   4.175   7.122   5.056
 8915SOL     OW27088   4.126   6.337   5.322
 8915SOL    HW127089   4.194   6.392   5.275
 8915SOL    HW227090   4.166   6.249   5.349
 8916SOL     OW27091   5.311   6.365   5.394
 8916SOL    HW127092   5.219   6.403   5.389
 8916SOL    HW227093   5.371   6.412   5.329
 8917SOL     OW27094   4.737   5.691   5.494
 8917SOL    HW127095   4.743   5.776   5.442
 8917SOL    HW227096   4.769   5.615   5.437
 8918SOL     OW27097   4.228   5.636   5.464
 8918SOL    HW127098   4.186   5.579   5.394
 8918SOL    HW227099   4.162   5.705   5.496
 8919SOL     OW27100   4.297   6.456   4.753
 8919SOL    HW127101   4.341   6.545   4.744
 8919SOL    HW227102   4.234   6.456   4.830
 8920SOL     OW27103   5.084   6.448   4.769
 8920SOL    HW127104   5.009   6.448   4.703
 8920SOL    HW227105   5.121   6.356   4.778
 8921SOL     OW27106   4.933   6.111   3.999
 8921SOL    HW127107   4.946   6.027   4.053
 8921SOL    HW227108   4.904   6.185   4.059
 8922SOL     OW27109   4.031   5.799   4.955
 8922SOL    HW127110   4.008   5.836   5.045
 8922SOL    HW227111   4.001   5.704   4.949
 8923SOL     OW27112   3.761   6.896   5.006
 8923SOL    HW127113   3.814   6.847   5.074
 8923SOL    HW227114   3.783   6.994   5.011
 8924SOL     OW27115   4.456   6.220   4.788
 8924SOL    HW127116   4.515   6.194   4.712
 8924SOL    HW227117   4.428   6.316   4.777
 8925SOL     OW27118   5.452   6.521   5.578
 8925SOL    HW127119   5.406   6.514   5.489
 8925SOL    HW227120   5.390   6.565   5.644
 8926SOL     OW27121   5.346   5.953   4.098
 8926SOL    HW127122   5.348   5.877   4.162
 8926SOL    HW227123   5.298   6.030   4.138
 8927SOL     OW27124   4.747   6.352   4.690
 8927SOL    HW127125   4.762   6.373   4.786
 8927SOL    HW227126   4.717   6.257   4.681
 8928SOL     OW27127   4.704   7.159   5.424
 8928SOL    HW127128   4.684   7.203   5.336
 8928SOL    HW227129   4.743   7.068   5.408
 8929SOL     OW27130   5.583   7.104   5.329
 8929SOL    HW127131   5.597   7.131   5.234
 8929SOL    HW227132   5.666   7.126   5.382
 8930SOL     OW27133   4.074   6.484   5.528
 8930SOL    HW127134   4.150   6.528   5.576
 8930SOL    HW227135   4.109   6.437   5.446
 8931SOL     OW27136   5.264   5.860   3.849
 8931SOL    HW127137   5.203   5.785   3.872
 8931SOL    HW227138   5.286   5.912   3.932
 8932SOL     OW27139   5.027   6.424   3.766
 8932SOL    HW127140   5.061   6.331   3.781
 8932SOL    HW227141   5.045   6.451   3.671
 8933SOL     OW27142   4.792   6.919   4.573
 8933SOL    HW127143   4.799   6.835   4.518
 8933SOL    HW227144   4.854   6.988   4.537
 8934SOL     OW27145   4.043   6.396   4.673
 8934SOL    HW127146   4.136   6.432   4.678
 8934SOL    HW227147   4.037   6.311   4.725
 8935SOL     OW27148   4.063   6.095   4.730
 8935SOL    HW127149   4.011   6.012   4.713
 8935SOL    HW227150   4.140   6.100   4.666
 8936SOL     OW27151   4.862   5.966   5.402
 8936SOL    HW127152   4.817   6.029   5.466
 8936SOL    HW227153   4.955   5.997   5.385
 8937SOL     OW27154   4.884   5.793   5.201
 8937SOL    HW127155   4.884   5.857   5.278
 8937SOL    HW227156   4.912   5.841   5.118
 8938SOL     OW27157   3.732   6.912   3.924
 8938SOL    HW127158   3.639   6.933   3.893
 8938SOL    HW227159   3.742   6.813   3.937
 8939SOL     OW27160   3.812   7.387   4.651
 8939SOL    HW127161   3.770   7.301   4.624
 8939SOL    HW227162   3.906   7.390   4.617
 8940SOL     OW27163   4.228   7.154   4.634
 8940SOL    HW127164   4.294   7.228   4.643
 8940SOL    HW227165   4.272   7.075   4.592
 8941SOL     OW27166   4.726   6.382   4.962
 8941SOL    HW127167   4.767   6.350   5.048
 8941SOL    HW227168   4.630   6.355   4.959
 8942SOL     OW27169   3.764   6.130   4.838
 8942SOL    HW127170   3.849   6.097   4.797
 8942SOL    HW227171   3.777   6.145   4.936
 8943SOL     OW27172   3.913   6.106   5.446
 8943SOL    HW127173   3.972   6.066   5.376
 8943SOL    HW227174   3.855   6.177   5.405
 8944SOL     OW27175   5.093   6.536   5.384
 8944SOL    HW127176   5.132   6.625   5.404
 8944SOL    HW227177   5.103   6.516   5.287
 8945SOL     OW27178   4.539   6.158   4.049
 8945SOL    HW127179   4.546   6.069   4.003
 8945SOL    HW227180   4.445   6.192   4.041
 8946SOL     OW27181   5.381   6.190   4.930
 8946SOL    HW127182   5.343   6.121   4.992
 8946SOL    HW227183   5.463   6.154   4.886
 8947SOL     OW27184   3.976   7.150   5.468
 8947SOL    HW127185   3.946   7.207   5.544
 8947SOL    HW227186   3.969   7.053   5.494
 8948SOL     OW27187   4.395   6.050   4.993
 8948SOL    HW127188   4.361   5.961   4.963
 8948SOL    HW227189   4.421   6.104   4.913
 8949SOL     OW27190   4.654   7.264   5.189
 8949SOL    HW127191   4.630   7.246   5.094
 8949SOL    HW227192   4.684   7.358   5.199
 8950SOL     OW27193   4.197   6.086   3.915
 8950SOL    HW127194   4.258   6.166   3.919
 8950SOL    HW227195   4.102   6.117   3.922
 8951SOL     OW27196   3.883   6.723   5.190
 8951SOL    HW127197   3.905   6.662   5.266
 8951SOL    HW227198   3.893   6.674   5.104
 8952SOL     OW27199   5.071   6.645   4.958
 8952SOL    HW127200   5.095   6.582   4.884
 8952SOL    HW227201   4.981   6.685   4.940
 8953SOL     OW27202   5.026   6.441   4.033
 8953SOL    HW127203   4.940   6.410   4.075
 8953SOL    HW227204   5.022   6.427   3.934
 8954SOL     OW27205   5.483   7.333   4.878
 8954SOL    HW127206   5.544   7.363   4.805
 8954SOL    HW227207   5.445   7.244   4.856
 8955SOL     OW27208   4.976   7.317   4.852
 8955SOL    HW127209   5.060   7.322   4.798
 8955SOL    HW227210   4.953   7.221   4.870
 8956SOL     OW27211   3.807   6.844   4.746
 8956SOL    HW127212   3.802   6.843   4.846
 8956SOL    HW227213   3.724   6.803   4.708
 8957SOL     OW27214   4.412   7.248   5.440
 8957SOL    HW127215   4.356   7.329   5.449
 8957SOL    HW227216   4.464   7.252   5.354
 8958SOL     OW27217   5.450   5.721   4.247
 8958SOL    HW127218   5.523   5.704   4.180
 8958SOL    HW227219   5.419   5.634   4.285
 8959SOL     OW27220   5.112   7.159   4.201
 8959SOL    HW127221   5.179   7.171   4.127
 8959SOL    HW227222   5.072   7.248   4.224
 8960SOL     OW27223   3.854   7.380   5.575
 8960SOL    HW127224   3.813   7.306   5.628
 8960SOL    HW227225   3.918   7.431   5.633
 8961SOL     OW27226   5.004   6.513   4.396
 8961SOL    HW127227   5.064   6.432   4.398
 8961SOL    HW227228   5.044   6.582   4.336
 8962SOL     OW27229   4.554   6.859   5.146
 8962SOL    HW127230   4.549   6.892   5.241
 8962SOL    HW227231   4.468   6.878   5.100
 8963SOL     OW27232   4.396   7.202   3.878
 8963SOL    HW127233   4.405   7.212   3.779
 8963SOL    HW227234   4.356   7.113   3.899
 8964SOL     OW27235   5.374   7.306   5.118
 8964SOL    HW127236   5.427   7.316   5.034
 8964SOL    HW227237   5.347   7.396   5.152
 8965SOL     OW27238   5.565   5.761   4.687
 8965SOL    HW127239   5.604   5.676   4.651
 8965SOL    HW227240   5.467   5.763   4.668
 8966SOL     OW27241   3.987   5.912   4.444
 8966SOL    HW127242   3.908   5.963   4.410
 8966SOL    HW227243   3.978   5.897   4.542
 8967SOL     OW27244   4.918   7.198   3.755
 8967SOL    HW127245   4.924   7.105   3.792
 8967SOL    HW227246   4.859   7.198   3.675
 8968SOL     OW27247   4.546   6.588   5.096
 8968SOL    HW127248   4.586   6.587   5.004
 8968SOL    HW227249   4.556   6.680   5.136
 8969SOL     OW27250   4.640   6.496   4.015
 8969SOL    HW127251   4.703   6.534   3.947
 8969SOL    HW227252   4.680   6.413   4.054
 8970SOL     OW27253   5.228   7.193   3.768
 8970SOL    HW127254   5.136   7.230   3.775
 8970SOL    HW227255   5.266   7.213   3.678
 8971SOL     OW27256   4.096   6.874   5.214
 8971SOL    HW127257   4.083   6.967   5.180
 8971SOL    HW227258   4.012   6.822   5.201
 8972SOL     OW27259   5.338   6.878   5.013
 8972SOL    HW127260   5.398   6.881   5.093
 8972SOL    HW227261   5.263   6.942   5.026
 8973SOL     OW27262   4.763   6.684   4.420
 8973SOL    HW127263   4.693   6.637   4.474
 8973SOL    HW227264   4.822   6.616   4.377
 8974SOL     OW27265   4.738   5.822   4.695
 8974SOL    HW127266   4.730   5.786   4.602
 8974SOL    HW227267   4.736   5.746   4.760
 8975SOL     OW27268   4.314   7.073   4.215
 8975SOL    HW127269   4.356   7.015   4.145
 8975SOL    HW227270   4.270   7.152   4.171
 8976SOL     OW27271   5.433   5.971   5.105
 8976SOL    HW127272   5.506   6.040   5.109
 8976SOL    HW227273   5.461   5.896   5.046
 8977SOL     OW27274   3.979   6.934   4.014
 8977SOL    HW127275   3.883   6.935   3.987
 8977SOL    HW227276   3.991   6.987   4.098
 8978SOL     OW27277   3.829   6.599   5.450
 8978SOL    HW127278   3.752   6.566   5.504
 8978SOL    HW227279   3.914   6.569   5.492
 8979SOL     OW27280   4.396   5.789   5.213
 8979SOL    HW127281   4.486   5.773   5.173
 8979SOL    HW227282   4.404   5.794   5.312
 8980SOL     OW27283   5.164   6.442   5.122
 8980SOL    HW127284   5.107   6.494   5.059
 8980SOL    HW227285   5.260   6.454   5.098
 8981SOL     OW27286   4.907   6.921   3.843
 8981SOL    HW127287   4.808   6.910   3.845
 8981SOL    HW227288   4.941   6.936   3.936
 8982SOL     OW27289   4.337   6.428   5.155
 8982SOL    HW127290   4.393   6.509   5.138
 8982SOL    HW227291   4.396   6.348   5.158
 8983SOL     OW27292   5.217   7.353   4.683
 8983SOL    HW127293   5.250   7.417   4.614
 8983SOL    HW227294   5.283   7.347   4.758
 8984SOL     OW27295   4.440   6.151   5.432
 8984SOL    HW127296   4.459   6.216   5.506
 8984SOL    HW227297   4.500   6.071   5.441
 8985SOL     OW27298   5.174   6.806   5.357
 8985SOL    HW127299   5.165   6.796   5.456
 8985SOL    HW227300   5.270   6.799   5.331
 8986SOL     OW27301   4.114   7.327   5.284
 8986SOL    HW127302   4.023   7.368   5.282
 8986SOL    HW227303   4.107   7.233   5.316
 8987SOL     OW27304   5.398   6.469   4.978
 8987SOL    HW127305   5.371   6.380   4.941
 8987SOL    HW227306   5.399   6.537   4.905
 8988SOL     OW27307   4.949   5.911   4.173
 8988SOL    HW127308   5.014   5.837   4.162
 8988SOL    HW227309   4.969   5.961   4.257
 8989SOL     OW27310   4.318   6.331   4.376
 8989SOL    HW127311   4.368   6.416   4.357
 8989SOL    HW227312   4.230   6.333   4.328
 8990SOL     OW27313   5.501   5.928   5.366
 8990SOL    HW127314   5.484   5.959   5.272
 8990SOL    HW227315   5.417   5.891   5.404
 8991SOL     OW27316   5.454   6.520   5.241
 8991SOL    HW127317   5.492   6.611   5.256
 8991SOL    HW227318   5.446   6.503   5.142
 8992SOL     OW27319   4.583   6.960   3.740
 8992SOL    HW127320   4.537   6.975   3.828
 8992SOL    HW227321   4.627   7.045   3.710
 8993SOL     OW27322   4.385   7.376   4.677
 8993SOL    HW127323   4.339   7.464   4.664
 8993SOL    HW227324   4.484   7.388   4.670
 8994SOL     OW27325   4.583   6.542   4.585
 8994SOL    HW127326   4.637   6.473   4.633
 8994SOL    HW227327   4.551   6.611   4.651
 8995SOL     OW27328   4.807   6.570   3.811
 8995SOL    HW127329   4.784   6.623   3.729
 8995SOL    HW227330   4.888   6.514   3.792
 8996SOL     OW27331   5.585   7.155   4.575
 8996SOL    HW127332   5.514   7.143   4.505
 8996SOL    HW227333   5.586   7.076   4.635
 8997SOL     OW27334   3.945   6.900   5.568
 8997SOL    HW127335   3.880   6.827   5.547
 8997SOL    HW227336   3.949   6.914   5.666
 8998SOL     OW27337   3.803   6.826   4.377
 8998SOL    HW127338   3.802   6.779   4.465
 8998SOL    HW227339   3.885   6.798   4.326
 8999SOL     OW27340   4.396   6.977   5.348
 8999SOL    HW127341   4.318   6.927   5.386
 8999SOL    HW227342   4.393   7.072   5.379
 9000SOL     OW27343   5.548   5.778   4.951
 9000SOL    HW127344   5.544   5.688   4.995
 9000SOL    HW227345   5.551   5.767   4.852
 9001SOL     OW27346   4.152   6.010   4.244
 9001SOL    HW127347   4.182   5.938   4.182
 9001SOL    HW227348   4.113   5.970   4.327
 9002SOL     OW27349   5.429   7.073   4.828
 9002SOL    HW127350   5.336   7.048   4.801
 9002SOL    HW227351   5.455   7.023   4.910
 9003SOL     OW27352   4.041   6.133   5.004
 9003SOL    HW127353   4.079   6.074   5.076
 9003SOL    HW227354   4.081   6.107   4.916
 9004SOL     OW27355   4.536   7.172   4.411
 9004SOL    HW127356   4.568   7.182   4.317
 9004SOL    HW227357   4.457   7.110   4.413
 9005SOL     OW27358   5.148   5.800   4.836
 9005SOL    HW127359   5.200   5.735   4.891
 9005SOL    HW227360   5.099   5.863   4.897
 9006SOL     OW27361   4.725   5.620   4.878
 9006SOL    HW127362   4.662   5.548   4.847
 9006SOL    HW227363   4.818   5.584   4.878
 9007SOL     OW27364   4.494   6.916   4.025
 9007SOL    HW127365   4.448   6.829   4.042
 9007SOL    HW227366   4.585   6.913   4.066
 9008SOL     OW27367   4.342   7.153   5.008
 9008SOL    HW127368   4.337   7.235   5.065
 9008SOL    HW227369   4.431   7.150   4.963
 9009SOL     OW27370   5.076   5.638   3.892
 9009SOL    HW127371   5.111   5.597   3.808
 9009SOL    HW227372   4.986   5.600   3.912
 9010SOL     OW27373   5.024   6.039   4.415
 9010SOL    HW127374   4.965   6.119   4.419
 9010SOL    HW227375   5.039   6.004   4.508
 9011SOL     OW27376   5.317   5.807   4.606
 9011SOL    HW127377   5.233   5.806   4.660
 9011SOL    HW227378   5.319   5.890   4.550
 9012SOL     OW27379   3.763   6.663   4.024
 9012SOL    HW127380   3.862   6.652   4.015
 9012SOL    HW227381   3.723   6.577   4.056
 9013SOL     OW27382   4.599   7.232   4.061
 9013SOL    HW127383   4.522   7.197   4.007
 9013SOL    HW227384   4.567   7.303   4.123
 9014SOL     OW27385   3.954   6.214   5.699
 9014SOL    HW127386   3.861   6.212   5.736
 9014SOL    HW227387   3.955   6.175   5.607
 9015SOL     OW27388   3.949   5.861   6.582
 9015SOL    HW127389   3.984   5.844   6.674
 9015SOL    HW227390   3.861   5.816   6.570
 9016SOL     OW27391   3.743   5.954   6.233
 9016SOL    HW127392   3.661   5.997   6.272
 9016SOL    HW227393   3.715   5.881   6.170
 9017SOL     OW27394   4.293   6.861   6.751
 9017SOL    HW127395   4.200   6.854   6.714
 9017SOL    HW227396   4.304   6.950   6.795
 9018SOL     OW27397   5.279   7.097   6.289
 9018SOL    HW127398   5.222   7.081   6.370
 9018SOL    HW227399   5.220   7.107   6.209
 9019SOL     OW27400   4.859   6.289   6.303
 9019SOL    HW127401   4.916   6.367   6.278
 9019SOL    HW227402   4.799   6.315   6.379
 9020SOL     OW27403   5.479   6.193   5.817
 9020SOL    HW127404   5.467   6.180   5.718
 9020SOL    HW227405   5.449   6.112   5.866
 9021SOL     OW27406   4.492   6.730   6.609
 9021SOL    HW127407   4.414   6.747   6.669
 9021SOL    HW227408   4.526   6.817   6.573
 9022SOL     OW27409   4.409   6.598   6.251
 9022SOL    HW127410   4.478   6.582   6.321
 9022SOL    HW227411   4.336   6.655   6.289
 9023SOL     OW27412   4.059   7.021   6.647
 9023SOL    HW127413   3.981   6.990   6.594
 9023SOL    HW227414   4.117   7.079   6.590
 9024SOL     OW27415   5.327   6.033   6.323
 9024SOL    HW127416   5.253   6.079   6.273
 9024SOL    HW227417   5.378   6.101   6.376
 9025SOL     OW27418   3.955   7.299   6.069
 9025SOL    HW127419   3.989   7.376   6.123
 9025SOL    HW227420   3.999   7.299   5.979
 9026SOL     OW27421   3.954   7.020   6.124
 9026SOL    HW127422   3.928   7.116   6.124
 9026SOL    HW227423   3.883   6.966   6.169
 9027SOL     OW27424   3.964   6.677   6.472
 9027SOL    HW127425   3.978   6.593   6.524
 9027SOL    HW227426   3.909   6.741   6.527
 9028SOL     OW27427   4.330   6.550   5.709
 9028SOL    HW127428   4.337   6.634   5.655
 9028SOL    HW227429   4.376   6.563   5.797
 9029SOL     OW27430   3.846   6.229   6.149
 9029SOL    HW127431   3.801   6.141   6.166
 9029SOL    HW227432   3.845   6.283   6.233
 9030SOL     OW27433   5.566   7.353   5.945
 9030SOL    HW127434   5.620   7.324   6.025
 9030SOL    HW227435   5.596   7.443   5.916
 9031SOL     OW27436   3.751   7.182   5.703
 9031SOL    HW127437   3.732   7.086   5.724
 9031SOL    HW227438   3.718   7.240   5.778
 9032SOL     OW27439   5.413   6.508   6.198
 9032SOL    HW127440   5.508   6.479   6.206
 9032SOL    HW227441   5.405   6.573   6.123
 9033SOL     OW27442   5.365   6.694   6.018
 9033SOL    HW127443   5.451   6.696   5.966
 9033SOL    HW227444   5.379   6.741   6.106
 9034SOL     OW27445   4.337   6.951   6.312
 9034SOL    HW127446   4.288   6.864   6.321
 9034SOL    HW227447   4.314   6.994   6.225
 9035SOL     OW27448   4.533   5.590   6.088
 9035SOL    HW127449   4.573   5.681   6.079
 9035SOL    HW227450   4.433   5.598   6.094
 9036SOL     OW27451   5.249   6.585   5.776
 9036SOL    HW127452   5.186   6.509   5.789
 9036SOL    HW227453   5.297   6.603   5.862
 9037SOL     OW27454   5.391   7.300   6.158
 9037SOL    HW127455   5.350   7.277   6.070
 9037SOL    HW227456   5.373   7.226   6.223
 9038SOL     OW27457   4.322   6.315   5.856
 9038SOL    HW127458   4.346   6.384   5.788
 9038SOL    HW227459   4.244   6.348   5.910
 9039SOL     OW27460   5.005   5.931   6.530
 9039SOL    HW127461   4.919   5.881   6.517
 9039SOL    HW227462   5.067   5.877   6.586
 9040SOL     OW27463   5.300   7.248   5.893
 9040SOL    HW127464   5.389   7.294   5.896
 9040SOL    HW227465   5.279   7.224   5.798
 9041SOL     OW27466   4.715   5.996   6.828
 9041SOL    HW127467   4.638   6.030   6.882
 9041SOL    HW227468   4.681   5.945   6.749
 9042SOL     OW27469   4.765   6.287   6.015
 9042SOL    HW127470   4.791   6.283   6.111
 9042SOL    HW227471   4.680   6.236   6.001
 9043SOL     OW27472   3.800   6.397   6.375
 9043SOL    HW127473   3.899   6.385   6.384
 9043SOL    HW227474   3.776   6.492   6.396
 9044SOL     OW27475   4.589   5.934   5.781
 9044SOL    HW127476   4.648   5.997   5.732
 9044SOL    HW227477   4.608   5.840   5.752
 9045SOL     OW27478   5.086   6.730   6.131
 9045SOL    HW127479   5.169   6.701   6.083
 9045SOL    HW227480   5.037   6.797   6.075
 9046SOL     OW27481   4.274   5.782   6.471
 9046SOL    HW127482   4.269   5.777   6.571
 9046SOL    HW227483   4.276   5.878   6.442
 9047SOL     OW27484   4.732   7.042   6.063
 9047SOL    HW127485   4.686   7.114   6.011
 9047SOL    HW227486   4.728   7.062   6.161
 9048SOL     OW27487   4.075   7.387   6.439
 9048SOL    HW127488   4.125   7.301   6.445
 9048SOL    HW227489   4.140   7.464   6.436
 9049SOL     OW27490   5.519   6.652   6.459
 9049SOL    HW127491   5.457   6.637   6.383
 9049SOL    HW227492   5.467   6.663   6.544
 9050SOL     OW27493   4.045   6.529   5.828
 9050SOL    HW127494   4.127   6.568   5.786
 9050SOL    HW227495   4.018   6.447   5.779
 9051SOL     OW27496   5.182   6.321   6.314
 9051SOL    HW127497   5.177   6.256   6.389
 9051SOL    HW227498   5.262   6.380   6.327
 9052SOL     OW27499   5.356   6.963   5.667
 9052SOL    HW127500   5.324   7.057   5.657
 9052SOL    HW227501   5.280   6.900   5.655
 9053SOL     OW27502   4.188   7.329   5.909
 9053SOL    HW127503   4.221   7.368   5.995
 9053SOL    HW227504   4.264   7.322   5.844
 9054SOL     OW27505   5.124   5.693   6.012
 9054SOL    HW127506   5.100   5.656   5.922
 9054SOL    HW227507   5.223   5.709   6.016
 9055SOL     OW27508   3.973   7.371   6.827
 9055SOL    HW127509   4.030   7.306   6.877
 9055SOL    HW227510   3.957   7.338   6.734
 9056SOL     OW27511   4.664   7.284   6.490
 9056SOL    HW127512   4.744   7.227   6.511
 9056SOL    HW227513   4.615   7.244   6.413
 9057SOL     OW27514   4.106   6.286   6.066
 9057SOL    HW127515   4.151   6.196   6.063
 9057SOL    HW227516   4.012   6.275   6.099
 9058SOL     OW27517   4.338   5.708   5.703
 9058SOL    HW127518   4.436   5.686   5.710
 9058SOL    HW227519   4.307   5.691   5.610
 9059SOL     OW27520   4.612   7.100   6.781
 9059SOL    HW127521   4.589   7.075   6.687
 9059SOL    HW227522   4.673   7.031   6.820
 9060SOL     OW27523   4.527   6.988   6.510
 9060SOL    HW127524   4.617   7.002   6.468
 9060SOL    HW227525   4.456   6.990   6.439
 9061SOL     OW27526   4.646   6.089   6.485
 9061SOL    HW127527   4.621   6.080   6.389
 9061SOL    HW227528   4.694   6.007   6.516
 9062SOL     OW27529   4.263   5.650   6.098
 9062SOL    HW127530   4.182   5.651   6.156
 9062SOL    HW227531   4.266   5.733   6.043
 9063SOL     OW27532   5.158   6.774   5.627
 9063SOL    HW127533   5.190   6.698   5.684
 9063SOL    HW227534   5.066   6.801   5.657
 9064SOL     OW27535   4.021   5.621   5.757
 9064SOL    HW127536   4.070   5.705   5.736
 9064SOL    HW227537   4.083   5.556   5.802
 9065SOL     OW27538   4.659   5.822   6.066
 9065SOL    HW127539   4.611   5.863   5.988
 9065SOL    HW227540   4.758   5.820   6.047
 9066SOL     OW27541   4.951   7.156   6.379
 9066SOL    HW127542   4.972   7.230   6.314
 9066SOL    HW227543   5.019   7.156   6.452
 9067SOL     OW27544   4.183   6.738   6.327
 9067SOL    HW127545   4.112   6.711   6.392
 9067SOL    HW227546   4.157   6.710   6.234
 9068SOL     OW27547   4.756   6.135   5.602
 9068SOL    HW127548   4.715   6.217   5.563
 9068SOL    HW227549   4.820   6.161   5.675
 9069SOL     OW27550   4.285   5.808   6.733
 9069SOL    HW127551   4.323   5.724   6.770
 9069SOL    HW227552   4.197   5.827   6.777
 9070SOL     OW27553   4.590   6.040   6.228
 9070SOL    HW127554   4.558   6.112   6.166
 9070SOL    HW227555   4.614   5.959   6.175
 9071SOL     OW27556   4.741   5.625   6.339
 9071SOL    HW127557   4.669   5.630   6.270
 9071SOL    HW227558   4.717   5.556   6.408
 9072SOL     OW27559   5.153   6.759   6.453
 9072SOL    HW127560   5.098   6.675   6.446
 9072SOL    HW227561   5.179   6.788   6.361
 9073SOL     OW27562   5.190   6.176   6.578
 9073SOL    HW127563   5.160   6.081   6.585
 9073SOL    HW227564   5.263   6.192   6.644
 9074SOL     OW27565   5.581   6.419   5.963
 9074SOL    HW127566   5.623   6.355   6.027
 9074SOL    HW227567   5.543   6.368   5.885
 9075SOL     OW27568   4.212   6.971   5.760
 9075SOL    HW127569   4.125   6.956   5.807
 9075SOL    HW227570   4.195   6.997   5.665
 9076SOL     OW27571   5.388   6.866   6.243
 9076SOL    HW127572   5.487   6.874   6.257
 9076SOL    HW227573   5.343   6.950   6.274
 9077SOL     OW27574   5.114   6.161   5.664
 9077SOL    HW127575   5.060   6.140   5.745
 9077SOL    HW227576   5.205   6.120   5.673
 9078SOL     OW27577   4.251   5.842   5.914
 9078SOL    HW127578   4.278   5.783   5.839
 9078SOL    HW227579   4.251   5.937   5.883
 9079SOL     OW27580   4.835   6.781   6.686
 9079SOL    HW127581   4.795   6.825   6.767
 9079SOL    HW227582   4.794   6.818   6.603
 9080SOL     OW27583   4.429   6.636   5.954
 9080SOL    HW127584   4.415   6.643   6.053
 9080SOL    HW227585   4.513   6.585   5.936
 9081SOL     OW27586   4.091   6.686   6.087
 9081SOL    HW127587   4.084   6.769   6.031
 9081SOL    HW227588   4.095   6.606   6.027
 9082SOL     OW27589   4.290   6.123   6.451
 9082SOL    HW127590   4.302   6.189   6.377
 9082SOL    HW227591   4.336   6.157   6.534
 9083SOL     OW27592   4.976   6.934   5.974
 9083SOL    HW127593   5.026   7.011   6.014
 9083SOL    HW227594   4.881   6.936   6.006
 9084SOL     OW27595   4.996   7.031   6.728
 9084SOL    HW127596   5.043   7.044   6.815
 9084SOL    HW227597   4.930   6.957   6.737
 9085SOL     OW27598   5.306   6.225   6.058
 9085SOL    HW127599   5.275   6.286   6.131
 9085SOL    HW227600   5.356   6.277   5.989
 9086SOL     OW27601   4.297   6.456   6.615
 9086SOL    HW127602   4.341   6.545   6.606
 9086SOL    HW227603   4.234   6.456   6.692
 9087SOL     OW27604   5.084   6.448   6.631
 9087SOL    HW127605   5.009   6.448   6.565
 9087SOL    HW227606   5.121   6.356   6.640
 9088SOL     OW27607   4.933   6.111   5.861
 9088SOL    HW127608   4.946   6.027   5.915
 9088SOL    HW227609   4.904   6.185   5.921
 9089SOL     OW27610   4.456   6.220   6.650
 9089SOL    HW127611   4.515   6.194   6.574
 9089SOL    HW227612   4.428   6.316   6.639
 9090SOL     OW27613   4.031   5.649   6.204
 9090SOL    HW127614   4.020   5.743   6.237
 9090SOL    HW227615   4.026   5.586   6.281
 9091SOL     OW27616   5.346   5.953   5.960
 9091SOL    HW127617   5.348   5.877   6.024
 9091SOL    HW227618   5.298   6.030   6.000
 9092SOL     OW27619   4.747   6.352   6.552
 9092SOL    HW127620   4.762   6.373   6.648
 9092SOL    HW227621   4.717   6.257   6.543
 9093SOL     OW27622   5.264   5.860   5.711
 9093SOL    HW127623   5.203   5.785   5.734
 9093SOL    HW227624   5.286   5.912   5.794
 9094SOL     OW27625   5.027   6.424   5.628
 9094SOL    HW127626   5.061   6.331   5.643
 9094SOL    HW227627   5.045   6.451   5.533
 9095SOL     OW27628   4.792   6.919   6.435
 9095SOL    HW127629   4.799   6.835   6.380
 9095SOL    HW227630   4.854   6.988   6.399
 9096SOL     OW27631   4.043   6.396   6.535
 9096SOL    HW127632   4.136   6.432   6.540
 9096SOL    HW227633   4.037   6.311   6.587
 9097SOL     OW27634   4.063   6.095   6.592
 9097SOL    HW127635   4.011   6.012   6.575
 9097SOL    HW227636   4.140   6.100   6.528
 9098SOL     OW27637   3.732   6.912   5.786
 9098SOL    HW127638   3.639   6.933   5.755
 9098SOL    HW227639   3.742   6.813   5.799
 9099SOL     OW27640   3.812   7.387   6.513
 9099SOL    HW127641   3.770   7.301   6.486
 9099SOL    HW227642   3.906   7.390   6.479
 9100SOL     OW27643   4.228   7.154   6.496
 9100SOL    HW127644   4.294   7.228   6.505
 9100SOL    HW227645   4.272   7.075   6.454
 9101SOL     OW27646   3.764   6.130   6.700
 9101SOL    HW127647   3.849   6.097   6.659
 9101SOL    HW227648   3.777   6.145   6.798
 9102SOL     OW27649   4.539   6.158   5.911
 9102SOL    HW127650   4.546   6.069   5.865
 9102SOL    HW227651   4.445   6.192   5.903
 9103SOL     OW27652   4.395   6.050   6.855
 9103SOL    HW127653   4.361   5.961   6.825
 9103SOL    HW227654   4.421   6.104   6.775
 9104SOL     OW27655   4.197   6.086   5.777
 9104SOL    HW127656   4.258   6.166   5.781
 9104SOL    HW227657   4.102   6.117   5.784
 9105SOL     OW27658   5.071   6.645   6.820
 9105SOL    HW127659   5.095   6.582   6.746
 9105SOL    HW227660   4.981   6.685   6.802
 9106SOL     OW27661   5.026   6.441   5.895
 9106SOL    HW127662   4.940   6.410   5.937
 9106SOL    HW227663   5.022   6.427   5.796
 9107SOL     OW27664   4.976   7.317   6.714
 9107SOL    HW127665   5.060   7.322   6.660
 9107SOL    HW227666   4.953   7.221   6.732
 9108SOL     OW27667   3.807   6.844   6.608
 9108SOL    HW127668   3.802   6.843   6.708
 9108SOL    HW227669   3.724   6.803   6.570
 9109SOL     OW27670   5.450   5.721   6.109
 9109SOL    HW127671   5.523   5.704   6.042
 9109SOL    HW227672   5.419   5.634   6.147
 9110SOL     OW27673   5.112   7.159   6.063
 9110SOL    HW127674   5.179   7.171   5.989
 9110SOL    HW227675   5.072   7.248   6.086
 9111SOL     OW27676   5.004   6.513   6.258
 9111SOL    HW127677   5.064   6.432   6.260
 9111SOL    HW227678   5.044   6.582   6.198
 9112SOL     OW27679   4.396   7.202   5.740
 9112SOL    HW127680   4.405   7.212   5.641
 9112SOL    HW227681   4.356   7.113   5.761
 9113SOL     OW27682   5.565   5.761   6.549
 9113SOL    HW127683   5.604   5.676   6.513
 9113SOL    HW227684   5.467   5.763   6.530
 9114SOL     OW27685   3.987   5.912   6.306
 9114SOL    HW127686   3.908   5.963   6.272
 9114SOL    HW227687   3.978   5.897   6.404
 9115SOL     OW27688   4.918   7.198   5.617
 9115SOL    HW127689   4.924   7.105   5.654
 9115SOL    HW227690   4.859   7.198   5.537
 9116SOL     OW27691   4.640   6.496   5.877
 9116SOL    HW127692   4.703   6.534   5.809
 9116SOL    HW227693   4.680   6.413   5.916
 9117SOL     OW27694   5.228   7.193   5.630
 9117SOL    HW127695   5.136   7.230   5.637
 9117SOL    HW227696   5.266   7.213   5.540
 9118SOL     OW27697   4.763   6.684   6.282
 9118SOL    HW127698   4.693   6.637   6.336
 9118SOL    HW227699   4.822   6.616   6.239
 9119SOL     OW27700   4.738   5.822   6.557
 9119SOL    HW127701   4.730   5.786   6.464
 9119SOL    HW227702   4.736   5.746   6.622
 9120SOL     OW27703   4.314   7.073   6.077
 9120SOL    HW127704   4.356   7.015   6.007
 9120SOL    HW227705   4.270   7.152   6.033
 9121SOL     OW27706   3.979   6.934   5.876
 9121SOL    HW127707   3.883   6.935   5.849
 9121SOL    HW227708   3.991   6.987   5.960
 9122SOL     OW27709   3.799   5.931   5.619
 9122SOL    HW127710   3.707   5.903   5.590
 9122SOL    HW227711   3.830   6.008   5.563
 9123SOL     OW27712   3.796   5.752   5.904
 9123SOL    HW127713   3.779   5.835   5.850
 9123SOL    HW227714   3.886   5.715   5.882
 9124SOL     OW27715   4.907   6.921   5.705
 9124SOL    HW127716   4.808   6.910   5.707
 9124SOL    HW227717   4.941   6.936   5.798
 9125SOL     OW27718   5.398   6.469   6.840
 9125SOL    HW127719   5.371   6.380   6.803
 9125SOL    HW227720   5.399   6.537   6.767
 9126SOL     OW27721   4.949   5.911   6.035
 9126SOL    HW127722   5.014   5.837   6.024
 9126SOL    HW227723   4.969   5.961   6.119
 9127SOL     OW27724   4.318   6.331   6.238
 9127SOL    HW127725   4.368   6.416   6.219
 9127SOL    HW227726   4.230   6.333   6.190
 9128SOL     OW27727   4.583   6.960   5.602
 9128SOL    HW127728   4.537   6.975   5.690
 9128SOL    HW227729   4.627   7.045   5.572
 9129SOL     OW27730   4.385   7.376   6.539
 9129SOL    HW127731   4.339   7.464   6.526
 9129SOL    HW227732   4.484   7.388   6.532
 9130SOL     OW27733   4.583   6.542   6.447
 9130SOL    HW127734   4.637   6.473   6.495
 9130SOL    HW227735   4.551   6.611   6.513
 9131SOL     OW27736   4.807   6.570   5.673
 9131SOL    HW127737   4.784   6.623   5.591
 9131SOL    HW227738   4.888   6.514   5.654
 9132SOL     OW27739   5.585   7.155   6.437
 9132SOL    HW127740   5.514   7.143   6.367
 9132SOL    HW227741   5.586   7.076   6.497
 9133SOL     OW27742   3.803   6.826   6.239
 9133SOL    HW127743   3.802   6.779   6.327
 9133SOL    HW227744   3.885   6.798   6.188
 9134SOL     OW27745   4.152   6.010   6.106
 9134SOL    HW127746   4.182   5.938   6.044
 9134SOL    HW227747   4.113   5.970   6.189
 9135SOL     OW27748   4.041   6.133   6.866
 9135SOL    HW127749   4.079   6.074   6.938
 9135SOL    HW227750   4.081   6.107   6.778
 9136SOL     OW27751   4.536   7.172   6.273
 9136SOL    HW127752   4.568   7.182   6.179
 9136SOL    HW227753   4.457   7.110   6.275
 9137SOL     OW27754   5.148   5.800   6.698
 9137SOL    HW127755   5.200   5.735   6.753
 9137SOL    HW227756   5.099   5.863   6.759
 9138SOL     OW27757   4.725   5.620   6.740
 9138SOL    HW127758   4.662   5.548   6.709
 9138SOL    HW227759   4.818   5.584   6.740
 9139SOL     OW27760   4.494   6.916   5.887
 9139SOL    HW127761   4.448   6.829   5.904
 9139SOL    HW227762   4.585   6.913   5.928
 9140SOL     OW27763   5.076   5.638   5.754
 9140SOL    HW127764   5.111   5.597   5.670
 9140SOL    HW227765   4.986   5.600   5.774
 9141SOL     OW27766   5.024   6.039   6.277
 9141SOL    HW127767   4.965   6.119   6.281
 9141SOL    HW227768   5.039   6.004   6.370
 9142SOL     OW27769   3.763   6.663   5.886
 9142SOL    HW127770   3.862   6.652   5.877
 9142SOL    HW227771   3.723   6.577   5.918
 9143SOL     OW27772   4.599   7.232   5.923
 9143SOL    HW127773   4.522   7.197   5.869
 9143SOL    HW227774   4.567   7.303   5.985
 9144SOL     OW27775   4.533   7.452   0.502
 9144SOL    HW127776   4.573   7.543   0.493
 9144SOL    HW227777   4.433   7.460   0.508
 9145SOL     OW27778   4.338   7.570   0.117
 9145SOL    HW127779   4.436   7.548   0.124
 9145SOL    HW227780   4.307   7.553   0.024
 9146SOL     OW27781   4.505   7.712   1.749
 9146SOL    HW127782   4.572   7.651   1.792
 9146SOL    HW227783   4.432   7.731   1.814
 9147SOL     OW27784   4.639   7.537   1.402
 9147SOL    HW127785   4.664   7.517   1.307
 9147SOL    HW227786   4.711   7.593   1.444
 9148SOL     OW27787   4.737   7.553   1.770
 9148SOL    HW127788   4.743   7.638   1.718
 9148SOL    HW227789   4.769   7.477   1.713
 9149SOL     OW27790   4.031   7.511   0.618
 9149SOL    HW127791   4.020   7.605   0.651
 9149SOL    HW227792   4.026   7.448   0.695
 9150SOL     OW27793   4.884   7.655   1.477
 9150SOL    HW127794   4.884   7.719   1.554
 9150SOL    HW227795   4.912   7.703   1.394
 9151SOL     OW27796   4.627   7.534   0.133
 9151SOL    HW127797   4.678   7.535   0.047
 9151SOL    HW227798   4.683   7.492   0.204
 9152SOL     OW27799   3.987   7.774   0.720
 9152SOL    HW127800   3.908   7.825   0.686
 9152SOL    HW227801   3.978   7.759   0.818
 9153SOL     OW27802   3.799   7.793   0.033
 9153SOL    HW127803   3.707   7.765   0.004
 9153SOL    HW227804   3.830   7.870  -0.023
 9154SOL     OW27805   4.725   7.482   1.154
 9154SOL    HW127806   4.662   7.410   1.123
 9154SOL    HW227807   4.818   7.446   1.154
 9155SOL     OW27808   5.317   7.669   0.882
 9155SOL    HW127809   5.233   7.668   0.936
 9155SOL    HW227810   5.319   7.752   0.826
 9156SOL     OW27811   4.533   7.452   2.364
 9156SOL    HW127812   4.573   7.543   2.355
 9156SOL    HW227813   4.433   7.460   2.370
 9157SOL     OW27814   4.338   7.570   1.979
 9157SOL    HW127815   4.436   7.548   1.986
 9157SOL    HW227816   4.307   7.553   1.886
 9158SOL     OW27817   4.505   7.712   3.611
 9158SOL    HW127818   4.572   7.651   3.654
 9158SOL    HW227819   4.432   7.731   3.676
 9159SOL     OW27820   4.639   7.537   3.264
 9159SOL    HW127821   4.664   7.517   3.169
 9159SOL    HW227822   4.711   7.593   3.306
 9160SOL     OW27823   4.737   7.553   3.632
 9160SOL    HW127824   4.743   7.638   3.580
 9160SOL    HW227825   4.769   7.477   3.575
 9161SOL     OW27826   4.031   7.511   2.480
 9161SOL    HW127827   4.020   7.605   2.513
 9161SOL    HW227828   4.026   7.448   2.557
 9162SOL     OW27829   4.884   7.655   3.339
 9162SOL    HW127830   4.884   7.719   3.416
 9162SOL    HW227831   4.912   7.703   3.256
 9163SOL     OW27832   3.987   7.774   2.582
 9163SOL    HW127833   3.908   7.825   2.548
 9163SOL    HW227834   3.978   7.759   2.680
 9164SOL     OW27835   3.799   7.793   1.895
 9164SOL    HW127836   3.707   7.765   1.866
 9164SOL    HW227837   3.830   7.870   1.839
 9165SOL     OW27838   4.725   7.482   3.016
 9165SOL    HW127839   4.662   7.410   2.985
 9165SOL    HW227840   4.818   7.446   3.016
 9166SOL     OW27841   5.317   7.669   2.744
 9166SOL    HW127842   5.233   7.668   2.798
 9166SOL    HW227843   5.319   7.752   2.688
 9167SOL     OW27844   4.533   7.452   4.226
 9167SOL    HW127845   4.573   7.543   4.217
 9167SOL    HW227846   4.433   7.460   4.232
 9168SOL     OW27847   4.338   7.570   3.841
 9168SOL    HW127848   4.436   7.548   3.848
 9168SOL    HW227849   4.307   7.553   3.748
 9169SOL     OW27850   4.505   7.712   5.473
 9169SOL    HW127851   4.572   7.651   5.516
 9169SOL    HW227852   4.432   7.731   5.538
 9170SOL     OW27853   4.639   7.537   5.126
 9170SOL    HW127854   4.664   7.517   5.031
 9170SOL    HW227855   4.711   7.593   5.168
 9171SOL     OW27856   4.737   7.553   5.494
 9171SOL    HW127857   4.743   7.638   5.442
 9171SOL    HW227858   4.769   7.477   5.437
 9172SOL     OW27859   4.031   7.511   4.342
 9172SOL    HW127860   4.020   7.605   4.375
 9172SOL    HW227861   4.026   7.448   4.419
 9173SOL     OW27862   4.884   7.655   5.201
 9173SOL    HW127863   4.884   7.719   5.278
 9173SOL    HW227864   4.912   7.703   5.118
 9174SOL     OW27865   3.987   7.774   4.444
 9174SOL    HW127866   3.908   7.825   4.410
 9174SOL    HW227867   3.978   7.759   4.542
 9175SOL     OW27868   3.799   7.793   3.757
 9175SOL    HW127869   3.707   7.765   3.728
 9175SOL    HW227870   3.830   7.870   3.701
 9176SOL     OW27871   4.725   7.482   4.878
 9176SOL    HW127872   4.662   7.410   4.847
 9176SOL    HW227873   4.818   7.446   4.878
 9177SOL     OW27874   5.317   7.669   4.606
 9177SOL    HW127875   5.233   7.668   4.660
 9177SOL    HW227876   5.319   7.752   4.550
 9178SOL     OW27877   4.533   7.452   6.088
 9178SOL    HW127878   4.573   7.543   6.079
 9178SOL    HW227879   4.433   7.460   6.094
 9179SOL     OW27880   4.338   7.570   5.703
 9179SOL    HW127881   4.436   7.548   5.710
 9179SOL    HW227882   4.307   7.553   5.610
 9180SOL     OW27883   4.031   7.511   6.204
 9180SOL    HW127884   4.020   7.605   6.237
 9180SOL    HW227885   4.026   7.448   6.281
 9181SOL     OW27886   5.565   7.623   6.549
 9181SOL    HW127887   5.604   7.538   6.513
 9181SOL    HW227888   5.467   7.625   6.530
 9182SOL     OW27889   3.987   7.774   6.306
 9182SOL    HW127890   3.908   7.825   6.272
 9182SOL    HW227891   3.978   7.759   6.404
 9183SOL     OW27892   3.799   7.793   5.619
 9183SOL    HW127893   3.707   7.765   5.590
 9183SOL    HW227894   3.830   7.870   5.563
 9184SOL     OW27895   4.725   7.482   6.740
 9184SOL    HW127896   4.662   7.410   6.709
 9184SOL    HW227897   4.818   7.446   6.740
 9185SOL     OW27898   6.155   1.275   1.165
 9185SOL    HW127899   6.062   1.268   1.128
 9185SOL    HW227900   6.166   1.364   1.209
 9186SOL     OW27901   7.141   1.511   0.703
 9186SOL    HW127902   7.084   1.495   0.784
 9186SOL    HW227903   7.082   1.521   0.623
 9187SOL     OW27904   7.329   0.618   0.856
 9187SOL    HW127905   7.362   0.712   0.856
 9187SOL    HW227906   7.380   0.564   0.922
 9188SOL     OW27907   6.721   0.703   0.717
 9188SOL    HW127908   6.778   0.781   0.692
 9188SOL    HW227909   6.661   0.729   0.793
 9189SOL     OW27910   6.354   1.144   1.023
 9189SOL    HW127911   6.276   1.161   1.083
 9189SOL    HW227912   6.388   1.231   0.987
 9190SOL     OW27913   6.436   0.798   1.823
 9190SOL    HW127914   6.432   0.874   1.888
 9190SOL    HW227915   6.458   0.834   1.732
 9191SOL     OW27916   6.271   1.012   0.665
 9191SOL    HW127917   6.340   0.996   0.735
 9191SOL    HW227918   6.198   1.069   0.703
 9192SOL     OW27919   6.272   1.161   1.803
 9192SOL    HW127920   6.332   1.240   1.817
 9192SOL    HW227921   6.186   1.192   1.762
 9193SOL     OW27922   5.921   1.435   1.061
 9193SOL    HW127923   5.843   1.404   1.008
 9193SOL    HW227924   5.979   1.493   1.004
 9194SOL     OW27925   7.046   1.505   1.339
 9194SOL    HW127926   7.070   1.599   1.365
 9194SOL    HW227927   7.030   1.451   1.421
 9195SOL     OW27928   5.817   1.713   0.483
 9195SOL    HW127929   5.851   1.790   0.537
 9195SOL    HW227930   5.861   1.713   0.393
 9196SOL     OW27931   6.713   1.341   1.690
 9196SOL    HW127932   6.760   1.341   1.778
 9196SOL    HW227933   6.665   1.254   1.679
 9197SOL     OW27934   5.816   1.434   0.538
 9197SOL    HW127935   5.790   1.530   0.538
 9197SOL    HW227936   5.745   1.380   0.583
 9198SOL     OW27937   5.826   1.091   0.886
 9198SOL    HW127938   5.840   1.007   0.938
 9198SOL    HW227939   5.771   1.155   0.941
 9199SOL     OW27940   6.206   1.786   1.439
 9199SOL    HW127941   6.114   1.769   1.474
 9199SOL    HW227942   6.234   1.878   1.465
 9200SOL     OW27943   5.708   0.643   0.563
 9200SOL    HW127944   5.663   0.555   0.580
 9200SOL    HW227945   5.707   0.697   0.647
 9201SOL     OW27946   7.275   0.922   0.612
 9201SOL    HW127947   7.370   0.893   0.620
 9201SOL    HW227948   7.267   0.987   0.537
 9202SOL     OW27949   7.227   1.108   0.432
 9202SOL    HW127950   7.313   1.110   0.380
 9202SOL    HW227951   7.241   1.155   0.520
 9203SOL     OW27952   5.699   0.737   1.597
 9203SOL    HW127953   5.787   0.724   1.642
 9203SOL    HW227954   5.686   0.834   1.575
 9204SOL     OW27955   6.199   1.365   0.726
 9204SOL    HW127956   6.150   1.278   0.735
 9204SOL    HW227957   6.176   1.408   0.639
 9205SOL     OW27958   6.879   1.228   1.423
 9205SOL    HW127959   6.916   1.155   1.365
 9205SOL    HW227960   6.931   1.233   1.508
 9206SOL     OW27961   5.783   0.976   1.264
 9206SOL    HW127962   5.872   0.931   1.250
 9206SOL    HW227963   5.710   0.911   1.245
 9207SOL     OW27964   6.773   1.792   1.616
 9207SOL    HW127965   6.797   1.852   1.540
 9207SOL    HW227966   6.780   1.697   1.586
 9208SOL     OW27967   7.052   1.417   0.953
 9208SOL    HW127968   6.993   1.423   1.033
 9208SOL    HW227969   7.037   1.329   0.907
 9209SOL     OW27970   7.253   1.714   0.572
 9209SOL    HW127971   7.212   1.691   0.484
 9209SOL    HW227972   7.235   1.640   0.637
 9210SOL     OW27973   6.867   0.345   0.944
 9210SOL    HW127974   6.781   0.295   0.931
 9210SOL    HW227975   6.929   0.291   1.000
 9211SOL     OW27976   7.162   1.662   0.307
 9211SOL    HW127977   7.251   1.708   0.310
 9211SOL    HW227978   7.141   1.638   0.212
 9212SOL     OW27979   6.393   0.605   1.465
 9212SOL    HW127980   6.346   0.602   1.554
 9212SOL    HW227981   6.342   0.550   1.399
 9213SOL     OW27982   6.980   0.469   1.674
 9213SOL    HW127983   6.960   0.512   1.762
 9213SOL    HW227984   7.058   0.407   1.683
 9214SOL     OW27985   6.559   0.890   1.572
 9214SOL    HW127986   6.605   0.806   1.543
 9214SOL    HW227987   6.503   0.924   1.497
 9215SOL     OW27988   6.577   0.410   1.242
 9215SOL    HW127989   6.500   0.444   1.296
 9215SOL    HW227990   6.543   0.359   1.163
 9216SOL     OW27991   6.627   0.701   0.429
 9216SOL    HW127992   6.653   0.697   0.525
 9216SOL    HW227993   6.542   0.650   0.415
 9217SOL     OW27994   5.662   0.811   0.789
 9217SOL    HW127995   5.761   0.799   0.798
 9217SOL    HW227996   5.638   0.906   0.810
 9218SOL     OW27997   5.716   1.821   1.571
 9218SOL    HW127998   5.706   1.806   1.670
 9218SOL    HW227999   5.630   1.857   1.535
 9219SOL     OW28000   7.305   0.585   1.831
 9219SOL    HW128001   7.279   0.674   1.795
 9219SOL    HW228002   7.303   0.517   1.758
 9220SOL     OW28003   6.948   1.144   0.545
 9220SOL    HW128004   7.031   1.115   0.497
 9220SOL    HW228005   6.899   1.211   0.489
 9221SOL     OW28006   6.136   0.196   0.885
 9221SOL    HW128007   6.131   0.191   0.985
 9221SOL    HW228008   6.138   0.292   0.856
 9222SOL     OW28009   6.594   1.456   0.477
 9222SOL    HW128010   6.548   1.528   0.425
 9222SOL    HW228011   6.590   1.476   0.575
 9223SOL     OW28012   5.937   1.801   0.853
 9223SOL    HW128013   5.987   1.715   0.859
 9223SOL    HW228014   6.002   1.878   0.850
 9224SOL     OW28015   7.381   1.066   0.873
 9224SOL    HW128016   7.319   1.051   0.797
 9224SOL    HW228017   7.329   1.077   0.958
 9225SOL     OW28018   6.813   1.550   1.506
 9225SOL    HW128019   6.819   1.473   1.570
 9225SOL    HW228020   6.761   1.524   1.426
 9226SOL     OW28021   7.044   0.735   0.728
 9226SOL    HW128022   7.039   0.670   0.803
 9226SOL    HW228023   7.124   0.794   0.741
 9227SOL     OW28024   6.047   1.266   1.727
 9227SOL    HW128025   5.997   1.267   1.641
 9227SOL    HW228026   5.984   1.248   1.803
 9228SOL     OW28027   6.050   1.743   0.323
 9228SOL    HW128028   6.083   1.782   0.409
 9228SOL    HW228029   6.126   1.736   0.258
 9229SOL     OW28030   5.835   1.785   1.241
 9229SOL    HW128031   5.892   1.720   1.291
 9229SOL    HW228032   5.819   1.752   1.148
 9230SOL     OW28033   6.526   1.698   0.904
 9230SOL    HW128034   6.606   1.641   0.925
 9230SOL    HW228035   6.477   1.658   0.827
 9231SOL     OW28036   5.968   0.700   0.480
 9231SOL    HW128037   6.013   0.610   0.477
 9231SOL    HW228038   5.874   0.689   0.513
 9232SOL     OW28039   6.367   0.264   1.749
 9232SOL    HW128040   6.434   0.203   1.792
 9232SOL    HW228041   6.294   0.283   1.814
 9233SOL     OW28042   6.474   1.514   1.195
 9233SOL    HW128043   6.451   1.489   1.101
 9233SOL    HW228044   6.535   1.445   1.234
 9234SOL     OW28045   6.937   0.590   1.433
 9234SOL    HW128046   6.965   0.547   1.518
 9234SOL    HW228047   6.962   0.686   1.434
 9235SOL     OW28048   6.389   1.402   0.924
 9235SOL    HW128049   6.479   1.416   0.882
 9235SOL    HW228050   6.318   1.404   0.853
 9236SOL     OW28051   6.508   0.503   0.899
 9236SOL    HW128052   6.483   0.494   0.803
 9236SOL    HW228053   6.556   0.421   0.930
 9237SOL     OW28054   6.662   0.683   1.464
 9237SOL    HW128055   6.582   0.622   1.467
 9237SOL    HW228056   6.743   0.630   1.440
 9238SOL     OW28057   6.813   1.570   0.793
 9238SOL    HW128058   6.834   1.644   0.728
 9238SOL    HW228059   6.881   1.570   0.866
 9239SOL     OW28060   6.045   1.152   0.741
 9239SOL    HW128061   5.974   1.125   0.806
 9239SOL    HW228062   6.019   1.124   0.648
 9240SOL     OW28063   6.857   1.797   0.591
 9240SOL    HW128064   6.901   1.861   0.527
 9240SOL    HW228065   6.807   1.849   0.661
 9241SOL     OW28066   5.664   0.556   1.386
 9241SOL    HW128067   5.756   0.555   1.345
 9241SOL    HW228068   5.658   0.630   1.453
 9242SOL     OW28069   6.147   0.222   1.147
 9242SOL    HW128070   6.185   0.138   1.184
 9242SOL    HW228071   6.059   0.241   1.191
 9243SOL     OW28072   6.452   0.454   0.642
 9243SOL    HW128073   6.420   0.526   0.580
 9243SOL    HW228074   6.476   0.373   0.589
 9244SOL     OW28075   6.603   0.039   0.753
 9244SOL    HW128076   6.531   0.044   0.684
 9244SOL    HW228077   6.579  -0.030   0.822
 9245SOL     OW28078   7.015   1.173   0.867
 9245SOL    HW128079   6.960   1.089   0.860
 9245SOL    HW228080   7.041   1.202   0.775
 9246SOL     OW28081   7.052   0.590   0.992
 9246SOL    HW128082   7.022   0.495   0.999
 9246SOL    HW228083   7.125   0.606   1.058
 9247SOL     OW28084   7.443   0.833   0.377
 9247SOL    HW128085   7.485   0.769   0.441
 9247SOL    HW228086   7.405   0.782   0.299
 9248SOL     OW28087   7.250   1.280   0.657
 9248SOL    HW128088   7.349   1.288   0.671
 9248SOL    HW228089   7.205   1.364   0.688
 9249SOL     OW28090   7.340   1.223   1.588
 9249SOL    HW128091   7.431   1.184   1.575
 9249SOL    HW228092   7.348   1.319   1.612
 9250SOL     OW28093   6.650   1.347   1.340
 9250SOL    HW128094   6.570   1.324   1.395
 9250SOL    HW228095   6.733   1.321   1.389
 9251SOL     OW28096   7.178   1.629   1.625
 9251SOL    HW128097   7.205   1.663   1.535
 9251SOL    HW228098   7.257   1.591   1.671
 9252SOL     OW28099   6.697   1.195   1.100
 9252SOL    HW128100   6.657   1.239   1.181
 9252SOL    HW228101   6.656   1.232   1.017
 9253SOL     OW28102   7.224   1.099   1.079
 9253SOL    HW128103   7.229   1.180   1.138
 9253SOL    HW228104   7.138   1.101   1.028
 9254SOL     OW28105   6.566   1.116   1.719
 9254SOL    HW128106   6.467   1.122   1.729
 9254SOL    HW228107   6.589   1.036   1.663
 9255SOL     OW28108   6.291   1.050   0.368
 9255SOL    HW128109   6.277   1.057   0.467
 9255SOL    HW228110   6.375   0.999   0.350
 9256SOL     OW28111   5.996   0.813   1.251
 9256SOL    HW128112   6.082   0.825   1.301
 9256SOL    HW228113   5.954   0.726   1.278
 9257SOL     OW28114   6.860   0.386   1.262
 9257SOL    HW128115   6.881   0.460   1.326
 9257SOL    HW228116   6.771   0.403   1.219
 9258SOL     OW28117   5.650   1.564   1.331
 9258SOL    HW128118   5.604   1.646   1.297
 9258SOL    HW228119   5.748   1.583   1.340
 9259SOL     OW28120   5.953   1.100   0.501
 9259SOL    HW128121   5.946   1.183   0.445
 9259SOL    HW228122   5.957   1.020   0.441
 9260SOL     OW28123   6.152   0.537   0.865
 9260SOL    HW128124   6.164   0.603   0.791
 9260SOL    HW228125   6.198   0.571   0.948
 9261SOL     OW28126   6.838   1.348   0.388
 9261SOL    HW128127   6.888   1.425   0.428
 9261SOL    HW228128   6.743   1.350   0.420
 9262SOL     OW28129   6.858   1.445   1.142
 9262SOL    HW128130   6.905   1.458   1.229
 9262SOL    HW228131   6.792   1.371   1.151
 9263SOL     OW28132   7.168   0.639   0.472
 9263SOL    HW128133   7.137   0.700   0.545
 9263SOL    HW228134   7.218   0.691   0.403
 9264SOL     OW28135   5.940   1.510   1.329
 9264SOL    HW128136   5.919   1.466   1.242
 9264SOL    HW228137   6.037   1.536   1.332
 9265SOL     OW28138   5.988   0.751   1.598
 9265SOL    HW128139   6.056   0.806   1.551
 9265SOL    HW228140   6.028   0.663   1.625
 9266SOL     OW28141   7.173   0.779   1.670
 9266SOL    HW128142   7.081   0.817   1.665
 9266SOL    HW228143   7.233   0.826   1.605
 9267SOL     OW28144   6.599   0.105   1.770
 9267SOL    HW128145   6.605   0.190   1.718
 9267SOL    HW228146   6.631   0.029   1.713
 9268SOL     OW28147   6.159   0.870   1.029
 9268SOL    HW128148   6.203   0.959   1.020
 9268SOL    HW228149   6.096   0.870   1.106
 9269SOL     OW28150   6.946   0.862   1.045
 9269SOL    HW128151   6.871   0.862   0.979
 9269SOL    HW228152   6.983   0.770   1.054
 9270SOL     OW28153   5.623   1.310   1.282
 9270SOL    HW128154   5.676   1.261   1.350
 9270SOL    HW228155   5.645   1.408   1.287
 9271SOL     OW28156   6.318   0.634   1.064
 9271SOL    HW128157   6.377   0.608   0.988
 9271SOL    HW228158   6.290   0.730   1.053
 9272SOL     OW28159   7.314   0.935   1.854
 9272SOL    HW128160   7.268   0.928   1.765
 9272SOL    HW228161   7.252   0.979   1.920
 9273SOL     OW28162   6.609   0.766   0.966
 9273SOL    HW128163   6.624   0.787   1.062
 9273SOL    HW228164   6.579   0.671   0.957
 9274SOL     OW28165   6.566   1.573   1.700
 9274SOL    HW128166   6.546   1.617   1.612
 9274SOL    HW228167   6.605   1.482   1.684
 9275SOL     OW28168   7.445   1.518   1.605
 9275SOL    HW128169   7.459   1.545   1.510
 9275SOL    HW228170   7.528   1.540   1.658
 9276SOL     OW28171   5.936   0.898   1.804
 9276SOL    HW128172   6.012   0.942   1.852
 9276SOL    HW228173   5.971   0.851   1.722
 9277SOL     OW28174   6.654   1.333   0.849
 9277SOL    HW128175   6.661   1.249   0.794
 9277SOL    HW228176   6.716   1.402   0.813
 9278SOL     OW28177   5.905   0.810   0.949
 9278SOL    HW128178   5.998   0.846   0.954
 9278SOL    HW228179   5.899   0.725   1.001
 9279SOL     OW28180   5.925   0.509   1.006
 9279SOL    HW128181   5.873   0.426   0.989
 9279SOL    HW228182   6.002   0.514   0.942
 9280SOL     OW28183   6.097   0.415   1.808
 9280SOL    HW128184   6.079   0.460   1.896
 9280SOL    HW228185   6.139   0.480   1.745
 9281SOL     OW28186   6.724   0.380   1.678
 9281SOL    HW128187   6.679   0.443   1.742
 9281SOL    HW228188   6.817   0.411   1.661
 9282SOL     OW28189   6.746   0.207   1.477
 9282SOL    HW128190   6.746   0.271   1.554
 9282SOL    HW228191   6.774   0.255   1.394
 9283SOL     OW28192   5.674   1.801   0.927
 9283SOL    HW128193   5.632   1.715   0.900
 9283SOL    HW228194   5.768   1.804   0.893
 9284SOL     OW28195   6.090   1.568   0.910
 9284SOL    HW128196   6.156   1.642   0.919
 9284SOL    HW228197   6.134   1.489   0.868
 9285SOL     OW28198   6.588   0.796   1.238
 9285SOL    HW128199   6.629   0.764   1.324
 9285SOL    HW228200   6.492   0.769   1.235
 9286SOL     OW28201   5.626   0.544   1.114
 9286SOL    HW128202   5.711   0.511   1.073
 9286SOL    HW228203   5.639   0.559   1.212
 9287SOL     OW28204   5.775   0.520   1.722
 9287SOL    HW128205   5.834   0.480   1.652
 9287SOL    HW228206   5.717   0.591   1.681
 9288SOL     OW28207   6.955   0.950   1.660
 9288SOL    HW128208   6.994   1.039   1.680
 9288SOL    HW228209   6.965   0.930   1.563
 9289SOL     OW28210   7.243   0.604   1.206
 9289SOL    HW128211   7.205   0.535   1.268
 9289SOL    HW228212   7.325   0.568   1.162
 9290SOL     OW28213   5.838   1.564   1.744
 9290SOL    HW128214   5.808   1.621   1.820
 9290SOL    HW228215   5.831   1.467   1.770
 9291SOL     OW28216   6.257   0.464   1.269
 9291SOL    HW128217   6.223   0.375   1.239
 9291SOL    HW228218   6.283   0.518   1.189
 9292SOL     OW28219   6.516   1.678   1.465
 9292SOL    HW128220   6.492   1.660   1.370
 9292SOL    HW228221   6.546   1.772   1.475
 9293SOL     OW28222   5.745   1.137   1.466
 9293SOL    HW128223   5.767   1.076   1.542
 9293SOL    HW228224   5.755   1.088   1.380
 9294SOL     OW28225   6.933   1.059   1.234
 9294SOL    HW128226   6.957   0.996   1.160
 9294SOL    HW228227   6.843   1.099   1.216
 9295SOL     OW28228   7.345   1.747   1.154
 9295SOL    HW128229   7.406   1.777   1.081
 9295SOL    HW228230   7.307   1.658   1.132
 9296SOL     OW28231   6.838   1.731   1.128
 9296SOL    HW128232   6.922   1.736   1.074
 9296SOL    HW228233   6.815   1.635   1.146
 9297SOL     OW28234   5.669   1.258   1.022
 9297SOL    HW128235   5.664   1.257   1.122
 9297SOL    HW228236   5.586   1.217   0.984
 9298SOL     OW28237   6.274   1.662   1.716
 9298SOL    HW128238   6.218   1.743   1.725
 9298SOL    HW228239   6.326   1.666   1.630
 9299SOL     OW28240   7.312   0.135   0.523
 9299SOL    HW128241   7.385   0.118   0.456
 9299SOL    HW228242   7.281   0.048   0.561
 9300SOL     OW28243   6.974   1.573   0.477
 9300SOL    HW128244   7.041   1.585   0.403
 9300SOL    HW228245   6.934   1.662   0.500
 9301SOL     OW28246   5.716   1.794   1.851
 9301SOL    HW128247   5.675   1.720   1.904
 9301SOL    HW228248   5.780   1.845   1.909
 9302SOL     OW28249   6.866   0.927   0.672
 9302SOL    HW128250   6.926   0.846   0.674
 9302SOL    HW228251   6.906   0.996   0.612
 9303SOL     OW28252   6.416   1.273   1.422
 9303SOL    HW128253   6.411   1.306   1.517
 9303SOL    HW228254   6.330   1.292   1.376
 9304SOL     OW28255   7.236   1.720   1.394
 9304SOL    HW128256   7.289   1.730   1.310
 9304SOL    HW228257   7.209   1.810   1.428
 9305SOL     OW28258   6.408   1.002   1.372
 9305SOL    HW128259   6.448   1.001   1.280
 9305SOL    HW228260   6.418   1.094   1.412
 9306SOL     OW28261   6.502   0.910   0.291
 9306SOL    HW128262   6.565   0.948   0.223
 9306SOL    HW228263   6.542   0.827   0.330
 9307SOL     OW28264   5.958   1.288   1.490
 9307SOL    HW128265   5.945   1.381   1.456
 9307SOL    HW228266   5.874   1.236   1.477
 9308SOL     OW28267   7.200   1.292   1.289
 9308SOL    HW128268   7.260   1.295   1.369
 9308SOL    HW228269   7.125   1.356   1.302
 9309SOL     OW28270   6.625   1.098   0.696
 9309SOL    HW128271   6.555   1.051   0.750
 9309SOL    HW228272   6.684   1.030   0.653
 9310SOL     OW28273   6.176   1.487   0.491
 9310SOL    HW128274   6.218   1.429   0.421
 9310SOL    HW228275   6.132   1.566   0.447
 9311SOL     OW28276   7.295   0.385   1.381
 9311SOL    HW128277   7.368   0.454   1.385
 9311SOL    HW228278   7.323   0.310   1.322
 9312SOL     OW28279   5.691   1.013   1.726
 9312SOL    HW128280   5.614   0.980   1.780
 9312SOL    HW228281   5.776   0.983   1.768
 9313SOL     OW28282   7.026   0.856   1.398
 9313SOL    HW128283   6.969   0.908   1.335
 9313SOL    HW228284   7.122   0.868   1.374
 9314SOL     OW28285   6.199   0.842   1.431
 9314SOL    HW128286   6.255   0.923   1.414
 9314SOL    HW228287   6.258   0.762   1.434
 9315SOL     OW28288   7.079   1.767   0.959
 9315SOL    HW128289   7.112   1.831   0.890
 9315SOL    HW228290   7.145   1.761   1.034
 9316SOL     OW28291   6.302   0.565   1.708
 9316SOL    HW128292   6.321   0.630   1.782
 9316SOL    HW228293   6.362   0.485   1.717
 9317SOL     OW28294   7.036   1.220   1.633
 9317SOL    HW128295   7.027   1.210   1.732
 9317SOL    HW228296   7.132   1.213   1.607
 9318SOL     OW28297   5.976   1.741   1.560
 9318SOL    HW128298   5.885   1.782   1.558
 9318SOL    HW228299   5.969   1.647   1.592
 9319SOL     OW28300   7.260   0.883   1.254
 9319SOL    HW128301   7.233   0.794   1.217
 9319SOL    HW228302   7.261   0.951   1.181
 9320SOL     OW28303   6.180   0.745   0.652
 9320SOL    HW128304   6.230   0.830   0.633
 9320SOL    HW228305   6.092   0.747   0.604
 9321SOL     OW28306   7.316   0.934   1.517
 9321SOL    HW128307   7.354   1.025   1.532
 9321SOL    HW228308   7.308   0.917   1.418
 9322SOL     OW28309   6.247   1.790   0.953
 9322SOL    HW128310   6.201   1.878   0.940
 9322SOL    HW228311   6.346   1.802   0.946
 9323SOL     OW28312   6.445   0.956   0.861
 9323SOL    HW128313   6.499   0.887   0.909
 9323SOL    HW228314   6.413   1.025   0.927
 9324SOL     OW28315   7.447   1.569   0.851
 9324SOL    HW128316   7.376   1.557   0.781
 9324SOL    HW228317   7.448   1.490   0.911
 9325SOL     OW28318   5.807   1.314   1.844
 9325SOL    HW128319   5.742   1.241   1.823
 9325SOL    HW228320   5.811   1.328   1.942
 9326SOL     OW28321   5.665   1.240   0.653
 9326SOL    HW128322   5.664   1.193   0.741
 9326SOL    HW228323   5.747   1.212   0.602
 9327SOL     OW28324   6.258   1.391   1.624
 9327SOL    HW128325   6.180   1.341   1.662
 9327SOL    HW228326   6.255   1.486   1.655
 9328SOL     OW28327   6.014   0.424   0.520
 9328SOL    HW128328   6.044   0.352   0.458
 9328SOL    HW228329   5.975   0.384   0.603
 9329SOL     OW28330   7.291   1.487   1.104
 9329SOL    HW128331   7.198   1.462   1.077
 9329SOL    HW228332   7.317   1.437   1.186
 9330SOL     OW28333   5.903   0.547   1.280
 9330SOL    HW128334   5.941   0.488   1.352
 9330SOL    HW228335   5.943   0.521   1.192
 9331SOL     OW28336   6.398   1.586   0.687
 9331SOL    HW128337   6.430   1.596   0.593
 9331SOL    HW228338   6.319   1.524   0.689
 9332SOL     OW28339   6.204   1.567   1.284
 9332SOL    HW128340   6.199   1.649   1.341
 9332SOL    HW228341   6.293   1.564   1.239
 9333SOL     OW28342   6.886   0.453   0.691
 9333SOL    HW128343   6.827   0.533   0.695
 9333SOL    HW228344   6.901   0.418   0.784
 9334SOL     OW28345   5.816   0.628   1.975
 9334SOL    HW128346   5.723   0.626   2.012
 9334SOL    HW228347   5.817   0.589   1.883
 9335SOL     OW28348   6.155   1.275   3.027
 9335SOL    HW128349   6.062   1.268   2.990
 9335SOL    HW228350   6.166   1.364   3.071
 9336SOL     OW28351   7.141   1.511   2.565
 9336SOL    HW128352   7.084   1.495   2.646
 9336SOL    HW228353   7.082   1.521   2.485
 9337SOL     OW28354   7.329   0.618   2.718
 9337SOL    HW128355   7.362   0.712   2.718
 9337SOL    HW228356   7.380   0.564   2.784
 9338SOL     OW28357   6.721   0.703   2.579
 9338SOL    HW128358   6.778   0.781   2.554
 9338SOL    HW228359   6.661   0.729   2.655
 9339SOL     OW28360   7.341   0.607   2.093
 9339SOL    HW128361   7.329   0.594   1.994
 9339SOL    HW228362   7.311   0.526   2.142
 9340SOL     OW28363   6.354   1.144   2.885
 9340SOL    HW128364   6.276   1.161   2.945
 9340SOL    HW228365   6.388   1.231   2.849
 9341SOL     OW28366   6.436   0.798   3.685
 9341SOL    HW128367   6.432   0.874   3.750
 9341SOL    HW228368   6.458   0.834   3.594
 9342SOL     OW28369   6.271   1.012   2.527
 9342SOL    HW128370   6.340   0.996   2.597
 9342SOL    HW228371   6.198   1.069   2.565
 9343SOL     OW28372   6.272   1.161   3.665
 9343SOL    HW128373   6.332   1.240   3.679
 9343SOL    HW228374   6.186   1.192   3.624
 9344SOL     OW28375   5.921   1.435   2.923
 9344SOL    HW128376   5.843   1.404   2.870
 9344SOL    HW228377   5.979   1.493   2.866
 9345SOL     OW28378   7.046   1.505   3.201
 9345SOL    HW128379   7.070   1.599   3.227
 9345SOL    HW228380   7.030   1.451   3.283
 9346SOL     OW28381   5.817   1.713   2.345
 9346SOL    HW128382   5.851   1.790   2.399
 9346SOL    HW228383   5.861   1.713   2.255
 9347SOL     OW28384   6.713   1.341   3.552
 9347SOL    HW128385   6.760   1.341   3.640
 9347SOL    HW228386   6.665   1.254   3.541
 9348SOL     OW28387   5.816   1.434   2.400
 9348SOL    HW128388   5.790   1.530   2.400
 9348SOL    HW228389   5.745   1.380   2.445
 9349SOL     OW28390   5.826   1.091   2.748
 9349SOL    HW128391   5.840   1.007   2.800
 9349SOL    HW228392   5.771   1.155   2.803
 9350SOL     OW28393   6.206   1.786   3.301
 9350SOL    HW128394   6.114   1.769   3.336
 9350SOL    HW228395   6.234   1.878   3.327
 9351SOL     OW28396   6.192   0.964   1.985
 9351SOL    HW128397   6.199   1.048   1.931
 9351SOL    HW228398   6.238   0.977   2.073
 9352SOL     OW28399   5.708   0.643   2.425
 9352SOL    HW128400   5.663   0.555   2.442
 9352SOL    HW228401   5.707   0.697   2.509
 9353SOL     OW28402   7.428   1.767   2.221
 9353SOL    HW128403   7.482   1.738   2.301
 9353SOL    HW228404   7.458   1.857   2.192
 9354SOL     OW28405   5.613   1.596   1.979
 9354SOL    HW128406   5.594   1.500   2.000
 9354SOL    HW228407   5.580   1.654   2.054
 9355SOL     OW28408   7.275   0.922   2.474
 9355SOL    HW128409   7.370   0.893   2.482
 9355SOL    HW228410   7.267   0.987   2.399
 9356SOL     OW28411   7.227   1.108   2.294
 9356SOL    HW128412   7.313   1.110   2.242
 9356SOL    HW228413   7.241   1.155   2.382
 9357SOL     OW28414   5.699   0.737   3.459
 9357SOL    HW128415   5.787   0.724   3.504
 9357SOL    HW228416   5.686   0.834   3.437
 9358SOL     OW28417   6.199   1.365   2.588
 9358SOL    HW128418   6.150   1.278   2.597
 9358SOL    HW228419   6.176   1.408   2.501
 9359SOL     OW28420   6.879   1.228   3.285
 9359SOL    HW128421   6.916   1.155   3.227
 9359SOL    HW228422   6.931   1.233   3.370
 9360SOL     OW28423   5.783   0.976   3.126
 9360SOL    HW128424   5.872   0.931   3.112
 9360SOL    HW228425   5.710   0.911   3.107
 9361SOL     OW28426   7.111   0.999   2.052
 9361SOL    HW128427   7.048   0.923   2.065
 9361SOL    HW228428   7.159   1.017   2.138
 9362SOL     OW28429   6.773   1.792   3.478
 9362SOL    HW128430   6.797   1.852   3.402
 9362SOL    HW228431   6.780   1.697   3.448
 9363SOL     OW28432   7.052   1.417   2.815
 9363SOL    HW128433   6.993   1.423   2.895
 9363SOL    HW228434   7.037   1.329   2.769
 9364SOL     OW28435   7.253   1.714   2.434
 9364SOL    HW128436   7.212   1.691   2.346
 9364SOL    HW228437   7.235   1.640   2.499
 9365SOL     OW28438   6.184   0.729   2.132
 9365SOL    HW128439   6.208   0.798   2.064
 9365SOL    HW228440   6.106   0.762   2.186
 9366SOL     OW28441   6.867   0.345   2.806
 9366SOL    HW128442   6.781   0.295   2.793
 9366SOL    HW228443   6.929   0.291   2.862
 9367SOL     OW28444   7.162   1.662   2.169
 9367SOL    HW128445   7.251   1.708   2.172
 9367SOL    HW228446   7.141   1.638   2.074
 9368SOL     OW28447   6.393   0.605   3.327
 9368SOL    HW128448   6.346   0.602   3.416
 9368SOL    HW228449   6.342   0.550   3.261
 9369SOL     OW28450   6.980   0.469   3.536
 9369SOL    HW128451   6.960   0.512   3.624
 9369SOL    HW228452   7.058   0.407   3.545
 9370SOL     OW28453   6.559   0.890   3.434
 9370SOL    HW128454   6.605   0.806   3.405
 9370SOL    HW228455   6.503   0.924   3.359
 9371SOL     OW28456   6.577   0.410   3.104
 9371SOL    HW128457   6.500   0.444   3.158
 9371SOL    HW228458   6.543   0.359   3.025
 9372SOL     OW28459   6.627   0.701   2.291
 9372SOL    HW128460   6.653   0.697   2.387
 9372SOL    HW228461   6.542   0.650   2.277
 9373SOL     OW28462   5.662   0.811   2.651
 9373SOL    HW128463   5.761   0.799   2.660
 9373SOL    HW228464   5.638   0.906   2.672
 9374SOL     OW28465   5.716   1.821   3.433
 9374SOL    HW128466   5.706   1.806   3.532
 9374SOL    HW228467   5.630   1.857   3.397
 9375SOL     OW28468   6.451   0.348   2.057
 9375SOL    HW128469   6.510   0.411   2.008
 9375SOL    HW228470   6.470   0.254   2.028
 9376SOL     OW28471   7.305   0.585   3.693
 9376SOL    HW128472   7.279   0.674   3.657
 9376SOL    HW228473   7.303   0.517   3.620
 9377SOL     OW28474   6.948   1.144   2.407
 9377SOL    HW128475   7.031   1.115   2.359
 9377SOL    HW228476   6.899   1.211   2.351
 9378SOL     OW28477   6.136   0.196   2.747
 9378SOL    HW128478   6.131   0.191   2.847
 9378SOL    HW228479   6.138   0.292   2.718
 9379SOL     OW28480   6.594   1.456   2.339
 9379SOL    HW128481   6.548   1.528   2.287
 9379SOL    HW228482   6.590   1.476   2.437
 9380SOL     OW28483   5.937   1.801   2.715
 9380SOL    HW128484   5.987   1.715   2.721
 9380SOL    HW228485   6.002   1.878   2.712
 9381SOL     OW28486   7.381   1.066   2.735
 9381SOL    HW128487   7.319   1.051   2.659
 9381SOL    HW228488   7.329   1.077   2.820
 9382SOL     OW28489   6.813   1.550   3.368
 9382SOL    HW128490   6.819   1.473   3.432
 9382SOL    HW228491   6.761   1.524   3.288
 9383SOL     OW28492   5.907   0.943   2.104
 9383SOL    HW128493   5.989   0.982   2.062
 9383SOL    HW228494   5.880   0.861   2.055
 9384SOL     OW28495   7.044   0.735   2.590
 9384SOL    HW128496   7.039   0.670   2.665
 9384SOL    HW228497   7.124   0.794   2.603
 9385SOL     OW28498   6.047   1.266   3.589
 9385SOL    HW128499   5.997   1.267   3.503
 9385SOL    HW228500   5.984   1.248   3.665
 9386SOL     OW28501   6.697   1.776   2.099
 9386SOL    HW128502   6.637   1.714   2.149
 9386SOL    HW228503   6.728   1.732   2.014
 9387SOL     OW28504   7.218   1.377   1.943
 9387SOL    HW128505   7.186   1.471   1.933
 9387SOL    HW228506   7.142   1.314   1.931
 9388SOL     OW28507   6.050   1.743   2.185
 9388SOL    HW128508   6.083   1.782   2.271
 9388SOL    HW228509   6.126   1.736   2.120
 9389SOL     OW28510   5.835   1.785   3.103
 9389SOL    HW128511   5.892   1.720   3.153
 9389SOL    HW228512   5.819   1.752   3.010
 9390SOL     OW28513   6.526   1.698   2.766
 9390SOL    HW128514   6.606   1.641   2.787
 9390SOL    HW228515   6.477   1.658   2.689
 9391SOL     OW28516   5.968   0.700   2.342
 9391SOL    HW128517   6.013   0.610   2.339
 9391SOL    HW228518   5.874   0.689   2.375
 9392SOL     OW28519   6.367   0.264   3.611
 9392SOL    HW128520   6.434   0.203   3.654
 9392SOL    HW228521   6.294   0.283   3.676
 9393SOL     OW28522   6.474   1.514   3.057
 9393SOL    HW128523   6.451   1.489   2.963
 9393SOL    HW228524   6.535   1.445   3.096
 9394SOL     OW28525   6.937   0.590   3.295
 9394SOL    HW128526   6.965   0.547   3.380
 9394SOL    HW228527   6.962   0.686   3.296
 9395SOL     OW28528   6.389   1.402   2.786
 9395SOL    HW128529   6.479   1.416   2.744
 9395SOL    HW228530   6.318   1.404   2.715
 9396SOL     OW28531   6.508   0.503   2.761
 9396SOL    HW128532   6.483   0.494   2.665
 9396SOL    HW228533   6.556   0.421   2.792
 9397SOL     OW28534   7.020   1.188   1.903
 9397SOL    HW128535   7.052   1.112   1.960
 9397SOL    HW228536   6.928   1.215   1.933
 9398SOL     OW28537   6.662   0.683   3.326
 9398SOL    HW128538   6.582   0.622   3.329
 9398SOL    HW228539   6.743   0.630   3.302
 9399SOL     OW28540   6.813   1.570   2.655
 9399SOL    HW128541   6.834   1.644   2.590
 9399SOL    HW228542   6.881   1.570   2.728
 9400SOL     OW28543   6.045   1.152   2.603
 9400SOL    HW128544   5.974   1.125   2.668
 9400SOL    HW228545   6.019   1.124   2.510
 9401SOL     OW28546   6.857   1.797   2.453
 9401SOL    HW128547   6.901   1.861   2.389
 9401SOL    HW228548   6.807   1.849   2.523
 9402SOL     OW28549   6.618   0.549   1.878
 9402SOL    HW128550   6.577   0.631   1.839
 9402SOL    HW228551   6.682   0.575   1.951
 9403SOL     OW28552   5.664   0.556   3.248
 9403SOL    HW128553   5.756   0.555   3.207
 9403SOL    HW228554   5.658   0.630   3.315
 9404SOL     OW28555   6.147   0.222   3.009
 9404SOL    HW128556   6.185   0.138   3.046
 9404SOL    HW228557   6.059   0.241   3.053
 9405SOL     OW28558   6.452   0.454   2.504
 9405SOL    HW128559   6.420   0.526   2.442
 9405SOL    HW228560   6.476   0.373   2.451
 9406SOL     OW28561   6.603   0.039   2.615
 9406SOL    HW128562   6.531   0.044   2.546
 9406SOL    HW228563   6.579  -0.030   2.684
 9407SOL     OW28564   7.015   1.173   2.729
 9407SOL    HW128565   6.960   1.089   2.722
 9407SOL    HW228566   7.041   1.202   2.637
 9408SOL     OW28567   7.052   0.590   2.854
 9408SOL    HW128568   7.022   0.495   2.861
 9408SOL    HW228569   7.125   0.606   2.920
 9409SOL     OW28570   7.443   0.833   2.239
 9409SOL    HW128571   7.485   0.769   2.303
 9409SOL    HW228572   7.405   0.782   2.161
 9410SOL     OW28573   6.074   1.385   2.036
 9410SOL    HW128574   5.987   1.370   2.083
 9410SOL    HW228575   6.057   1.411   1.941
 9411SOL     OW28576   7.250   1.280   2.519
 9411SOL    HW128577   7.349   1.288   2.533
 9411SOL    HW228578   7.205   1.364   2.550
 9412SOL     OW28579   6.976   0.575   1.940
 9412SOL    HW128580   6.922   0.554   2.021
 9412SOL    HW228581   7.067   0.534   1.949
 9413SOL     OW28582   7.340   1.223   3.450
 9413SOL    HW128583   7.431   1.184   3.437
 9413SOL    HW228584   7.348   1.319   3.474
 9414SOL     OW28585   6.650   1.347   3.202
 9414SOL    HW128586   6.570   1.324   3.257
 9414SOL    HW228587   6.733   1.321   3.251
 9415SOL     OW28588   7.178   1.629   3.487
 9415SOL    HW128589   7.205   1.663   3.397
 9415SOL    HW228590   7.257   1.591   3.533
 9416SOL     OW28591   6.697   1.195   2.962
 9416SOL    HW128592   6.657   1.239   3.043
 9416SOL    HW228593   6.656   1.232   2.879
 9417SOL     OW28594   7.224   1.099   2.941
 9417SOL    HW128595   7.229   1.180   3.000
 9417SOL    HW228596   7.138   1.101   2.890
 9418SOL     OW28597   6.566   1.116   3.581
 9418SOL    HW128598   6.467   1.122   3.591
 9418SOL    HW228599   6.589   1.036   3.525
 9419SOL     OW28600   6.291   1.050   2.230
 9419SOL    HW128601   6.277   1.057   2.329
 9419SOL    HW228602   6.375   0.999   2.212
 9420SOL     OW28603   5.996   0.813   3.113
 9420SOL    HW128604   6.082   0.825   3.163
 9420SOL    HW228605   5.954   0.726   3.140
 9421SOL     OW28606   6.860   0.386   3.124
 9421SOL    HW128607   6.881   0.460   3.188
 9421SOL    HW228608   6.771   0.403   3.081
 9422SOL     OW28609   5.650   1.564   3.193
 9422SOL    HW128610   5.604   1.646   3.159
 9422SOL    HW228611   5.748   1.583   3.202
 9423SOL     OW28612   5.953   1.100   2.363
 9423SOL    HW128613   5.946   1.183   2.307
 9423SOL    HW228614   5.957   1.020   2.303
 9424SOL     OW28615   6.152   0.537   2.727
 9424SOL    HW128616   6.164   0.603   2.653
 9424SOL    HW228617   6.198   0.571   2.810
 9425SOL     OW28618   6.838   1.348   2.250
 9425SOL    HW128619   6.888   1.425   2.290
 9425SOL    HW228620   6.743   1.350   2.282
 9426SOL     OW28621   6.858   1.445   3.004
 9426SOL    HW128622   6.905   1.458   3.091
 9426SOL    HW228623   6.792   1.371   3.013
 9427SOL     OW28624   7.168   0.639   2.334
 9427SOL    HW128625   7.137   0.700   2.407
 9427SOL    HW228626   7.218   0.691   2.265
 9428SOL     OW28627   5.940   1.510   3.191
 9428SOL    HW128628   5.919   1.466   3.104
 9428SOL    HW228629   6.037   1.536   3.194
 9429SOL     OW28630   5.988   0.751   3.460
 9429SOL    HW128631   6.056   0.806   3.413
 9429SOL    HW228632   6.028   0.663   3.487
 9430SOL     OW28633   7.173   0.779   3.532
 9430SOL    HW128634   7.081   0.817   3.527
 9430SOL    HW228635   7.233   0.826   3.467
 9431SOL     OW28636   6.599   0.105   3.632
 9431SOL    HW128637   6.605   0.190   3.580
 9431SOL    HW228638   6.631   0.029   3.575
 9432SOL     OW28639   6.159   0.870   2.891
 9432SOL    HW128640   6.203   0.959   2.882
 9432SOL    HW228641   6.096   0.870   2.968
 9433SOL     OW28642   6.946   0.862   2.907
 9433SOL    HW128643   6.871   0.862   2.841
 9433SOL    HW228644   6.983   0.770   2.916
 9434SOL     OW28645   6.795   0.525   2.137
 9434SOL    HW128646   6.808   0.441   2.191
 9434SOL    HW228647   6.766   0.599   2.197
 9435SOL     OW28648   5.623   1.310   3.144
 9435SOL    HW128649   5.676   1.261   3.212
 9435SOL    HW228650   5.645   1.408   3.149
 9436SOL     OW28651   6.318   0.634   2.926
 9436SOL    HW128652   6.377   0.608   2.850
 9436SOL    HW228653   6.290   0.730   2.915
 9437SOL     OW28654   7.314   0.935   3.716
 9437SOL    HW128655   7.268   0.928   3.627
 9437SOL    HW228656   7.252   0.979   3.782
 9438SOL     OW28657   7.208   0.367   2.236
 9438SOL    HW128658   7.210   0.291   2.300
 9438SOL    HW228659   7.160   0.444   2.276
 9439SOL     OW28660   6.609   0.766   2.828
 9439SOL    HW128661   6.624   0.787   2.924
 9439SOL    HW228662   6.579   0.671   2.819
 9440SOL     OW28663   6.566   1.573   3.562
 9440SOL    HW128664   6.546   1.617   3.474
 9440SOL    HW228665   6.605   1.482   3.546
 9441SOL     OW28666   7.445   1.518   3.467
 9441SOL    HW128667   7.459   1.545   3.372
 9441SOL    HW228668   7.528   1.540   3.520
 9442SOL     OW28669   5.936   0.898   3.666
 9442SOL    HW128670   6.012   0.942   3.714
 9442SOL    HW228671   5.971   0.851   3.584
 9443SOL     OW28672   6.889   0.838   1.904
 9443SOL    HW128673   6.923   0.745   1.919
 9443SOL    HW228674   6.907   0.865   1.809
 9444SOL     OW28675   6.654   1.333   2.711
 9444SOL    HW128676   6.661   1.249   2.656
 9444SOL    HW228677   6.716   1.402   2.675
 9445SOL     OW28678   5.905   0.810   2.811
 9445SOL    HW128679   5.998   0.846   2.816
 9445SOL    HW228680   5.899   0.725   2.863
 9446SOL     OW28681   5.925   0.509   2.868
 9446SOL    HW128682   5.873   0.426   2.851
 9446SOL    HW228683   6.002   0.514   2.804
 9447SOL     OW28684   6.097   0.415   3.670
 9447SOL    HW128685   6.079   0.460   3.758
 9447SOL    HW228686   6.139   0.480   3.607
 9448SOL     OW28687   6.724   0.380   3.540
 9448SOL    HW128688   6.679   0.443   3.604
 9448SOL    HW228689   6.817   0.411   3.523
 9449SOL     OW28690   6.746   0.207   3.339
 9449SOL    HW128691   6.746   0.271   3.416
 9449SOL    HW228692   6.774   0.255   3.256
 9450SOL     OW28693   5.594   1.326   2.062
 9450SOL    HW128694   5.501   1.347   2.031
 9450SOL    HW228695   5.604   1.227   2.075
 9451SOL     OW28696   5.674   1.801   2.789
 9451SOL    HW128697   5.632   1.715   2.762
 9451SOL    HW228698   5.768   1.804   2.755
 9452SOL     OW28699   6.090   1.568   2.772
 9452SOL    HW128700   6.156   1.642   2.781
 9452SOL    HW228701   6.134   1.489   2.730
 9453SOL     OW28702   6.588   0.796   3.100
 9453SOL    HW128703   6.629   0.764   3.186
 9453SOL    HW228704   6.492   0.769   3.097
 9454SOL     OW28705   5.626   0.544   2.976
 9454SOL    HW128706   5.711   0.511   2.935
 9454SOL    HW228707   5.639   0.559   3.074
 9455SOL     OW28708   5.775   0.520   3.584
 9455SOL    HW128709   5.834   0.480   3.514
 9455SOL    HW228710   5.717   0.591   3.543
 9456SOL     OW28711   6.955   0.950   3.522
 9456SOL    HW128712   6.994   1.039   3.542
 9456SOL    HW228713   6.965   0.930   3.425
 9457SOL     OW28714   6.401   0.572   2.187
 9457SOL    HW128715   6.408   0.483   2.141
 9457SOL    HW228716   6.307   0.606   2.179
 9458SOL     OW28717   7.243   0.604   3.068
 9458SOL    HW128718   7.205   0.535   3.130
 9458SOL    HW228719   7.325   0.568   3.024
 9459SOL     OW28720   5.838   1.564   3.606
 9459SOL    HW128721   5.808   1.621   3.682
 9459SOL    HW228722   5.831   1.467   3.632
 9460SOL     OW28723   6.257   0.464   3.131
 9460SOL    HW128724   6.223   0.375   3.101
 9460SOL    HW228725   6.283   0.518   3.051
 9461SOL     OW28726   6.516   1.678   3.327
 9461SOL    HW128727   6.492   1.660   3.232
 9461SOL    HW228728   6.546   1.772   3.337
 9462SOL     OW28729   6.059   0.500   2.053
 9462SOL    HW128730   6.120   0.580   2.057
 9462SOL    HW228731   5.964   0.531   2.060
 9463SOL     OW28732   5.745   1.137   3.328
 9463SOL    HW128733   5.767   1.076   3.404
 9463SOL    HW228734   5.755   1.088   3.242
 9464SOL     OW28735   6.933   1.059   3.096
 9464SOL    HW128736   6.957   0.996   3.022
 9464SOL    HW228737   6.843   1.099   3.078
 9465SOL     OW28738   6.888   0.855   2.171
 9465SOL    HW128739   6.802   0.824   2.213
 9465SOL    HW228740   6.884   0.841   2.072
 9466SOL     OW28741   7.345   1.747   3.016
 9466SOL    HW128742   7.406   1.777   2.943
 9466SOL    HW228743   7.307   1.658   2.994
 9467SOL     OW28744   6.838   1.731   2.990
 9467SOL    HW128745   6.922   1.736   2.936
 9467SOL    HW228746   6.815   1.635   3.008
 9468SOL     OW28747   5.669   1.258   2.884
 9468SOL    HW128748   5.664   1.257   2.984
 9468SOL    HW228749   5.586   1.217   2.846
 9469SOL     OW28750   6.274   1.662   3.578
 9469SOL    HW128751   6.218   1.743   3.587
 9469SOL    HW228752   6.326   1.666   3.492
 9470SOL     OW28753   7.312   0.135   2.385
 9470SOL    HW128754   7.385   0.118   2.318
 9470SOL    HW228755   7.281   0.048   2.423
 9471SOL     OW28756   6.974   1.573   2.339
 9471SOL    HW128757   7.041   1.585   2.265
 9471SOL    HW228758   6.934   1.662   2.362
 9472SOL     OW28759   5.716   1.794   3.713
 9472SOL    HW128760   5.675   1.720   3.766
 9472SOL    HW228761   5.780   1.845   3.771
 9473SOL     OW28762   6.866   0.927   2.534
 9473SOL    HW128763   6.926   0.846   2.536
 9473SOL    HW228764   6.906   0.996   2.474
 9474SOL     OW28765   6.416   1.273   3.284
 9474SOL    HW128766   6.411   1.306   3.379
 9474SOL    HW228767   6.330   1.292   3.238
 9475SOL     OW28768   6.258   1.616   2.016
 9475SOL    HW128769   6.267   1.626   1.917
 9475SOL    HW228770   6.218   1.527   2.037
 9476SOL     OW28771   7.236   1.720   3.256
 9476SOL    HW128772   7.289   1.730   3.172
 9476SOL    HW228773   7.209   1.810   3.290
 9477SOL     OW28774   6.780   1.612   1.893
 9477SOL    HW128775   6.786   1.519   1.930
 9477SOL    HW228776   6.721   1.612   1.813
 9478SOL     OW28777   6.408   1.002   3.234
 9478SOL    HW128778   6.448   1.001   3.142
 9478SOL    HW228779   6.418   1.094   3.274
 9479SOL     OW28780   6.502   0.910   2.153
 9479SOL    HW128781   6.565   0.948   2.085
 9479SOL    HW228782   6.542   0.827   2.192
 9480SOL     OW28783   7.090   1.607   1.906
 9480SOL    HW128784   6.998   1.644   1.913
 9480SOL    HW228785   7.128   1.627   1.816
 9481SOL     OW28786   5.958   1.288   3.352
 9481SOL    HW128787   5.945   1.381   3.318
 9481SOL    HW228788   5.874   1.236   3.339
 9482SOL     OW28789   7.200   1.292   3.151
 9482SOL    HW128790   7.260   1.295   3.231
 9482SOL    HW228791   7.125   1.356   3.164
 9483SOL     OW28792   6.625   1.098   2.558
 9483SOL    HW128793   6.555   1.051   2.612
 9483SOL    HW228794   6.684   1.030   2.515
 9484SOL     OW28795   6.176   1.487   2.353
 9484SOL    HW128796   6.218   1.429   2.283
 9484SOL    HW228797   6.132   1.566   2.309
 9485SOL     OW28798   7.295   0.385   3.243
 9485SOL    HW128799   7.368   0.454   3.247
 9485SOL    HW228800   7.323   0.310   3.184
 9486SOL     OW28801   5.841   1.348   2.152
 9486SOL    HW128802   5.745   1.349   2.125
 9486SOL    HW228803   5.853   1.401   2.236
 9487SOL     OW28804   5.691   1.013   3.588
 9487SOL    HW128805   5.614   0.980   3.642
 9487SOL    HW228806   5.776   0.983   3.630
 9488SOL     OW28807   7.026   0.856   3.260
 9488SOL    HW128808   6.969   0.908   3.197
 9488SOL    HW228809   7.122   0.868   3.236
 9489SOL     OW28810   6.769   1.335   1.981
 9489SOL    HW128811   6.670   1.324   1.983
 9489SOL    HW228812   6.803   1.350   2.074
 9490SOL     OW28813   6.199   0.842   3.293
 9490SOL    HW128814   6.255   0.923   3.276
 9490SOL    HW228815   6.258   0.762   3.296
 9491SOL     OW28816   7.079   1.767   2.821
 9491SOL    HW128817   7.112   1.831   2.752
 9491SOL    HW228818   7.145   1.761   2.896
 9492SOL     OW28819   6.302   0.565   3.570
 9492SOL    HW128820   6.321   0.630   3.644
 9492SOL    HW228821   6.362   0.485   3.579
 9493SOL     OW28822   7.036   1.220   3.495
 9493SOL    HW128823   7.027   1.210   3.594
 9493SOL    HW228824   7.132   1.213   3.469
 9494SOL     OW28825   5.976   1.741   3.422
 9494SOL    HW128826   5.885   1.782   3.420
 9494SOL    HW228827   5.969   1.647   3.454
 9495SOL     OW28828   7.260   0.883   3.116
 9495SOL    HW128829   7.233   0.794   3.079
 9495SOL    HW228830   7.261   0.951   3.043
 9496SOL     OW28831   6.180   0.745   2.514
 9496SOL    HW128832   6.230   0.830   2.495
 9496SOL    HW228833   6.092   0.747   2.466
 9497SOL     OW28834   7.316   0.934   3.379
 9497SOL    HW128835   7.354   1.025   3.394
 9497SOL    HW228836   7.308   0.917   3.280
 9498SOL     OW28837   6.445   1.374   1.878
 9498SOL    HW128838   6.399   1.389   1.966
 9498SOL    HW228839   6.489   1.459   1.848
 9499SOL     OW28840   6.247   1.790   2.815
 9499SOL    HW128841   6.201   1.878   2.802
 9499SOL    HW228842   6.346   1.802   2.808
 9500SOL     OW28843   6.445   0.956   2.723
 9500SOL    HW128844   6.499   0.887   2.771
 9500SOL    HW228845   6.413   1.025   2.789
 9501SOL     OW28846   6.669   0.984   1.949
 9501SOL    HW128847   6.646   1.037   1.867
 9501SOL    HW228848   6.750   0.928   1.930
 9502SOL     OW28849   7.447   1.569   2.713
 9502SOL    HW128850   7.376   1.557   2.643
 9502SOL    HW228851   7.448   1.490   2.773
 9503SOL     OW28852   5.807   1.314   3.706
 9503SOL    HW128853   5.742   1.241   3.685
 9503SOL    HW228854   5.811   1.328   3.804
 9504SOL     OW28855   5.665   1.240   2.515
 9504SOL    HW128856   5.664   1.193   2.603
 9504SOL    HW228857   5.747   1.212   2.464
 9505SOL     OW28858   6.258   1.391   3.486
 9505SOL    HW128859   6.180   1.341   3.524
 9505SOL    HW228860   6.255   1.486   3.517
 9506SOL     OW28861   6.014   0.424   2.382
 9506SOL    HW128862   6.044   0.352   2.320
 9506SOL    HW228863   5.975   0.384   2.465
 9507SOL     OW28864   7.291   1.487   2.966
 9507SOL    HW128865   7.198   1.462   2.939
 9507SOL    HW228866   7.317   1.437   3.048
 9508SOL     OW28867   5.903   0.547   3.142
 9508SOL    HW128868   5.941   0.488   3.214
 9508SOL    HW228869   5.943   0.521   3.054
 9509SOL     OW28870   6.398   1.586   2.549
 9509SOL    HW128871   6.430   1.596   2.455
 9509SOL    HW228872   6.319   1.524   2.551
 9510SOL     OW28873   6.356   1.330   2.163
 9510SOL    HW128874   6.310   1.243   2.180
 9510SOL    HW228875   6.447   1.327   2.204
 9511SOL     OW28876   6.204   1.567   3.146
 9511SOL    HW128877   6.199   1.649   3.203
 9511SOL    HW228878   6.293   1.564   3.101
 9512SOL     OW28879   6.886   0.453   2.553
 9512SOL    HW128880   6.827   0.533   2.557
 9512SOL    HW228881   6.901   0.418   2.646
 9513SOL     OW28882   5.625   1.077   2.162
 9513SOL    HW128883   5.724   1.066   2.153
 9513SOL    HW228884   5.585   0.991   2.194
 9514SOL     OW28885   6.461   1.646   2.199
 9514SOL    HW128886   6.384   1.611   2.145
 9514SOL    HW228887   6.429   1.717   2.261
 9515SOL     OW28888   5.816   0.628   3.837
 9515SOL    HW128889   5.723   0.626   3.874
 9515SOL    HW228890   5.817   0.589   3.745
 9516SOL     OW28891   6.155   1.275   4.889
 9516SOL    HW128892   6.062   1.268   4.852
 9516SOL    HW228893   6.166   1.364   4.933
 9517SOL     OW28894   7.141   1.511   4.427
 9517SOL    HW128895   7.084   1.495   4.508
 9517SOL    HW228896   7.082   1.521   4.347
 9518SOL     OW28897   7.329   0.618   4.580
 9518SOL    HW128898   7.362   0.712   4.580
 9518SOL    HW228899   7.380   0.564   4.646
 9519SOL     OW28900   6.721   0.703   4.441
 9519SOL    HW128901   6.778   0.781   4.416
 9519SOL    HW228902   6.661   0.729   4.517
 9520SOL     OW28903   7.341   0.607   3.955
 9520SOL    HW128904   7.329   0.594   3.856
 9520SOL    HW228905   7.311   0.526   4.004
 9521SOL     OW28906   6.354   1.144   4.747
 9521SOL    HW128907   6.276   1.161   4.807
 9521SOL    HW228908   6.388   1.231   4.711
 9522SOL     OW28909   6.436   0.798   5.547
 9522SOL    HW128910   6.432   0.874   5.612
 9522SOL    HW228911   6.458   0.834   5.456
 9523SOL     OW28912   6.271   1.012   4.389
 9523SOL    HW128913   6.340   0.996   4.459
 9523SOL    HW228914   6.198   1.069   4.427
 9524SOL     OW28915   6.272   1.161   5.527
 9524SOL    HW128916   6.332   1.240   5.541
 9524SOL    HW228917   6.186   1.192   5.486
 9525SOL     OW28918   5.921   1.435   4.785
 9525SOL    HW128919   5.843   1.404   4.732
 9525SOL    HW228920   5.979   1.493   4.728
 9526SOL     OW28921   7.046   1.505   5.063
 9526SOL    HW128922   7.070   1.599   5.089
 9526SOL    HW228923   7.030   1.451   5.145
 9527SOL     OW28924   5.817   1.713   4.207
 9527SOL    HW128925   5.851   1.790   4.261
 9527SOL    HW228926   5.861   1.713   4.117
 9528SOL     OW28927   6.713   1.341   5.414
 9528SOL    HW128928   6.760   1.341   5.502
 9528SOL    HW228929   6.665   1.254   5.403
 9529SOL     OW28930   5.816   1.434   4.262
 9529SOL    HW128931   5.790   1.530   4.262
 9529SOL    HW228932   5.745   1.380   4.307
 9530SOL     OW28933   5.826   1.091   4.610
 9530SOL    HW128934   5.840   1.007   4.662
 9530SOL    HW228935   5.771   1.155   4.665
 9531SOL     OW28936   6.206   1.786   5.163
 9531SOL    HW128937   6.114   1.769   5.198
 9531SOL    HW228938   6.234   1.878   5.189
 9532SOL     OW28939   6.192   0.964   3.847
 9532SOL    HW128940   6.199   1.048   3.793
 9532SOL    HW228941   6.238   0.977   3.935
 9533SOL     OW28942   5.708   0.643   4.287
 9533SOL    HW128943   5.663   0.555   4.304
 9533SOL    HW228944   5.707   0.697   4.371
 9534SOL     OW28945   7.428   1.767   4.083
 9534SOL    HW128946   7.482   1.738   4.163
 9534SOL    HW228947   7.458   1.857   4.054
 9535SOL     OW28948   5.613   1.596   3.841
 9535SOL    HW128949   5.594   1.500   3.862
 9535SOL    HW228950   5.580   1.654   3.916
 9536SOL     OW28951   7.275   0.922   4.336
 9536SOL    HW128952   7.370   0.893   4.344
 9536SOL    HW228953   7.267   0.987   4.261
 9537SOL     OW28954   7.227   1.108   4.156
 9537SOL    HW128955   7.313   1.110   4.104
 9537SOL    HW228956   7.241   1.155   4.244
 9538SOL     OW28957   5.699   0.737   5.321
 9538SOL    HW128958   5.787   0.724   5.366
 9538SOL    HW228959   5.686   0.834   5.299
 9539SOL     OW28960   6.199   1.365   4.450
 9539SOL    HW128961   6.150   1.278   4.459
 9539SOL    HW228962   6.176   1.408   4.363
 9540SOL     OW28963   6.879   1.228   5.147
 9540SOL    HW128964   6.916   1.155   5.089
 9540SOL    HW228965   6.931   1.233   5.232
 9541SOL     OW28966   5.783   0.976   4.988
 9541SOL    HW128967   5.872   0.931   4.974
 9541SOL    HW228968   5.710   0.911   4.969
 9542SOL     OW28969   7.111   0.999   3.914
 9542SOL    HW128970   7.048   0.923   3.927
 9542SOL    HW228971   7.159   1.017   4.000
 9543SOL     OW28972   6.773   1.792   5.340
 9543SOL    HW128973   6.797   1.852   5.264
 9543SOL    HW228974   6.780   1.697   5.310
 9544SOL     OW28975   7.052   1.417   4.677
 9544SOL    HW128976   6.993   1.423   4.757
 9544SOL    HW228977   7.037   1.329   4.631
 9545SOL     OW28978   7.253   1.714   4.296
 9545SOL    HW128979   7.212   1.691   4.208
 9545SOL    HW228980   7.235   1.640   4.361
 9546SOL     OW28981   6.184   0.729   3.994
 9546SOL    HW128982   6.208   0.798   3.926
 9546SOL    HW228983   6.106   0.762   4.048
 9547SOL     OW28984   6.867   0.345   4.668
 9547SOL    HW128985   6.781   0.295   4.655
 9547SOL    HW228986   6.929   0.291   4.724
 9548SOL     OW28987   7.162   1.662   4.031
 9548SOL    HW128988   7.251   1.708   4.034
 9548SOL    HW228989   7.141   1.638   3.936
 9549SOL     OW28990   6.393   0.605   5.189
 9549SOL    HW128991   6.346   0.602   5.278
 9549SOL    HW228992   6.342   0.550   5.123
 9550SOL     OW28993   6.980   0.469   5.398
 9550SOL    HW128994   6.960   0.512   5.486
 9550SOL    HW228995   7.058   0.407   5.407
 9551SOL     OW28996   6.559   0.890   5.296
 9551SOL    HW128997   6.605   0.806   5.267
 9551SOL    HW228998   6.503   0.924   5.221
 9552SOL     OW28999   6.577   0.410   4.966
 9552SOL    HW129000   6.500   0.444   5.020
 9552SOL    HW229001   6.543   0.359   4.887
 9553SOL     OW29002   6.627   0.701   4.153
 9553SOL    HW129003   6.653   0.697   4.249
 9553SOL    HW229004   6.542   0.650   4.139
 9554SOL     OW29005   5.662   0.811   4.513
 9554SOL    HW129006   5.761   0.799   4.522
 9554SOL    HW229007   5.638   0.906   4.534
 9555SOL     OW29008   5.716   1.821   5.295
 9555SOL    HW129009   5.706   1.806   5.394
 9555SOL    HW229010   5.630   1.857   5.259
 9556SOL     OW29011   6.451   0.348   3.919
 9556SOL    HW129012   6.510   0.411   3.870
 9556SOL    HW229013   6.470   0.254   3.890
 9557SOL     OW29014   7.305   0.585   5.555
 9557SOL    HW129015   7.279   0.674   5.519
 9557SOL    HW229016   7.303   0.517   5.482
 9558SOL     OW29017   6.948   1.144   4.269
 9558SOL    HW129018   7.031   1.115   4.221
 9558SOL    HW229019   6.899   1.211   4.213
 9559SOL     OW29020   6.136   0.196   4.609
 9559SOL    HW129021   6.131   0.191   4.709
 9559SOL    HW229022   6.138   0.292   4.580
 9560SOL     OW29023   6.594   1.456   4.201
 9560SOL    HW129024   6.548   1.528   4.149
 9560SOL    HW229025   6.590   1.476   4.299
 9561SOL     OW29026   5.937   1.801   4.577
 9561SOL    HW129027   5.987   1.715   4.583
 9561SOL    HW229028   6.002   1.878   4.574
 9562SOL     OW29029   7.381   1.066   4.597
 9562SOL    HW129030   7.319   1.051   4.521
 9562SOL    HW229031   7.329   1.077   4.682
 9563SOL     OW29032   6.813   1.550   5.230
 9563SOL    HW129033   6.819   1.473   5.294
 9563SOL    HW229034   6.761   1.524   5.150
 9564SOL     OW29035   5.907   0.943   3.966
 9564SOL    HW129036   5.989   0.982   3.924
 9564SOL    HW229037   5.880   0.861   3.917
 9565SOL     OW29038   7.044   0.735   4.452
 9565SOL    HW129039   7.039   0.670   4.527
 9565SOL    HW229040   7.124   0.794   4.465
 9566SOL     OW29041   6.047   1.266   5.451
 9566SOL    HW129042   5.997   1.267   5.365
 9566SOL    HW229043   5.984   1.248   5.527
 9567SOL     OW29044   6.697   1.776   3.961
 9567SOL    HW129045   6.637   1.714   4.011
 9567SOL    HW229046   6.728   1.732   3.876
 9568SOL     OW29047   7.218   1.377   3.805
 9568SOL    HW129048   7.186   1.471   3.795
 9568SOL    HW229049   7.142   1.314   3.793
 9569SOL     OW29050   6.050   1.743   4.047
 9569SOL    HW129051   6.083   1.782   4.133
 9569SOL    HW229052   6.126   1.736   3.982
 9570SOL     OW29053   5.835   1.785   4.965
 9570SOL    HW129054   5.892   1.720   5.015
 9570SOL    HW229055   5.819   1.752   4.872
 9571SOL     OW29056   6.526   1.698   4.628
 9571SOL    HW129057   6.606   1.641   4.649
 9571SOL    HW229058   6.477   1.658   4.551
 9572SOL     OW29059   5.968   0.700   4.204
 9572SOL    HW129060   6.013   0.610   4.201
 9572SOL    HW229061   5.874   0.689   4.237
 9573SOL     OW29062   6.367   0.264   5.473
 9573SOL    HW129063   6.434   0.203   5.516
 9573SOL    HW229064   6.294   0.283   5.538
 9574SOL     OW29065   6.474   1.514   4.919
 9574SOL    HW129066   6.451   1.489   4.825
 9574SOL    HW229067   6.535   1.445   4.958
 9575SOL     OW29068   6.937   0.590   5.157
 9575SOL    HW129069   6.965   0.547   5.242
 9575SOL    HW229070   6.962   0.686   5.158
 9576SOL     OW29071   6.389   1.402   4.648
 9576SOL    HW129072   6.479   1.416   4.606
 9576SOL    HW229073   6.318   1.404   4.577
 9577SOL     OW29074   6.508   0.503   4.623
 9577SOL    HW129075   6.483   0.494   4.527
 9577SOL    HW229076   6.556   0.421   4.654
 9578SOL     OW29077   7.020   1.188   3.765
 9578SOL    HW129078   7.052   1.112   3.822
 9578SOL    HW229079   6.928   1.215   3.795
 9579SOL     OW29080   6.662   0.683   5.188
 9579SOL    HW129081   6.582   0.622   5.191
 9579SOL    HW229082   6.743   0.630   5.164
 9580SOL     OW29083   6.813   1.570   4.517
 9580SOL    HW129084   6.834   1.644   4.452
 9580SOL    HW229085   6.881   1.570   4.590
 9581SOL     OW29086   6.045   1.152   4.465
 9581SOL    HW129087   5.974   1.125   4.530
 9581SOL    HW229088   6.019   1.124   4.372
 9582SOL     OW29089   6.857   1.797   4.315
 9582SOL    HW129090   6.901   1.861   4.251
 9582SOL    HW229091   6.807   1.849   4.385
 9583SOL     OW29092   6.618   0.549   3.740
 9583SOL    HW129093   6.577   0.631   3.701
 9583SOL    HW229094   6.682   0.575   3.813
 9584SOL     OW29095   5.664   0.556   5.110
 9584SOL    HW129096   5.756   0.555   5.069
 9584SOL    HW229097   5.658   0.630   5.177
 9585SOL     OW29098   6.147   0.222   4.871
 9585SOL    HW129099   6.185   0.138   4.908
 9585SOL    HW229100   6.059   0.241   4.915
 9586SOL     OW29101   6.452   0.454   4.366
 9586SOL    HW129102   6.420   0.526   4.304
 9586SOL    HW229103   6.476   0.373   4.313
 9587SOL     OW29104   6.603   0.039   4.477
 9587SOL    HW129105   6.531   0.044   4.408
 9587SOL    HW229106   6.579  -0.030   4.546
 9588SOL     OW29107   7.015   1.173   4.591
 9588SOL    HW129108   6.960   1.089   4.584
 9588SOL    HW229109   7.041   1.202   4.499
 9589SOL     OW29110   7.052   0.590   4.716
 9589SOL    HW129111   7.022   0.495   4.723
 9589SOL    HW229112   7.125   0.606   4.782
 9590SOL     OW29113   7.443   0.833   4.101
 9590SOL    HW129114   7.485   0.769   4.165
 9590SOL    HW229115   7.405   0.782   4.023
 9591SOL     OW29116   6.074   1.385   3.898
 9591SOL    HW129117   5.987   1.370   3.945
 9591SOL    HW229118   6.057   1.411   3.803
 9592SOL     OW29119   7.250   1.280   4.381
 9592SOL    HW129120   7.349   1.288   4.395
 9592SOL    HW229121   7.205   1.364   4.412
 9593SOL     OW29122   6.976   0.575   3.802
 9593SOL    HW129123   6.922   0.554   3.883
 9593SOL    HW229124   7.067   0.534   3.811
 9594SOL     OW29125   7.340   1.223   5.312
 9594SOL    HW129126   7.431   1.184   5.299
 9594SOL    HW229127   7.348   1.319   5.336
 9595SOL     OW29128   6.650   1.347   5.064
 9595SOL    HW129129   6.570   1.324   5.119
 9595SOL    HW229130   6.733   1.321   5.113
 9596SOL     OW29131   7.178   1.629   5.349
 9596SOL    HW129132   7.205   1.663   5.259
 9596SOL    HW229133   7.257   1.591   5.395
 9597SOL     OW29134   6.697   1.195   4.824
 9597SOL    HW129135   6.657   1.239   4.905
 9597SOL    HW229136   6.656   1.232   4.741
 9598SOL     OW29137   7.224   1.099   4.803
 9598SOL    HW129138   7.229   1.180   4.862
 9598SOL    HW229139   7.138   1.101   4.752
 9599SOL     OW29140   6.566   1.116   5.443
 9599SOL    HW129141   6.467   1.122   5.453
 9599SOL    HW229142   6.589   1.036   5.387
 9600SOL     OW29143   6.291   1.050   4.092
 9600SOL    HW129144   6.277   1.057   4.191
 9600SOL    HW229145   6.375   0.999   4.074
 9601SOL     OW29146   5.996   0.813   4.975
 9601SOL    HW129147   6.082   0.825   5.025
 9601SOL    HW229148   5.954   0.726   5.002
 9602SOL     OW29149   6.860   0.386   4.986
 9602SOL    HW129150   6.881   0.460   5.050
 9602SOL    HW229151   6.771   0.403   4.943
 9603SOL     OW29152   5.650   1.564   5.055
 9603SOL    HW129153   5.604   1.646   5.021
 9603SOL    HW229154   5.748   1.583   5.064
 9604SOL     OW29155   5.953   1.100   4.225
 9604SOL    HW129156   5.946   1.183   4.169
 9604SOL    HW229157   5.957   1.020   4.165
 9605SOL     OW29158   6.152   0.537   4.589
 9605SOL    HW129159   6.164   0.603   4.515
 9605SOL    HW229160   6.198   0.571   4.672
 9606SOL     OW29161   6.838   1.348   4.112
 9606SOL    HW129162   6.888   1.425   4.152
 9606SOL    HW229163   6.743   1.350   4.144
 9607SOL     OW29164   6.858   1.445   4.866
 9607SOL    HW129165   6.905   1.458   4.953
 9607SOL    HW229166   6.792   1.371   4.875
 9608SOL     OW29167   7.168   0.639   4.196
 9608SOL    HW129168   7.137   0.700   4.269
 9608SOL    HW229169   7.218   0.691   4.127
 9609SOL     OW29170   5.940   1.510   5.053
 9609SOL    HW129171   5.919   1.466   4.966
 9609SOL    HW229172   6.037   1.536   5.056
 9610SOL     OW29173   5.988   0.751   5.322
 9610SOL    HW129174   6.056   0.806   5.275
 9610SOL    HW229175   6.028   0.663   5.349
 9611SOL     OW29176   7.173   0.779   5.394
 9611SOL    HW129177   7.081   0.817   5.389
 9611SOL    HW229178   7.233   0.826   5.329
 9612SOL     OW29179   6.599   0.105   5.494
 9612SOL    HW129180   6.605   0.190   5.442
 9612SOL    HW229181   6.631   0.029   5.437
 9613SOL     OW29182   6.159   0.870   4.753
 9613SOL    HW129183   6.203   0.959   4.744
 9613SOL    HW229184   6.096   0.870   4.830
 9614SOL     OW29185   6.946   0.862   4.769
 9614SOL    HW129186   6.871   0.862   4.703
 9614SOL    HW229187   6.983   0.770   4.778
 9615SOL     OW29188   6.795   0.525   3.999
 9615SOL    HW129189   6.808   0.441   4.053
 9615SOL    HW229190   6.766   0.599   4.059
 9616SOL     OW29191   5.623   1.310   5.006
 9616SOL    HW129192   5.676   1.261   5.074
 9616SOL    HW229193   5.645   1.408   5.011
 9617SOL     OW29194   6.318   0.634   4.788
 9617SOL    HW129195   6.377   0.608   4.712
 9617SOL    HW229196   6.290   0.730   4.777
 9618SOL     OW29197   7.314   0.935   5.578
 9618SOL    HW129198   7.268   0.928   5.489
 9618SOL    HW229199   7.252   0.979   5.644
 9619SOL     OW29200   7.208   0.367   4.098
 9619SOL    HW129201   7.210   0.291   4.162
 9619SOL    HW229202   7.160   0.444   4.138
 9620SOL     OW29203   6.609   0.766   4.690
 9620SOL    HW129204   6.624   0.787   4.786
 9620SOL    HW229205   6.579   0.671   4.681
 9621SOL     OW29206   6.566   1.573   5.424
 9621SOL    HW129207   6.546   1.617   5.336
 9621SOL    HW229208   6.605   1.482   5.408
 9622SOL     OW29209   7.445   1.518   5.329
 9622SOL    HW129210   7.459   1.545   5.234
 9622SOL    HW229211   7.528   1.540   5.382
 9623SOL     OW29212   5.936   0.898   5.528
 9623SOL    HW129213   6.012   0.942   5.576
 9623SOL    HW229214   5.971   0.851   5.446
 9624SOL     OW29215   6.889   0.838   3.766
 9624SOL    HW129216   6.923   0.745   3.781
 9624SOL    HW229217   6.907   0.865   3.671
 9625SOL     OW29218   6.654   1.333   4.573
 9625SOL    HW129219   6.661   1.249   4.518
 9625SOL    HW229220   6.716   1.402   4.537
 9626SOL     OW29221   5.905   0.810   4.673
 9626SOL    HW129222   5.998   0.846   4.678
 9626SOL    HW229223   5.899   0.725   4.725
 9627SOL     OW29224   5.925   0.509   4.730
 9627SOL    HW129225   5.873   0.426   4.713
 9627SOL    HW229226   6.002   0.514   4.666
 9628SOL     OW29227   6.097   0.415   5.532
 9628SOL    HW129228   6.079   0.460   5.620
 9628SOL    HW229229   6.139   0.480   5.469
 9629SOL     OW29230   6.724   0.380   5.402
 9629SOL    HW129231   6.679   0.443   5.466
 9629SOL    HW229232   6.817   0.411   5.385
 9630SOL     OW29233   6.746   0.207   5.201
 9630SOL    HW129234   6.746   0.271   5.278
 9630SOL    HW229235   6.774   0.255   5.118
 9631SOL     OW29236   5.594   1.326   3.924
 9631SOL    HW129237   5.501   1.347   3.893
 9631SOL    HW229238   5.604   1.227   3.937
 9632SOL     OW29239   5.674   1.801   4.651
 9632SOL    HW129240   5.632   1.715   4.624
 9632SOL    HW229241   5.768   1.804   4.617
 9633SOL     OW29242   6.090   1.568   4.634
 9633SOL    HW129243   6.156   1.642   4.643
 9633SOL    HW229244   6.134   1.489   4.592
 9634SOL     OW29245   6.588   0.796   4.962
 9634SOL    HW129246   6.629   0.764   5.048
 9634SOL    HW229247   6.492   0.769   4.959
 9635SOL     OW29248   5.626   0.544   4.838
 9635SOL    HW129249   5.711   0.511   4.797
 9635SOL    HW229250   5.639   0.559   4.936
 9636SOL     OW29251   5.775   0.520   5.446
 9636SOL    HW129252   5.834   0.480   5.376
 9636SOL    HW229253   5.717   0.591   5.405
 9637SOL     OW29254   6.955   0.950   5.384
 9637SOL    HW129255   6.994   1.039   5.404
 9637SOL    HW229256   6.965   0.930   5.287
 9638SOL     OW29257   6.401   0.572   4.049
 9638SOL    HW129258   6.408   0.483   4.003
 9638SOL    HW229259   6.307   0.606   4.041
 9639SOL     OW29260   7.243   0.604   4.930
 9639SOL    HW129261   7.205   0.535   4.992
 9639SOL    HW229262   7.325   0.568   4.886
 9640SOL     OW29263   5.838   1.564   5.468
 9640SOL    HW129264   5.808   1.621   5.544
 9640SOL    HW229265   5.831   1.467   5.494
 9641SOL     OW29266   6.257   0.464   4.993
 9641SOL    HW129267   6.223   0.375   4.963
 9641SOL    HW229268   6.283   0.518   4.913
 9642SOL     OW29269   6.516   1.678   5.189
 9642SOL    HW129270   6.492   1.660   5.094
 9642SOL    HW229271   6.546   1.772   5.199
 9643SOL     OW29272   6.059   0.500   3.915
 9643SOL    HW129273   6.120   0.580   3.919
 9643SOL    HW229274   5.964   0.531   3.922
 9644SOL     OW29275   5.745   1.137   5.190
 9644SOL    HW129276   5.767   1.076   5.266
 9644SOL    HW229277   5.755   1.088   5.104
 9645SOL     OW29278   6.933   1.059   4.958
 9645SOL    HW129279   6.957   0.996   4.884
 9645SOL    HW229280   6.843   1.099   4.940
 9646SOL     OW29281   6.888   0.855   4.033
 9646SOL    HW129282   6.802   0.824   4.075
 9646SOL    HW229283   6.884   0.841   3.934
 9647SOL     OW29284   7.345   1.747   4.878
 9647SOL    HW129285   7.406   1.777   4.805
 9647SOL    HW229286   7.307   1.658   4.856
 9648SOL     OW29287   6.838   1.731   4.852
 9648SOL    HW129288   6.922   1.736   4.798
 9648SOL    HW229289   6.815   1.635   4.870
 9649SOL     OW29290   5.669   1.258   4.746
 9649SOL    HW129291   5.664   1.257   4.846
 9649SOL    HW229292   5.586   1.217   4.708
 9650SOL     OW29293   6.274   1.662   5.440
 9650SOL    HW129294   6.218   1.743   5.449
 9650SOL    HW229295   6.326   1.666   5.354
 9651SOL     OW29296   7.312   0.135   4.247
 9651SOL    HW129297   7.385   0.118   4.180
 9651SOL    HW229298   7.281   0.048   4.285
 9652SOL     OW29299   6.974   1.573   4.201
 9652SOL    HW129300   7.041   1.585   4.127
 9652SOL    HW229301   6.934   1.662   4.224
 9653SOL     OW29302   5.716   1.794   5.575
 9653SOL    HW129303   5.675   1.720   5.628
 9653SOL    HW229304   5.780   1.845   5.633
 9654SOL     OW29305   6.866   0.927   4.396
 9654SOL    HW129306   6.926   0.846   4.398
 9654SOL    HW229307   6.906   0.996   4.336
 9655SOL     OW29308   6.416   1.273   5.146
 9655SOL    HW129309   6.411   1.306   5.241
 9655SOL    HW229310   6.330   1.292   5.100
 9656SOL     OW29311   6.258   1.616   3.878
 9656SOL    HW129312   6.267   1.626   3.779
 9656SOL    HW229313   6.218   1.527   3.899
 9657SOL     OW29314   7.236   1.720   5.118
 9657SOL    HW129315   7.289   1.730   5.034
 9657SOL    HW229316   7.209   1.810   5.152
 9658SOL     OW29317   6.780   1.612   3.755
 9658SOL    HW129318   6.786   1.519   3.792
 9658SOL    HW229319   6.721   1.612   3.675
 9659SOL     OW29320   6.408   1.002   5.096
 9659SOL    HW129321   6.448   1.001   5.004
 9659SOL    HW229322   6.418   1.094   5.136
 9660SOL     OW29323   6.502   0.910   4.015
 9660SOL    HW129324   6.565   0.948   3.947
 9660SOL    HW229325   6.542   0.827   4.054
 9661SOL     OW29326   7.090   1.607   3.768
 9661SOL    HW129327   6.998   1.644   3.775
 9661SOL    HW229328   7.128   1.627   3.678
 9662SOL     OW29329   5.958   1.288   5.214
 9662SOL    HW129330   5.945   1.381   5.180
 9662SOL    HW229331   5.874   1.236   5.201
 9663SOL     OW29332   7.200   1.292   5.013
 9663SOL    HW129333   7.260   1.295   5.093
 9663SOL    HW229334   7.125   1.356   5.026
 9664SOL     OW29335   6.625   1.098   4.420
 9664SOL    HW129336   6.555   1.051   4.474
 9664SOL    HW229337   6.684   1.030   4.377
 9665SOL     OW29338   6.176   1.487   4.215
 9665SOL    HW129339   6.218   1.429   4.145
 9665SOL    HW229340   6.132   1.566   4.171
 9666SOL     OW29341   7.295   0.385   5.105
 9666SOL    HW129342   7.368   0.454   5.109
 9666SOL    HW229343   7.323   0.310   5.046
 9667SOL     OW29344   5.841   1.348   4.014
 9667SOL    HW129345   5.745   1.349   3.987
 9667SOL    HW229346   5.853   1.401   4.098
 9668SOL     OW29347   5.691   1.013   5.450
 9668SOL    HW129348   5.614   0.980   5.504
 9668SOL    HW229349   5.776   0.983   5.492
 9669SOL     OW29350   7.026   0.856   5.122
 9669SOL    HW129351   6.969   0.908   5.059
 9669SOL    HW229352   7.122   0.868   5.098
 9670SOL     OW29353   6.769   1.335   3.843
 9670SOL    HW129354   6.670   1.324   3.845
 9670SOL    HW229355   6.803   1.350   3.936
 9671SOL     OW29356   6.199   0.842   5.155
 9671SOL    HW129357   6.255   0.923   5.138
 9671SOL    HW229358   6.258   0.762   5.158
 9672SOL     OW29359   7.079   1.767   4.683
 9672SOL    HW129360   7.112   1.831   4.614
 9672SOL    HW229361   7.145   1.761   4.758
 9673SOL     OW29362   6.302   0.565   5.432
 9673SOL    HW129363   6.321   0.630   5.506
 9673SOL    HW229364   6.362   0.485   5.441
 9674SOL     OW29365   7.036   1.220   5.357
 9674SOL    HW129366   7.027   1.210   5.456
 9674SOL    HW229367   7.132   1.213   5.331
 9675SOL     OW29368   5.976   1.741   5.284
 9675SOL    HW129369   5.885   1.782   5.282
 9675SOL    HW229370   5.969   1.647   5.316
 9676SOL     OW29371   7.260   0.883   4.978
 9676SOL    HW129372   7.233   0.794   4.941
 9676SOL    HW229373   7.261   0.951   4.905
 9677SOL     OW29374   6.180   0.745   4.376
 9677SOL    HW129375   6.230   0.830   4.357
 9677SOL    HW229376   6.092   0.747   4.328
 9678SOL     OW29377   7.316   0.934   5.241
 9678SOL    HW129378   7.354   1.025   5.256
 9678SOL    HW229379   7.308   0.917   5.142
 9679SOL     OW29380   6.445   1.374   3.740
 9679SOL    HW129381   6.399   1.389   3.828
 9679SOL    HW229382   6.489   1.459   3.710
 9680SOL     OW29383   6.247   1.790   4.677
 9680SOL    HW129384   6.201   1.878   4.664
 9680SOL    HW229385   6.346   1.802   4.670
 9681SOL     OW29386   6.445   0.956   4.585
 9681SOL    HW129387   6.499   0.887   4.633
 9681SOL    HW229388   6.413   1.025   4.651
 9682SOL     OW29389   6.669   0.984   3.811
 9682SOL    HW129390   6.646   1.037   3.729
 9682SOL    HW229391   6.750   0.928   3.792
 9683SOL     OW29392   7.447   1.569   4.575
 9683SOL    HW129393   7.376   1.557   4.505
 9683SOL    HW229394   7.448   1.490   4.635
 9684SOL     OW29395   5.807   1.314   5.568
 9684SOL    HW129396   5.742   1.241   5.547
 9684SOL    HW229397   5.811   1.328   5.666
 9685SOL     OW29398   5.665   1.240   4.377
 9685SOL    HW129399   5.664   1.193   4.465
 9685SOL    HW229400   5.747   1.212   4.326
 9686SOL     OW29401   6.258   1.391   5.348
 9686SOL    HW129402   6.180   1.341   5.386
 9686SOL    HW229403   6.255   1.486   5.379
 9687SOL     OW29404   6.014   0.424   4.244
 9687SOL    HW129405   6.044   0.352   4.182
 9687SOL    HW229406   5.975   0.384   4.327
 9688SOL     OW29407   7.291   1.487   4.828
 9688SOL    HW129408   7.198   1.462   4.801
 9688SOL    HW229409   7.317   1.437   4.910
 9689SOL     OW29410   5.903   0.547   5.004
 9689SOL    HW129411   5.941   0.488   5.076
 9689SOL    HW229412   5.943   0.521   4.916
 9690SOL     OW29413   6.398   1.586   4.411
 9690SOL    HW129414   6.430   1.596   4.317
 9690SOL    HW229415   6.319   1.524   4.413
 9691SOL     OW29416   6.356   1.330   4.025
 9691SOL    HW129417   6.310   1.243   4.042
 9691SOL    HW229418   6.447   1.327   4.066
 9692SOL     OW29419   6.204   1.567   5.008
 9692SOL    HW129420   6.199   1.649   5.065
 9692SOL    HW229421   6.293   1.564   4.963
 9693SOL     OW29422   6.886   0.453   4.415
 9693SOL    HW129423   6.827   0.533   4.419
 9693SOL    HW229424   6.901   0.418   4.508
 9694SOL     OW29425   5.625   1.077   4.024
 9694SOL    HW129426   5.724   1.066   4.015
 9694SOL    HW229427   5.585   0.991   4.056
 9695SOL     OW29428   6.461   1.646   4.061
 9695SOL    HW129429   6.384   1.611   4.007
 9695SOL    HW229430   6.429   1.717   4.123
 9696SOL     OW29431   5.816   0.628   5.699
 9696SOL    HW129432   5.723   0.626   5.736
 9696SOL    HW229433   5.817   0.589   5.607
 9697SOL     OW29434   7.141   1.511   6.289
 9697SOL    HW129435   7.084   1.495   6.370
 9697SOL    HW229436   7.082   1.521   6.209
 9698SOL     OW29437   6.721   0.703   6.303
 9698SOL    HW129438   6.778   0.781   6.278
 9698SOL    HW229439   6.661   0.729   6.379
 9699SOL     OW29440   7.341   0.607   5.817
 9699SOL    HW129441   7.329   0.594   5.718
 9699SOL    HW229442   7.311   0.526   5.866
 9700SOL     OW29443   6.271   1.012   6.251
 9700SOL    HW129444   6.340   0.996   6.321
 9700SOL    HW229445   6.198   1.069   6.289
 9701SOL     OW29446   5.817   1.713   6.069
 9701SOL    HW129447   5.851   1.790   6.123
 9701SOL    HW229448   5.861   1.713   5.979
 9702SOL     OW29449   5.816   1.434   6.124
 9702SOL    HW129450   5.790   1.530   6.124
 9702SOL    HW229451   5.745   1.380   6.169
 9703SOL     OW29452   6.192   0.964   5.709
 9703SOL    HW129453   6.199   1.048   5.655
 9703SOL    HW229454   6.238   0.977   5.797
 9704SOL     OW29455   5.708   0.643   6.149
 9704SOL    HW129456   5.663   0.555   6.166
 9704SOL    HW229457   5.707   0.697   6.233
 9705SOL     OW29458   7.428   1.767   5.945
 9705SOL    HW129459   7.482   1.738   6.025
 9705SOL    HW229460   7.458   1.857   5.916
 9706SOL     OW29461   5.613   1.596   5.703
 9706SOL    HW129462   5.594   1.500   5.724
 9706SOL    HW229463   5.580   1.654   5.778
 9707SOL     OW29464   7.275   0.922   6.198
 9707SOL    HW129465   7.370   0.893   6.206
 9707SOL    HW229466   7.267   0.987   6.123
 9708SOL     OW29467   7.227   1.108   6.018
 9708SOL    HW129468   7.313   1.110   5.966
 9708SOL    HW229469   7.241   1.155   6.106
 9709SOL     OW29470   6.199   1.365   6.312
 9709SOL    HW129471   6.150   1.278   6.321
 9709SOL    HW229472   6.176   1.408   6.225
 9710SOL     OW29473   7.111   0.999   5.776
 9710SOL    HW129474   7.048   0.923   5.789
 9710SOL    HW229475   7.159   1.017   5.862
 9711SOL     OW29476   7.253   1.714   6.158
 9711SOL    HW129477   7.212   1.691   6.070
 9711SOL    HW229478   7.235   1.640   6.223
 9712SOL     OW29479   6.184   0.729   5.856
 9712SOL    HW129480   6.208   0.798   5.788
 9712SOL    HW229481   6.106   0.762   5.910
 9713SOL     OW29482   6.867   0.345   6.530
 9713SOL    HW129483   6.781   0.295   6.517
 9713SOL    HW229484   6.929   0.291   6.586
 9714SOL     OW29485   7.162   1.662   5.893
 9714SOL    HW129486   7.251   1.708   5.896
 9714SOL    HW229487   7.141   1.638   5.798
 9715SOL     OW29488   6.577   0.410   6.828
 9715SOL    HW129489   6.500   0.444   6.882
 9715SOL    HW229490   6.543   0.359   6.749
 9716SOL     OW29491   6.627   0.701   6.015
 9716SOL    HW129492   6.653   0.697   6.111
 9716SOL    HW229493   6.542   0.650   6.001
 9717SOL     OW29494   6.451   0.348   5.781
 9717SOL    HW129495   6.510   0.411   5.732
 9717SOL    HW229496   6.470   0.254   5.752
 9718SOL     OW29497   6.948   1.144   6.131
 9718SOL    HW129498   7.031   1.115   6.083
 9718SOL    HW229499   6.899   1.211   6.075
 9719SOL     OW29500   6.136   0.196   6.471
 9719SOL    HW129501   6.131   0.191   6.571
 9719SOL    HW229502   6.138   0.292   6.442
 9720SOL     OW29503   6.594   1.456   6.063
 9720SOL    HW129504   6.548   1.528   6.011
 9720SOL    HW229505   6.590   1.476   6.161
 9721SOL     OW29506   5.937   1.801   6.439
 9721SOL    HW129507   5.987   1.715   6.445
 9721SOL    HW229508   6.002   1.878   6.436
 9722SOL     OW29509   5.907   0.943   5.828
 9722SOL    HW129510   5.989   0.982   5.786
 9722SOL    HW229511   5.880   0.861   5.779
 9723SOL     OW29512   7.044   0.735   6.314
 9723SOL    HW129513   7.039   0.670   6.389
 9723SOL    HW229514   7.124   0.794   6.327
 9724SOL     OW29515   6.697   1.776   5.823
 9724SOL    HW129516   6.637   1.714   5.873
 9724SOL    HW229517   6.728   1.732   5.738
 9725SOL     OW29518   7.218   1.377   5.667
 9725SOL    HW129519   7.186   1.471   5.657
 9725SOL    HW229520   7.142   1.314   5.655
 9726SOL     OW29521   6.050   1.743   5.909
 9726SOL    HW129522   6.083   1.782   5.995
 9726SOL    HW229523   6.126   1.736   5.844
 9727SOL     OW29524   6.526   1.698   6.490
 9727SOL    HW129525   6.606   1.641   6.511
 9727SOL    HW229526   6.477   1.658   6.413
 9728SOL     OW29527   5.968   0.700   6.066
 9728SOL    HW129528   6.013   0.610   6.063
 9728SOL    HW229529   5.874   0.689   6.099
 9729SOL     OW29530   6.389   1.402   6.510
 9729SOL    HW129531   6.479   1.416   6.468
 9729SOL    HW229532   6.318   1.404   6.439
 9730SOL     OW29533   7.020   1.188   5.627
 9730SOL    HW129534   7.052   1.112   5.684
 9730SOL    HW229535   6.928   1.215   5.657
 9731SOL     OW29536   6.813   1.570   6.379
 9731SOL    HW129537   6.834   1.644   6.314
 9731SOL    HW229538   6.881   1.570   6.452
 9732SOL     OW29539   6.045   1.152   6.327
 9732SOL    HW129540   5.974   1.125   6.392
 9732SOL    HW229541   6.019   1.124   6.234
 9733SOL     OW29542   6.857   1.797   6.177
 9733SOL    HW129543   6.901   1.861   6.113
 9733SOL    HW229544   6.807   1.849   6.247
 9734SOL     OW29545   6.618   0.549   5.602
 9734SOL    HW129546   6.577   0.631   5.563
 9734SOL    HW229547   6.682   0.575   5.675
 9735SOL     OW29548   6.147   0.222   6.733
 9735SOL    HW129549   6.185   0.138   6.770
 9735SOL    HW229550   6.059   0.241   6.777
 9736SOL     OW29551   6.452   0.454   6.228
 9736SOL    HW129552   6.420   0.526   6.166
 9736SOL    HW229553   6.476   0.373   6.175
 9737SOL     OW29554   6.603   0.039   6.339
 9737SOL    HW129555   6.531   0.044   6.270
 9737SOL    HW229556   6.579  -0.030   6.408
 9738SOL     OW29557   7.015   1.173   6.453
 9738SOL    HW129558   6.960   1.089   6.446
 9738SOL    HW229559   7.041   1.202   6.361
 9739SOL     OW29560   7.052   0.590   6.578
 9739SOL    HW129561   7.022   0.495   6.585
 9739SOL    HW229562   7.125   0.606   6.644
 9740SOL     OW29563   7.443   0.833   5.963
 9740SOL    HW129564   7.485   0.769   6.027
 9740SOL    HW229565   7.405   0.782   5.885
 9741SOL     OW29566   6.074   1.385   5.760
 9741SOL    HW129567   5.987   1.370   5.807
 9741SOL    HW229568   6.057   1.411   5.665
 9742SOL     OW29569   7.250   1.280   6.243
 9742SOL    HW129570   7.349   1.288   6.257
 9742SOL    HW229571   7.205   1.364   6.274
 9743SOL     OW29572   6.976   0.575   5.664
 9743SOL    HW129573   6.922   0.554   5.745
 9743SOL    HW229574   7.067   0.534   5.673
 9744SOL     OW29575   7.224   1.099   6.665
 9744SOL    HW129576   7.229   1.180   6.724
 9744SOL    HW229577   7.138   1.101   6.614
 9745SOL     OW29578   6.291   1.050   5.954
 9745SOL    HW129579   6.277   1.057   6.053
 9745SOL    HW229580   6.375   0.999   5.936
 9746SOL     OW29581   5.953   1.100   6.087
 9746SOL    HW129582   5.946   1.183   6.031
 9746SOL    HW229583   5.957   1.020   6.027
 9747SOL     OW29584   6.152   0.537   6.451
 9747SOL    HW129585   6.164   0.603   6.377
 9747SOL    HW229586   6.198   0.571   6.534
 9748SOL     OW29587   6.838   1.348   5.974
 9748SOL    HW129588   6.888   1.425   6.014
 9748SOL    HW229589   6.743   1.350   6.006
 9749SOL     OW29590   7.168   0.639   6.058
 9749SOL    HW129591   7.137   0.700   6.131
 9749SOL    HW229592   7.218   0.691   5.989
 9750SOL     OW29593   6.795   0.525   5.861
 9750SOL    HW129594   6.808   0.441   5.915
 9750SOL    HW229595   6.766   0.599   5.921
 9751SOL     OW29596   7.208   0.367   5.960
 9751SOL    HW129597   7.210   0.291   6.024
 9751SOL    HW229598   7.160   0.444   6.000
 9752SOL     OW29599   6.889   0.838   5.628
 9752SOL    HW129600   6.923   0.745   5.643
 9752SOL    HW229601   6.907   0.865   5.533
 9753SOL     OW29602   6.654   1.333   6.435
 9753SOL    HW129603   6.661   1.249   6.380
 9753SOL    HW229604   6.716   1.402   6.399
 9754SOL     OW29605   5.594   1.326   5.786
 9754SOL    HW129606   5.501   1.347   5.755
 9754SOL    HW229607   5.604   1.227   5.799
 9755SOL     OW29608   5.674   1.801   6.513
 9755SOL    HW129609   5.632   1.715   6.486
 9755SOL    HW229610   5.768   1.804   6.479
 9756SOL     OW29611   6.401   0.572   5.911
 9756SOL    HW129612   6.408   0.483   5.865
 9756SOL    HW229613   6.307   0.606   5.903
 9757SOL     OW29614   6.059   0.500   5.777
 9757SOL    HW129615   6.120   0.580   5.781
 9757SOL    HW229616   5.964   0.531   5.784
 9758SOL     OW29617   6.888   0.855   5.895
 9758SOL    HW129618   6.802   0.824   5.937
 9758SOL    HW229619   6.884   0.841   5.796
 9759SOL     OW29620   7.312   0.135   6.109
 9759SOL    HW129621   7.385   0.118   6.042
 9759SOL    HW229622   7.281   0.048   6.147
 9760SOL     OW29623   6.974   1.573   6.063
 9760SOL    HW129624   7.041   1.585   5.989
 9760SOL    HW229625   6.934   1.662   6.086
 9761SOL     OW29626   6.866   0.927   6.258
 9761SOL    HW129627   6.926   0.846   6.260
 9761SOL    HW229628   6.906   0.996   6.198
 9762SOL     OW29629   6.258   1.616   5.740
 9762SOL    HW129630   6.267   1.626   5.641
 9762SOL    HW229631   6.218   1.527   5.761
 9763SOL     OW29632   6.780   1.612   5.617
 9763SOL    HW129633   6.786   1.519   5.654
 9763SOL    HW229634   6.721   1.612   5.537
 9764SOL     OW29635   6.502   0.910   5.877
 9764SOL    HW129636   6.565   0.948   5.809
 9764SOL    HW229637   6.542   0.827   5.916
 9765SOL     OW29638   7.090   1.607   5.630
 9765SOL    HW129639   6.998   1.644   5.637
 9765SOL    HW229640   7.128   1.627   5.540
 9766SOL     OW29641   6.625   1.098   6.282
 9766SOL    HW129642   6.555   1.051   6.336
 9766SOL    HW229643   6.684   1.030   6.239
 9767SOL     OW29644   6.176   1.487   6.077
 9767SOL    HW129645   6.218   1.429   6.007
 9767SOL    HW229646   6.132   1.566   6.033
 9768SOL     OW29647   5.841   1.348   5.876
 9768SOL    HW129648   5.745   1.349   5.849
 9768SOL    HW229649   5.853   1.401   5.960
 9769SOL     OW29650   6.769   1.335   5.705
 9769SOL    HW129651   6.670   1.324   5.707
 9769SOL    HW229652   6.803   1.350   5.798
 9770SOL     OW29653   7.079   1.767   6.545
 9770SOL    HW129654   7.112   1.831   6.476
 9770SOL    HW229655   7.145   1.761   6.620
 9771SOL     OW29656   6.180   0.745   6.238
 9771SOL    HW129657   6.230   0.830   6.219
 9771SOL    HW229658   6.092   0.747   6.190
 9772SOL     OW29659   6.445   1.374   5.602
 9772SOL    HW129660   6.399   1.389   5.690
 9772SOL    HW229661   6.489   1.459   5.572
 9773SOL     OW29662   6.247   1.790   6.539
 9773SOL    HW129663   6.201   1.878   6.526
 9773SOL    HW229664   6.346   1.802   6.532
 9774SOL     OW29665   6.445   0.956   6.447
 9774SOL    HW129666   6.499   0.887   6.495
 9774SOL    HW229667   6.413   1.025   6.513
 9775SOL     OW29668   6.669   0.984   5.673
 9775SOL    HW129669   6.646   1.037   5.591
 9775SOL    HW229670   6.750   0.928   5.654
 9776SOL     OW29671   5.665   1.240   6.239
 9776SOL    HW129672   5.664   1.193   6.327
 9776SOL    HW229673   5.747   1.212   6.188
 9777SOL     OW29674   6.014   0.424   6.106
 9777SOL    HW129675   6.044   0.352   6.044
 9777SOL    HW229676   5.975   0.384   6.189
 9778SOL     OW29677   6.398   1.586   6.273
 9778SOL    HW129678   6.430   1.596   6.179
 9778SOL    HW229679   6.319   1.524   6.275
 9779SOL     OW29680   6.356   1.330   5.887
 9779SOL    HW129681   6.310   1.243   5.904
 9779SOL    HW229682   6.447   1.327   5.928
 9780SOL     OW29683   6.886   0.453   6.277
 9780SOL    HW129684   6.827   0.533   6.281
 9780SOL    HW229685   6.901   0.418   6.370
 9781SOL     OW29686   5.625   1.077   5.886
 9781SOL    HW129687   5.724   1.066   5.877
 9781SOL    HW229688   5.585   0.991   5.918
 9782SOL     OW29689   6.461   1.646   5.923
 9782SOL    HW129690   6.384   1.611   5.869
 9782SOL    HW229691   6.429   1.717   5.985
 9783SOL     OW29692   5.811   2.137   0.996
 9783SOL    HW129693   5.846   2.120   1.088
 9783SOL    HW229694   5.723   2.092   0.984
 9784SOL     OW29695   5.605   2.230   0.647
 9784SOL    HW129696   5.523   2.273   0.686
 9784SOL    HW229697   5.577   2.157   0.584
 9785SOL     OW29698   6.155   3.137   1.165
 9785SOL    HW129699   6.062   3.130   1.128
 9785SOL    HW229700   6.166   3.226   1.209
 9786SOL     OW29701   7.141   3.373   0.703
 9786SOL    HW129702   7.084   3.357   0.784
 9786SOL    HW229703   7.082   3.383   0.623
 9787SOL     OW29704   6.721   2.565   0.717
 9787SOL    HW129705   6.778   2.643   0.692
 9787SOL    HW229706   6.661   2.591   0.793
 9788SOL     OW29707   6.354   3.006   1.023
 9788SOL    HW129708   6.276   3.023   1.083
 9788SOL    HW229709   6.388   3.093   0.987
 9789SOL     OW29710   6.436   2.660   1.823
 9789SOL    HW129711   6.432   2.736   1.888
 9789SOL    HW229712   6.458   2.696   1.732
 9790SOL     OW29713   6.271   2.874   0.665
 9790SOL    HW129714   6.340   2.858   0.735
 9790SOL    HW229715   6.198   2.931   0.703
 9791SOL     OW29716   6.272   3.023   1.803
 9791SOL    HW129717   6.332   3.102   1.817
 9791SOL    HW229718   6.186   3.054   1.762
 9792SOL     OW29719   5.921   3.297   1.061
 9792SOL    HW129720   5.843   3.266   1.008
 9792SOL    HW229721   5.979   3.355   1.004
 9793SOL     OW29722   7.046   3.367   1.339
 9793SOL    HW129723   7.070   3.461   1.365
 9793SOL    HW229724   7.030   3.313   1.421
 9794SOL     OW29725   6.024   2.254   1.499
 9794SOL    HW129726   6.106   2.198   1.508
 9794SOL    HW229727   5.943   2.196   1.503
 9795SOL     OW29728   7.189   2.309   0.737
 9795SOL    HW129729   7.115   2.355   0.687
 9795SOL    HW229730   7.240   2.377   0.790
 9796SOL     OW29731   5.817   3.575   0.483
 9796SOL    HW129732   5.851   3.652   0.537
 9796SOL    HW229733   5.861   3.575   0.393
 9797SOL     OW29734   6.713   3.203   1.690
 9797SOL    HW129735   6.760   3.203   1.778
 9797SOL    HW229736   6.665   3.116   1.679
 9798SOL     OW29737   5.816   3.296   0.538
 9798SOL    HW129738   5.790   3.392   0.538
 9798SOL    HW229739   5.745   3.242   0.583
 9799SOL     OW29740   5.826   2.953   0.886
 9799SOL    HW129741   5.840   2.869   0.938
 9799SOL    HW229742   5.771   3.017   0.941
 9800SOL     OW29743   6.206   3.648   1.439
 9800SOL    HW129744   6.114   3.631   1.474
 9800SOL    HW229745   6.234   3.740   1.465
 9801SOL     OW29746   7.180   1.976   1.480
 9801SOL    HW129747   7.162   2.043   1.408
 9801SOL    HW229748   7.177   2.022   1.569
 9802SOL     OW29749   5.708   2.505   0.563
 9802SOL    HW129750   5.663   2.417   0.580
 9802SOL    HW229751   5.707   2.559   0.647
 9803SOL     OW29752   7.275   2.784   0.612
 9803SOL    HW129753   7.370   2.755   0.620
 9803SOL    HW229754   7.267   2.849   0.537
 9804SOL     OW29755   7.227   2.970   0.432
 9804SOL    HW129756   7.313   2.972   0.380
 9804SOL    HW229757   7.241   3.017   0.520
 9805SOL     OW29758   5.699   2.599   1.597
 9805SOL    HW129759   5.787   2.586   1.642
 9805SOL    HW229760   5.686   2.696   1.575
 9806SOL     OW29761   6.199   3.227   0.726
 9806SOL    HW129762   6.150   3.140   0.735
 9806SOL    HW229763   6.176   3.270   0.639
 9807SOL     OW29764   6.879   3.090   1.423
 9807SOL    HW129765   6.916   3.017   1.365
 9807SOL    HW229766   6.931   3.095   1.508
 9808SOL     OW29767   6.395   1.866   0.502
 9808SOL    HW129768   6.435   1.957   0.493
 9808SOL    HW229769   6.295   1.874   0.508
 9809SOL     OW29770   5.783   2.838   1.264
 9809SOL    HW129771   5.872   2.793   1.250
 9809SOL    HW229772   5.710   2.773   1.245
 9810SOL     OW29773   6.773   3.654   1.616
 9810SOL    HW129774   6.797   3.714   1.540
 9810SOL    HW229775   6.780   3.559   1.586
 9811SOL     OW29776   5.903   2.113   1.801
 9811SOL    HW129777   5.974   2.184   1.807
 9811SOL    HW229778   5.815   2.152   1.829
 9812SOL     OW29779   7.052   3.279   0.953
 9812SOL    HW129780   6.993   3.285   1.033
 9812SOL    HW229781   7.037   3.191   0.907
 9813SOL     OW29782   7.253   3.576   0.572
 9813SOL    HW129783   7.212   3.553   0.484
 9813SOL    HW229784   7.235   3.502   0.637
 9814SOL     OW29785   6.867   2.207   0.944
 9814SOL    HW129786   6.781   2.157   0.931
 9814SOL    HW229787   6.929   2.153   1.000
 9815SOL     OW29788   7.162   3.524   0.307
 9815SOL    HW129789   7.251   3.570   0.310
 9815SOL    HW229790   7.141   3.500   0.212
 9816SOL     OW29791   6.393   2.467   1.465
 9816SOL    HW129792   6.346   2.464   1.554
 9816SOL    HW229793   6.342   2.412   1.399
 9817SOL     OW29794   6.980   2.331   1.674
 9817SOL    HW129795   6.960   2.374   1.762
 9817SOL    HW229796   7.058   2.269   1.683
 9818SOL     OW29797   6.559   2.752   1.572
 9818SOL    HW129798   6.605   2.668   1.543
 9818SOL    HW229799   6.503   2.786   1.497
 9819SOL     OW29800   6.577   2.272   1.242
 9819SOL    HW129801   6.500   2.306   1.296
 9819SOL    HW229802   6.543   2.221   1.163
 9820SOL     OW29803   6.627   2.563   0.429
 9820SOL    HW129804   6.653   2.559   0.525
 9820SOL    HW229805   6.542   2.512   0.415
 9821SOL     OW29806   5.662   2.673   0.789
 9821SOL    HW129807   5.761   2.661   0.798
 9821SOL    HW229808   5.638   2.768   0.810
 9822SOL     OW29809   5.716   3.683   1.571
 9822SOL    HW129810   5.706   3.668   1.670
 9822SOL    HW229811   5.630   3.719   1.535
 9823SOL     OW29812   7.305   2.447   1.831
 9823SOL    HW129813   7.279   2.536   1.795
 9823SOL    HW229814   7.303   2.379   1.758
 9824SOL     OW29815   6.948   3.006   0.545
 9824SOL    HW129816   7.031   2.977   0.497
 9824SOL    HW229817   6.899   3.073   0.489
 9825SOL     OW29818   6.136   2.058   0.885
 9825SOL    HW129819   6.131   2.053   0.985
 9825SOL    HW229820   6.138   2.154   0.856
 9826SOL     OW29821   6.594   3.318   0.477
 9826SOL    HW129822   6.548   3.390   0.425
 9826SOL    HW229823   6.590   3.338   0.575
 9827SOL     OW29824   5.937   3.663   0.853
 9827SOL    HW129825   5.987   3.577   0.859
 9827SOL    HW229826   6.002   3.740   0.850
 9828SOL     OW29827   7.381   2.928   0.873
 9828SOL    HW129828   7.319   2.913   0.797
 9828SOL    HW229829   7.329   2.939   0.958
 9829SOL     OW29830   6.813   3.412   1.506
 9829SOL    HW129831   6.819   3.335   1.570
 9829SOL    HW229832   6.761   3.386   1.426
 9830SOL     OW29833   7.044   2.597   0.728
 9830SOL    HW129834   7.039   2.532   0.803
 9830SOL    HW229835   7.124   2.656   0.741
 9831SOL     OW29836   6.047   3.128   1.727
 9831SOL    HW129837   5.997   3.129   1.641
 9831SOL    HW229838   5.984   3.110   1.803
 9832SOL     OW29839   5.788   2.147   1.498
 9832SOL    HW129840   5.708   2.207   1.485
 9832SOL    HW229841   5.778   2.098   1.584
 9833SOL     OW29842   6.050   3.605   0.323
 9833SOL    HW129843   6.083   3.644   0.409
 9833SOL    HW229844   6.126   3.598   0.258
 9834SOL     OW29845   5.835   3.647   1.241
 9834SOL    HW129846   5.892   3.582   1.291
 9834SOL    HW229847   5.819   3.614   1.148
 9835SOL     OW29848   6.526   3.560   0.904
 9835SOL    HW129849   6.606   3.503   0.925
 9835SOL    HW229850   6.477   3.520   0.827
 9836SOL     OW29851   5.968   2.562   0.480
 9836SOL    HW129852   6.013   2.472   0.477
 9836SOL    HW229853   5.874   2.551   0.513
 9837SOL     OW29854   7.133   2.084   1.729
 9837SOL    HW129855   7.128   2.121   1.821
 9837SOL    HW229856   7.061   2.015   1.717
 9838SOL     OW29857   6.367   2.126   1.749
 9838SOL    HW129858   6.434   2.065   1.792
 9838SOL    HW229859   6.294   2.145   1.814
 9839SOL     OW29860   6.474   3.376   1.195
 9839SOL    HW129861   6.451   3.351   1.101
 9839SOL    HW229862   6.535   3.307   1.234
 9840SOL     OW29863   6.937   2.452   1.433
 9840SOL    HW129864   6.965   2.409   1.518
 9840SOL    HW229865   6.962   2.548   1.434
 9841SOL     OW29866   6.389   3.264   0.924
 9841SOL    HW129867   6.479   3.278   0.882
 9841SOL    HW229868   6.318   3.266   0.853
 9842SOL     OW29869   6.508   2.365   0.899
 9842SOL    HW129870   6.483   2.356   0.803
 9842SOL    HW229871   6.556   2.283   0.930
 9843SOL     OW29872   6.125   1.926   0.512
 9843SOL    HW129873   6.044   1.927   0.570
 9843SOL    HW229874   6.128   2.009   0.457
 9844SOL     OW29875   6.521   2.098   0.480
 9844SOL    HW129876   6.473   2.139   0.402
 9844SOL    HW229877   6.620   2.096   0.461
 9845SOL     OW29878   6.662   2.545   1.464
 9845SOL    HW129879   6.582   2.484   1.467
 9845SOL    HW229880   6.743   2.492   1.440
 9846SOL     OW29881   6.813   3.432   0.793
 9846SOL    HW129882   6.834   3.506   0.728
 9846SOL    HW229883   6.881   3.432   0.866
 9847SOL     OW29884   6.045   3.014   0.741
 9847SOL    HW129885   5.974   2.987   0.806
 9847SOL    HW229886   6.019   2.986   0.648
 9848SOL     OW29887   6.857   3.659   0.591
 9848SOL    HW129888   6.901   3.723   0.527
 9848SOL    HW229889   6.807   3.711   0.661
 9849SOL     OW29890   5.664   2.418   1.386
 9849SOL    HW129891   5.756   2.417   1.345
 9849SOL    HW229892   5.658   2.492   1.453
 9850SOL     OW29893   6.147   2.084   1.147
 9850SOL    HW129894   6.185   2.000   1.184
 9850SOL    HW229895   6.059   2.103   1.191
 9851SOL     OW29896   6.452   2.316   0.642
 9851SOL    HW129897   6.420   2.388   0.580
 9851SOL    HW229898   6.476   2.235   0.589
 9852SOL     OW29899   6.603   1.901   0.753
 9852SOL    HW129900   6.531   1.906   0.684
 9852SOL    HW229901   6.579   1.832   0.822
 9853SOL     OW29902   7.015   3.035   0.867
 9853SOL    HW129903   6.960   2.951   0.860
 9853SOL    HW229904   7.041   3.064   0.775
 9854SOL     OW29905   7.052   2.452   0.992
 9854SOL    HW129906   7.022   2.357   0.999
 9854SOL    HW229907   7.125   2.468   1.058
 9855SOL     OW29908   7.443   2.695   0.377
 9855SOL    HW129909   7.485   2.631   0.441
 9855SOL    HW229910   7.405   2.644   0.299
 9856SOL     OW29911   7.250   3.142   0.657
 9856SOL    HW129912   7.349   3.150   0.671
 9856SOL    HW229913   7.205   3.226   0.688
 9857SOL     OW29914   6.113   2.118   0.328
 9857SOL    HW129915   6.140   2.059   0.253
 9857SOL    HW229916   6.113   2.213   0.297
 9858SOL     OW29917   7.340   3.085   1.588
 9858SOL    HW129918   7.431   3.046   1.575
 9858SOL    HW229919   7.348   3.181   1.612
 9859SOL     OW29920   6.650   3.209   1.340
 9859SOL    HW129921   6.570   3.186   1.395
 9859SOL    HW229922   6.733   3.183   1.389
 9860SOL     OW29923   7.178   3.491   1.625
 9860SOL    HW129924   7.205   3.525   1.535
 9860SOL    HW229925   7.257   3.453   1.671
 9861SOL     OW29926   6.697   3.057   1.100
 9861SOL    HW129927   6.657   3.101   1.181
 9861SOL    HW229928   6.656   3.094   1.017
 9862SOL     OW29929   7.224   2.961   1.079
 9862SOL    HW129930   7.229   3.042   1.138
 9862SOL    HW229931   7.138   2.963   1.028
 9863SOL     OW29932   6.501   1.951   1.402
 9863SOL    HW129933   6.526   1.931   1.307
 9863SOL    HW229934   6.573   2.007   1.444
 9864SOL     OW29935   6.566   2.978   1.719
 9864SOL    HW129936   6.467   2.984   1.729
 9864SOL    HW229937   6.589   2.898   1.663
 9865SOL     OW29938   6.291   2.912   0.368
 9865SOL    HW129939   6.277   2.919   0.467
 9865SOL    HW229940   6.375   2.861   0.350
 9866SOL     OW29941   5.996   2.675   1.251
 9866SOL    HW129942   6.082   2.687   1.301
 9866SOL    HW229943   5.954   2.588   1.278
 9867SOL     OW29944   6.860   2.248   1.262
 9867SOL    HW129945   6.881   2.322   1.326
 9867SOL    HW229946   6.771   2.265   1.219
 9868SOL     OW29947   5.650   3.426   1.331
 9868SOL    HW129948   5.604   3.508   1.297
 9868SOL    HW229949   5.748   3.445   1.340
 9869SOL     OW29950   5.953   2.962   0.501
 9869SOL    HW129951   5.946   3.045   0.445
 9869SOL    HW229952   5.957   2.882   0.441
 9870SOL     OW29953   6.152   2.399   0.865
 9870SOL    HW129954   6.164   2.465   0.791
 9870SOL    HW229955   6.198   2.433   0.948
 9871SOL     OW29956   6.838   3.210   0.388
 9871SOL    HW129957   6.888   3.287   0.428
 9871SOL    HW229958   6.743   3.212   0.420
 9872SOL     OW29959   6.858   3.307   1.142
 9872SOL    HW129960   6.905   3.320   1.229
 9872SOL    HW229961   6.792   3.233   1.151
 9873SOL     OW29962   7.168   2.501   0.472
 9873SOL    HW129963   7.137   2.562   0.545
 9873SOL    HW229964   7.218   2.553   0.403
 9874SOL     OW29965   5.940   3.372   1.329
 9874SOL    HW129966   5.919   3.328   1.242
 9874SOL    HW229967   6.037   3.398   1.332
 9875SOL     OW29968   5.988   2.613   1.598
 9875SOL    HW129969   6.056   2.668   1.551
 9875SOL    HW229970   6.028   2.525   1.625
 9876SOL     OW29971   7.173   2.641   1.670
 9876SOL    HW129972   7.081   2.679   1.665
 9876SOL    HW229973   7.233   2.688   1.605
 9877SOL     OW29974   6.599   1.967   1.770
 9877SOL    HW129975   6.605   2.052   1.718
 9877SOL    HW229976   6.631   1.891   1.713
 9878SOL     OW29977   6.090   1.912   1.740
 9878SOL    HW129978   6.048   1.855   1.670
 9878SOL    HW229979   6.024   1.981   1.772
 9879SOL     OW29980   6.159   2.732   1.029
 9879SOL    HW129981   6.203   2.821   1.020
 9879SOL    HW229982   6.096   2.732   1.106
 9880SOL     OW29983   6.946   2.724   1.045
 9880SOL    HW129984   6.871   2.724   0.979
 9880SOL    HW229985   6.983   2.632   1.054
 9881SOL     OW29986   5.893   2.075   1.231
 9881SOL    HW129987   5.870   2.112   1.321
 9881SOL    HW229988   5.863   1.980   1.225
 9882SOL     OW29989   5.623   3.172   1.282
 9882SOL    HW129990   5.676   3.123   1.350
 9882SOL    HW229991   5.645   3.270   1.287
 9883SOL     OW29992   6.318   2.496   1.064
 9883SOL    HW129993   6.377   2.470   0.988
 9883SOL    HW229994   6.290   2.592   1.053
 9884SOL     OW29995   7.314   2.797   1.854
 9884SOL    HW129996   7.268   2.790   1.765
 9884SOL    HW229997   7.252   2.841   1.920
 9885SOL     OW29998   5.893   1.925   0.618
 9885SOL    HW129999   5.882   2.019   0.651
 9885SOL    HW230000   5.888   1.862   0.695
 9886SOL     OW30001   6.609   2.628   0.966
 9886SOL    HW130002   6.624   2.649   1.062
 9886SOL    HW230003   6.579   2.533   0.957
 9887SOL     OW30004   6.566   3.435   1.700
 9887SOL    HW130005   6.546   3.479   1.612
 9887SOL    HW230006   6.605   3.344   1.684
 9888SOL     OW30007   7.445   3.380   1.605
 9888SOL    HW130008   7.459   3.407   1.510
 9888SOL    HW230009   7.528   3.402   1.658
 9889SOL     OW30010   5.936   2.760   1.804
 9889SOL    HW130011   6.012   2.804   1.852
 9889SOL    HW230012   5.971   2.713   1.722
 9890SOL     OW30013   6.654   3.195   0.849
 9890SOL    HW130014   6.661   3.111   0.794
 9890SOL    HW230015   6.716   3.264   0.813
 9891SOL     OW30016   5.905   2.672   0.949
 9891SOL    HW130017   5.998   2.708   0.954
 9891SOL    HW230018   5.899   2.587   1.001
 9892SOL     OW30019   5.925   2.371   1.006
 9892SOL    HW130020   5.873   2.288   0.989
 9892SOL    HW230021   6.002   2.376   0.942
 9893SOL     OW30022   6.724   2.242   1.678
 9893SOL    HW130023   6.679   2.305   1.742
 9893SOL    HW230024   6.817   2.273   1.661
 9894SOL     OW30025   6.746   2.069   1.477
 9894SOL    HW130026   6.746   2.133   1.554
 9894SOL    HW230027   6.774   2.117   1.394
 9895SOL     OW30028   5.674   3.663   0.927
 9895SOL    HW130029   5.632   3.577   0.900
 9895SOL    HW230030   5.768   3.666   0.893
 9896SOL     OW30031   6.090   3.430   0.910
 9896SOL    HW130032   6.156   3.504   0.919
 9896SOL    HW230033   6.134   3.351   0.868
 9897SOL     OW30034   6.588   2.658   1.238
 9897SOL    HW130035   6.629   2.626   1.324
 9897SOL    HW230036   6.492   2.631   1.235
 9898SOL     OW30037   5.626   2.406   1.114
 9898SOL    HW130038   5.711   2.373   1.073
 9898SOL    HW230039   5.639   2.421   1.212
 9899SOL     OW30040   5.775   2.382   1.722
 9899SOL    HW130041   5.834   2.342   1.652
 9899SOL    HW230042   5.717   2.453   1.681
 9900SOL     OW30043   6.955   2.812   1.660
 9900SOL    HW130044   6.994   2.901   1.680
 9900SOL    HW230045   6.965   2.792   1.563
 9901SOL     OW30046   7.243   2.466   1.206
 9901SOL    HW130047   7.205   2.397   1.268
 9901SOL    HW230048   7.325   2.430   1.162
 9902SOL     OW30049   5.838   3.426   1.744
 9902SOL    HW130050   5.808   3.483   1.820
 9902SOL    HW230051   5.831   3.329   1.770
 9903SOL     OW30052   6.257   2.326   1.269
 9903SOL    HW130053   6.223   2.237   1.239
 9903SOL    HW230054   6.283   2.380   1.189
 9904SOL     OW30055   6.516   3.540   1.465
 9904SOL    HW130056   6.492   3.522   1.370
 9904SOL    HW230057   6.546   3.634   1.475
 9905SOL     OW30058   5.745   2.999   1.466
 9905SOL    HW130059   5.767   2.938   1.542
 9905SOL    HW230060   5.755   2.950   1.380
 9906SOL     OW30061   6.933   2.921   1.234
 9906SOL    HW130062   6.957   2.858   1.160
 9906SOL    HW230063   6.843   2.961   1.216
 9907SOL     OW30064   7.345   3.609   1.154
 9907SOL    HW130065   7.406   3.639   1.081
 9907SOL    HW230066   7.307   3.520   1.132
 9908SOL     OW30067   6.838   3.593   1.128
 9908SOL    HW130068   6.922   3.598   1.074
 9908SOL    HW230069   6.815   3.497   1.146
 9909SOL     OW30070   5.669   3.120   1.022
 9909SOL    HW130071   5.664   3.119   1.122
 9909SOL    HW230072   5.586   3.079   0.984
 9910SOL     OW30073   6.274   3.524   1.716
 9910SOL    HW130074   6.218   3.605   1.725
 9910SOL    HW230075   6.326   3.528   1.630
 9911SOL     OW30076   7.312   1.997   0.523
 9911SOL    HW130077   7.385   1.980   0.456
 9911SOL    HW230078   7.281   1.910   0.561
 9912SOL     OW30079   6.974   3.435   0.477
 9912SOL    HW130080   7.041   3.447   0.403
 9912SOL    HW230081   6.934   3.524   0.500
 9913SOL     OW30082   5.716   3.656   1.851
 9913SOL    HW130083   5.675   3.582   1.904
 9913SOL    HW230084   5.780   3.707   1.909
 9914SOL     OW30085   6.866   2.789   0.672
 9914SOL    HW130086   6.926   2.708   0.674
 9914SOL    HW230087   6.906   2.858   0.612
 9915SOL     OW30088   6.416   3.135   1.422
 9915SOL    HW130089   6.411   3.168   1.517
 9915SOL    HW230090   6.330   3.154   1.376
 9916SOL     OW30091   7.236   3.582   1.394
 9916SOL    HW130092   7.289   3.592   1.310
 9916SOL    HW230093   7.209   3.672   1.428
 9917SOL     OW30094   7.427   2.037   0.963
 9917SOL    HW130095   7.466   1.952   0.927
 9917SOL    HW230096   7.329   2.039   0.944
 9918SOL     OW30097   5.849   2.188   0.720
 9918SOL    HW130098   5.770   2.239   0.686
 9918SOL    HW230099   5.840   2.173   0.818
 9919SOL     OW30100   6.408   2.864   1.372
 9919SOL    HW130101   6.448   2.863   1.280
 9919SOL    HW230102   6.418   2.956   1.412
 9920SOL     OW30103   6.502   2.772   0.291
 9920SOL    HW130104   6.565   2.810   0.223
 9920SOL    HW230105   6.542   2.689   0.330
 9921SOL     OW30106   5.958   3.150   1.490
 9921SOL    HW130107   5.945   3.243   1.456
 9921SOL    HW230108   5.874   3.098   1.477
 9922SOL     OW30109   7.200   3.154   1.289
 9922SOL    HW130110   7.260   3.157   1.369
 9922SOL    HW230111   7.125   3.218   1.302
 9923SOL     OW30112   6.625   2.960   0.696
 9923SOL    HW130113   6.555   2.913   0.750
 9923SOL    HW230114   6.684   2.892   0.653
 9924SOL     OW30115   6.600   2.098   0.971
 9924SOL    HW130116   6.592   2.062   0.878
 9924SOL    HW230117   6.598   2.022   1.036
 9925SOL     OW30118   6.176   3.349   0.491
 9925SOL    HW130119   6.218   3.291   0.421
 9925SOL    HW230120   6.132   3.428   0.447
 9926SOL     OW30121   7.295   2.247   1.381
 9926SOL    HW130122   7.368   2.316   1.385
 9926SOL    HW230123   7.323   2.172   1.322
 9927SOL     OW30124   5.691   2.875   1.726
 9927SOL    HW130125   5.614   2.842   1.780
 9927SOL    HW230126   5.776   2.845   1.768
 9928SOL     OW30127   6.258   2.065   1.489
 9928SOL    HW130128   6.348   2.049   1.449
 9928SOL    HW230129   6.266   2.070   1.588
 9929SOL     OW30130   7.026   2.718   1.398
 9929SOL    HW130131   6.969   2.770   1.335
 9929SOL    HW230132   7.122   2.730   1.374
 9930SOL     OW30133   5.658   2.028   0.318
 9930SOL    HW130134   5.641   2.111   0.264
 9930SOL    HW230135   5.748   1.991   0.296
 9931SOL     OW30136   6.199   2.704   1.431
 9931SOL    HW130137   6.255   2.785   1.414
 9931SOL    HW230138   6.258   2.624   1.434
 9932SOL     OW30139   7.079   3.629   0.959
 9932SOL    HW130140   7.112   3.693   0.890
 9932SOL    HW230141   7.145   3.623   1.034
 9933SOL     OW30142   6.302   2.427   1.708
 9933SOL    HW130143   6.321   2.492   1.782
 9933SOL    HW230144   6.362   2.347   1.717
 9934SOL     OW30145   7.036   3.082   1.633
 9934SOL    HW130146   7.027   3.072   1.732
 9934SOL    HW230147   7.132   3.075   1.607
 9935SOL     OW30148   5.976   3.603   1.560
 9935SOL    HW130149   5.885   3.644   1.558
 9935SOL    HW230150   5.969   3.509   1.592
 9936SOL     OW30151   7.260   2.745   1.254
 9936SOL    HW130152   7.233   2.656   1.217
 9936SOL    HW230153   7.261   2.813   1.181
 9937SOL     OW30154   6.180   2.607   0.652
 9937SOL    HW130155   6.230   2.692   0.633
 9937SOL    HW230156   6.092   2.609   0.604
 9938SOL     OW30157   7.363   2.204   1.642
 9938SOL    HW130158   7.346   2.235   1.548
 9938SOL    HW230159   7.279   2.167   1.680
 9939SOL     OW30160   7.316   2.796   1.517
 9939SOL    HW130161   7.354   2.887   1.532
 9939SOL    HW230162   7.308   2.779   1.418
 9940SOL     OW30163   6.247   3.652   0.953
 9940SOL    HW130164   6.201   3.740   0.940
 9940SOL    HW230165   6.346   3.664   0.946
 9941SOL     OW30166   6.445   2.818   0.861
 9941SOL    HW130167   6.499   2.749   0.909
 9941SOL    HW230168   6.413   2.887   0.927
 9942SOL     OW30169   7.447   3.431   0.851
 9942SOL    HW130170   7.376   3.419   0.781
 9942SOL    HW230171   7.448   3.352   0.911
 9943SOL     OW30172   5.807   3.176   1.844
 9943SOL    HW130173   5.742   3.103   1.823
 9943SOL    HW230174   5.811   3.190   1.942
 9944SOL     OW30175   5.665   3.102   0.653
 9944SOL    HW130176   5.664   3.055   0.741
 9944SOL    HW230177   5.747   3.074   0.602
 9945SOL     OW30178   6.258   3.253   1.624
 9945SOL    HW130179   6.180   3.203   1.662
 9945SOL    HW230180   6.255   3.348   1.655
 9946SOL     OW30181   7.410   2.054   1.227
 9946SOL    HW130182   7.406   1.964   1.271
 9946SOL    HW230183   7.413   2.043   1.128
 9947SOL     OW30184   6.014   2.286   0.520
 9947SOL    HW130185   6.044   2.214   0.458
 9947SOL    HW230186   5.975   2.246   0.603
 9948SOL     OW30187   7.291   3.349   1.104
 9948SOL    HW130188   7.198   3.324   1.077
 9948SOL    HW230189   7.317   3.299   1.186
 9949SOL     OW30190   5.903   2.409   1.280
 9949SOL    HW130191   5.941   2.350   1.352
 9949SOL    HW230192   5.943   2.383   1.192
 9950SOL     OW30193   6.398   3.448   0.687
 9950SOL    HW130194   6.430   3.458   0.593
 9950SOL    HW230195   6.319   3.386   0.689
 9951SOL     OW30196   7.010   2.076   1.112
 9951SOL    HW130197   7.062   2.011   1.167
 9951SOL    HW230198   6.961   2.139   1.173
 9952SOL     OW30199   6.587   1.896   1.154
 9952SOL    HW130200   6.524   1.824   1.123
 9952SOL    HW230201   6.680   1.860   1.154
 9953SOL     OW30202   6.204   3.429   1.284
 9953SOL    HW130203   6.199   3.511   1.341
 9953SOL    HW230204   6.293   3.426   1.239
 9954SOL     OW30205   6.886   2.315   0.691
 9954SOL    HW130206   6.827   2.395   0.695
 9954SOL    HW230207   6.901   2.280   0.784
 9955SOL     OW30208   7.179   2.083   0.882
 9955SOL    HW130209   7.095   2.082   0.936
 9955SOL    HW230210   7.181   2.166   0.826
 9956SOL     OW30211   5.816   2.490   1.975
 9956SOL    HW130212   5.723   2.488   2.012
 9956SOL    HW230213   5.817   2.451   1.883
 9957SOL     OW30214   5.811   2.137   2.858
 9957SOL    HW130215   5.846   2.120   2.950
 9957SOL    HW230216   5.723   2.092   2.846
 9958SOL     OW30217   5.605   2.230   2.509
 9958SOL    HW130218   5.523   2.273   2.548
 9958SOL    HW230219   5.577   2.157   2.446
 9959SOL     OW30220   6.155   3.137   3.027
 9959SOL    HW130221   6.062   3.130   2.990
 9959SOL    HW230222   6.166   3.226   3.071
 9960SOL     OW30223   7.141   3.373   2.565
 9960SOL    HW130224   7.084   3.357   2.646
 9960SOL    HW230225   7.082   3.383   2.485
 9961SOL     OW30226   6.721   2.565   2.579
 9961SOL    HW130227   6.778   2.643   2.554
 9961SOL    HW230228   6.661   2.591   2.655
 9962SOL     OW30229   7.341   2.469   2.093
 9962SOL    HW130230   7.329   2.456   1.994
 9962SOL    HW230231   7.311   2.388   2.142
 9963SOL     OW30232   6.354   3.006   2.885
 9963SOL    HW130233   6.276   3.023   2.945
 9963SOL    HW230234   6.388   3.093   2.849
 9964SOL     OW30235   6.436   2.660   3.685
 9964SOL    HW130236   6.432   2.736   3.750
 9964SOL    HW230237   6.458   2.696   3.594
 9965SOL     OW30238   6.271   2.874   2.527
 9965SOL    HW130239   6.340   2.858   2.597
 9965SOL    HW230240   6.198   2.931   2.565
 9966SOL     OW30241   6.272   3.023   3.665
 9966SOL    HW130242   6.332   3.102   3.679
 9966SOL    HW230243   6.186   3.054   3.624
 9967SOL     OW30244   5.921   3.297   2.923
 9967SOL    HW130245   5.843   3.266   2.870
 9967SOL    HW230246   5.979   3.355   2.866
 9968SOL     OW30247   7.046   3.367   3.201
 9968SOL    HW130248   7.070   3.461   3.227
 9968SOL    HW230249   7.030   3.313   3.283
 9969SOL     OW30250   6.024   2.254   3.361
 9969SOL    HW130251   6.106   2.198   3.370
 9969SOL    HW230252   5.943   2.196   3.365
 9970SOL     OW30253   7.189   2.309   2.599
 9970SOL    HW130254   7.115   2.355   2.549
 9970SOL    HW230255   7.240   2.377   2.652
 9971SOL     OW30256   5.817   3.575   2.345
 9971SOL    HW130257   5.851   3.652   2.399
 9971SOL    HW230258   5.861   3.575   2.255
 9972SOL     OW30259   6.713   3.203   3.552
 9972SOL    HW130260   6.760   3.203   3.640
 9972SOL    HW230261   6.665   3.116   3.541
 9973SOL     OW30262   5.816   3.296   2.400
 9973SOL    HW130263   5.790   3.392   2.400
 9973SOL    HW230264   5.745   3.242   2.445
 9974SOL     OW30265   5.826   2.953   2.748
 9974SOL    HW130266   5.840   2.869   2.800
 9974SOL    HW230267   5.771   3.017   2.803
 9975SOL     OW30268   6.206   3.648   3.301
 9975SOL    HW130269   6.114   3.631   3.336
 9975SOL    HW230270   6.234   3.740   3.327
 9976SOL     OW30271   6.192   2.826   1.985
 9976SOL    HW130272   6.199   2.910   1.931
 9976SOL    HW230273   6.238   2.839   2.073
 9977SOL     OW30274   7.180   1.976   3.342
 9977SOL    HW130275   7.162   2.043   3.270
 9977SOL    HW230276   7.177   2.022   3.431
 9978SOL     OW30277   5.708   2.505   2.425
 9978SOL    HW130278   5.663   2.417   2.442
 9978SOL    HW230279   5.707   2.559   2.509
 9979SOL     OW30280   7.428   3.629   2.221
 9979SOL    HW130281   7.482   3.600   2.301
 9979SOL    HW230282   7.458   3.719   2.192
 9980SOL     OW30283   5.613   3.458   1.979
 9980SOL    HW130284   5.594   3.362   2.000
 9980SOL    HW230285   5.580   3.516   2.054
 9981SOL     OW30286   7.275   2.784   2.474
 9981SOL    HW130287   7.370   2.755   2.482
 9981SOL    HW230288   7.267   2.849   2.399
 9982SOL     OW30289   7.227   2.970   2.294
 9982SOL    HW130290   7.313   2.972   2.242
 9982SOL    HW230291   7.241   3.017   2.382
 9983SOL     OW30292   5.699   2.599   3.459
 9983SOL    HW130293   5.787   2.586   3.504
 9983SOL    HW230294   5.686   2.696   3.437
 9984SOL     OW30295   6.199   3.227   2.588
 9984SOL    HW130296   6.150   3.140   2.597
 9984SOL    HW230297   6.176   3.270   2.501
 9985SOL     OW30298   6.879   3.090   3.285
 9985SOL    HW130299   6.916   3.017   3.227
 9985SOL    HW230300   6.931   3.095   3.370
 9986SOL     OW30301   6.395   1.866   2.364
 9986SOL    HW130302   6.435   1.957   2.355
 9986SOL    HW230303   6.295   1.874   2.370
 9987SOL     OW30304   5.783   2.838   3.126
 9987SOL    HW130305   5.872   2.793   3.112
 9987SOL    HW230306   5.710   2.773   3.107
 9988SOL     OW30307   7.111   2.861   2.052
 9988SOL    HW130308   7.048   2.785   2.065
 9988SOL    HW230309   7.159   2.879   2.138
 9989SOL     OW30310   6.773   3.654   3.478
 9989SOL    HW130311   6.797   3.714   3.402
 9989SOL    HW230312   6.780   3.559   3.448
 9990SOL     OW30313   5.903   2.113   3.663
 9990SOL    HW130314   5.974   2.184   3.669
 9990SOL    HW230315   5.815   2.152   3.691
 9991SOL     OW30316   7.052   3.279   2.815
 9991SOL    HW130317   6.993   3.285   2.895
 9991SOL    HW230318   7.037   3.191   2.769
 9992SOL     OW30319   7.253   3.576   2.434
 9992SOL    HW130320   7.212   3.553   2.346
 9992SOL    HW230321   7.235   3.502   2.499
 9993SOL     OW30322   6.184   2.591   2.132
 9993SOL    HW130323   6.208   2.660   2.064
 9993SOL    HW230324   6.106   2.624   2.186
 9994SOL     OW30325   6.867   2.207   2.806
 9994SOL    HW130326   6.781   2.157   2.793
 9994SOL    HW230327   6.929   2.153   2.862
 9995SOL     OW30328   7.162   3.524   2.169
 9995SOL    HW130329   7.251   3.570   2.172
 9995SOL    HW230330   7.141   3.500   2.074
 9996SOL     OW30331   6.393   2.467   3.327
 9996SOL    HW130332   6.346   2.464   3.416
 9996SOL    HW230333   6.342   2.412   3.261
 9997SOL     OW30334   6.980   2.331   3.536
 9997SOL    HW130335   6.960   2.374   3.624
 9997SOL    HW230336   7.058   2.269   3.545
 9998SOL     OW30337   6.559   2.752   3.434
 9998SOL    HW130338   6.605   2.668   3.405
 9998SOL    HW230339   6.503   2.786   3.359
 9999SOL     OW30340   6.577   2.272   3.104
 9999SOL    HW130341   6.500   2.306   3.158
 9999SOL    HW230342   6.543   2.221   3.025
10000SOL     OW30343   6.627   2.563   2.291
10000SOL    HW130344   6.653   2.559   2.387
10000SOL    HW230345   6.542   2.512   2.277
10001SOL     OW30346   5.662   2.673   2.651
10001SOL    HW130347   5.761   2.661   2.660
10001SOL    HW230348   5.638   2.768   2.672
10002SOL     OW30349   5.716   3.683   3.433
10002SOL    HW130350   5.706   3.668   3.532
10002SOL    HW230351   5.630   3.719   3.397
10003SOL     OW30352   6.451   2.210   2.057
10003SOL    HW130353   6.510   2.273   2.008
10003SOL    HW230354   6.470   2.116   2.028
10004SOL     OW30355   7.305   2.447   3.693
10004SOL    HW130356   7.279   2.536   3.657
10004SOL    HW230357   7.303   2.379   3.620
10005SOL     OW30358   6.948   3.006   2.407
10005SOL    HW130359   7.031   2.977   2.359
10005SOL    HW230360   6.899   3.073   2.351
10006SOL     OW30361   6.136   2.058   2.747
10006SOL    HW130362   6.131   2.053   2.847
10006SOL    HW230363   6.138   2.154   2.718
10007SOL     OW30364   6.594   3.318   2.339
10007SOL    HW130365   6.548   3.390   2.287
10007SOL    HW230366   6.590   3.338   2.437
10008SOL     OW30367   5.937   3.663   2.715
10008SOL    HW130368   5.987   3.577   2.721
10008SOL    HW230369   6.002   3.740   2.712
10009SOL     OW30370   7.381   2.928   2.735
10009SOL    HW130371   7.319   2.913   2.659
10009SOL    HW230372   7.329   2.939   2.820
10010SOL     OW30373   6.813   3.412   3.368
10010SOL    HW130374   6.819   3.335   3.432
10010SOL    HW230375   6.761   3.386   3.288
10011SOL     OW30376   5.907   2.805   2.104
10011SOL    HW130377   5.989   2.844   2.062
10011SOL    HW230378   5.880   2.723   2.055
10012SOL     OW30379   7.044   2.597   2.590
10012SOL    HW130380   7.039   2.532   2.665
10012SOL    HW230381   7.124   2.656   2.603
10013SOL     OW30382   6.047   3.128   3.589
10013SOL    HW130383   5.997   3.129   3.503
10013SOL    HW230384   5.984   3.110   3.665
10014SOL     OW30385   6.697   3.638   2.099
10014SOL    HW130386   6.637   3.576   2.149
10014SOL    HW230387   6.728   3.594   2.014
10015SOL     OW30388   5.788   2.147   3.360
10015SOL    HW130389   5.708   2.207   3.347
10015SOL    HW230390   5.778   2.098   3.446
10016SOL     OW30391   7.218   3.239   1.943
10016SOL    HW130392   7.186   3.333   1.933
10016SOL    HW230393   7.142   3.176   1.931
10017SOL     OW30394   6.050   3.605   2.185
10017SOL    HW130395   6.083   3.644   2.271
10017SOL    HW230396   6.126   3.598   2.120
10018SOL     OW30397   6.986   1.969   2.288
10018SOL    HW130398   6.962   1.932   2.198
10018SOL    HW230399   7.085   1.985   2.292
10019SOL     OW30400   5.835   3.647   3.103
10019SOL    HW130401   5.892   3.582   3.153
10019SOL    HW230402   5.819   3.614   3.010
10020SOL     OW30403   6.526   3.560   2.766
10020SOL    HW130404   6.606   3.503   2.787
10020SOL    HW230405   6.477   3.520   2.689
10021SOL     OW30406   5.968   2.562   2.342
10021SOL    HW130407   6.013   2.472   2.339
10021SOL    HW230408   5.874   2.551   2.375
10022SOL     OW30409   7.133   2.084   3.591
10022SOL    HW130410   7.128   2.121   3.683
10022SOL    HW230411   7.061   2.015   3.579
10023SOL     OW30412   6.200   1.984   1.979
10023SOL    HW130413   6.298   1.962   1.986
10023SOL    HW230414   6.169   1.967   1.886
10024SOL     OW30415   6.367   2.126   3.611
10024SOL    HW130416   6.434   2.065   3.654
10024SOL    HW230417   6.294   2.145   3.676
10025SOL     OW30418   6.474   3.376   3.057
10025SOL    HW130419   6.451   3.351   2.963
10025SOL    HW230420   6.535   3.307   3.096
10026SOL     OW30421   6.937   2.452   3.295
10026SOL    HW130422   6.965   2.409   3.380
10026SOL    HW230423   6.962   2.548   3.296
10027SOL     OW30424   6.389   3.264   2.786
10027SOL    HW130425   6.479   3.278   2.744
10027SOL    HW230426   6.318   3.266   2.715
10028SOL     OW30427   6.508   2.365   2.761
10028SOL    HW130428   6.483   2.356   2.665
10028SOL    HW230429   6.556   2.283   2.792
10029SOL     OW30430   6.125   1.926   2.374
10029SOL    HW130431   6.044   1.927   2.432
10029SOL    HW230432   6.128   2.009   2.319
10030SOL     OW30433   7.020   3.050   1.903
10030SOL    HW130434   7.052   2.974   1.960
10030SOL    HW230435   6.928   3.077   1.933
10031SOL     OW30436   5.883   1.897   2.033
10031SOL    HW130437   5.932   1.981   2.012
10031SOL    HW230438   5.945   1.832   2.078
10032SOL     OW30439   6.521   2.098   2.342
10032SOL    HW130440   6.473   2.139   2.264
10032SOL    HW230441   6.620   2.096   2.323
10033SOL     OW30442   6.662   2.545   3.326
10033SOL    HW130443   6.582   2.484   3.329
10033SOL    HW230444   6.743   2.492   3.302
10034SOL     OW30445   6.813   3.432   2.655
10034SOL    HW130446   6.834   3.506   2.590
10034SOL    HW230447   6.881   3.432   2.728
10035SOL     OW30448   6.045   3.014   2.603
10035SOL    HW130449   5.974   2.987   2.668
10035SOL    HW230450   6.019   2.986   2.510
10036SOL     OW30451   6.857   3.659   2.453
10036SOL    HW130452   6.901   3.723   2.389
10036SOL    HW230453   6.807   3.711   2.523
10037SOL     OW30454   6.618   2.411   1.878
10037SOL    HW130455   6.577   2.493   1.839
10037SOL    HW230456   6.682   2.437   1.951
10038SOL     OW30457   5.664   2.418   3.248
10038SOL    HW130458   5.756   2.417   3.207
10038SOL    HW230459   5.658   2.492   3.315
10039SOL     OW30460   6.147   2.084   3.009
10039SOL    HW130461   6.185   2.000   3.046
10039SOL    HW230462   6.059   2.103   3.053
10040SOL     OW30463   6.452   2.316   2.504
10040SOL    HW130464   6.420   2.388   2.442
10040SOL    HW230465   6.476   2.235   2.451
10041SOL     OW30466   6.603   1.901   2.615
10041SOL    HW130467   6.531   1.906   2.546
10041SOL    HW230468   6.579   1.832   2.684
10042SOL     OW30469   7.015   3.035   2.729
10042SOL    HW130470   6.960   2.951   2.722
10042SOL    HW230471   7.041   3.064   2.637
10043SOL     OW30472   7.052   2.452   2.854
10043SOL    HW130473   7.022   2.357   2.861
10043SOL    HW230474   7.125   2.468   2.920
10044SOL     OW30475   7.443   2.695   2.239
10044SOL    HW130476   7.485   2.631   2.303
10044SOL    HW230477   7.405   2.644   2.161
10045SOL     OW30478   6.074   3.247   2.036
10045SOL    HW130479   5.987   3.232   2.083
10045SOL    HW230480   6.057   3.273   1.941
10046SOL     OW30481   7.250   3.142   2.519
10046SOL    HW130482   7.349   3.150   2.533
10046SOL    HW230483   7.205   3.226   2.550
10047SOL     OW30484   6.976   2.437   1.940
10047SOL    HW130485   6.922   2.416   2.021
10047SOL    HW230486   7.067   2.396   1.949
10048SOL     OW30487   6.113   2.118   2.190
10048SOL    HW130488   6.140   2.059   2.115
10048SOL    HW230489   6.113   2.213   2.159
10049SOL     OW30490   7.340   3.085   3.450
10049SOL    HW130491   7.431   3.046   3.437
10049SOL    HW230492   7.348   3.181   3.474
10050SOL     OW30493   6.650   3.209   3.202
10050SOL    HW130494   6.570   3.186   3.257
10050SOL    HW230495   6.733   3.183   3.251
10051SOL     OW30496   7.178   3.491   3.487
10051SOL    HW130497   7.205   3.525   3.397
10051SOL    HW230498   7.257   3.453   3.533
10052SOL     OW30499   6.697   3.057   2.962
10052SOL    HW130500   6.657   3.101   3.043
10052SOL    HW230501   6.656   3.094   2.879
10053SOL     OW30502   7.224   2.961   2.941
10053SOL    HW130503   7.229   3.042   3.000
10053SOL    HW230504   7.138   2.963   2.890
10054SOL     OW30505   6.501   1.951   3.264
10054SOL    HW130506   6.526   1.931   3.169
10054SOL    HW230507   6.573   2.007   3.306
10055SOL     OW30508   6.566   2.978   3.581
10055SOL    HW130509   6.467   2.984   3.591
10055SOL    HW230510   6.589   2.898   3.525
10056SOL     OW30511   6.291   2.912   2.230
10056SOL    HW130512   6.277   2.919   2.329
10056SOL    HW230513   6.375   2.861   2.212
10057SOL     OW30514   5.996   2.675   3.113
10057SOL    HW130515   6.082   2.687   3.163
10057SOL    HW230516   5.954   2.588   3.140
10058SOL     OW30517   6.860   2.248   3.124
10058SOL    HW130518   6.881   2.322   3.188
10058SOL    HW230519   6.771   2.265   3.081
10059SOL     OW30520   5.650   3.426   3.193
10059SOL    HW130521   5.604   3.508   3.159
10059SOL    HW230522   5.748   3.445   3.202
10060SOL     OW30523   5.953   2.962   2.363
10060SOL    HW130524   5.946   3.045   2.307
10060SOL    HW230525   5.957   2.882   2.303
10061SOL     OW30526   6.152   2.399   2.727
10061SOL    HW130527   6.164   2.465   2.653
10061SOL    HW230528   6.198   2.433   2.810
10062SOL     OW30529   6.838   3.210   2.250
10062SOL    HW130530   6.888   3.287   2.290
10062SOL    HW230531   6.743   3.212   2.282
10063SOL     OW30532   6.858   3.307   3.004
10063SOL    HW130533   6.905   3.320   3.091
10063SOL    HW230534   6.792   3.233   3.013
10064SOL     OW30535   7.168   2.501   2.334
10064SOL    HW130536   7.137   2.562   2.407
10064SOL    HW230537   7.218   2.553   2.265
10065SOL     OW30538   5.940   3.372   3.191
10065SOL    HW130539   5.919   3.328   3.104
10065SOL    HW230540   6.037   3.398   3.194
10066SOL     OW30541   5.988   2.613   3.460
10066SOL    HW130542   6.056   2.668   3.413
10066SOL    HW230543   6.028   2.525   3.487
10067SOL     OW30544   7.173   2.641   3.532
10067SOL    HW130545   7.081   2.679   3.527
10067SOL    HW230546   7.233   2.688   3.467
10068SOL     OW30547   6.599   1.967   3.632
10068SOL    HW130548   6.605   2.052   3.580
10068SOL    HW230549   6.631   1.891   3.575
10069SOL     OW30550   6.090   1.912   3.602
10069SOL    HW130551   6.048   1.855   3.532
10069SOL    HW230552   6.024   1.981   3.634
10070SOL     OW30553   6.159   2.732   2.891
10070SOL    HW130554   6.203   2.821   2.882
10070SOL    HW230555   6.096   2.732   2.968
10071SOL     OW30556   6.946   2.724   2.907
10071SOL    HW130557   6.871   2.724   2.841
10071SOL    HW230558   6.983   2.632   2.916
10072SOL     OW30559   6.795   2.387   2.137
10072SOL    HW130560   6.808   2.303   2.191
10072SOL    HW230561   6.766   2.461   2.197
10073SOL     OW30562   5.893   2.075   3.093
10073SOL    HW130563   5.870   2.112   3.183
10073SOL    HW230564   5.863   1.980   3.087
10074SOL     OW30565   5.623   3.172   3.144
10074SOL    HW130566   5.676   3.123   3.212
10074SOL    HW230567   5.645   3.270   3.149
10075SOL     OW30568   6.318   2.496   2.926
10075SOL    HW130569   6.377   2.470   2.850
10075SOL    HW230570   6.290   2.592   2.915
10076SOL     OW30571   7.314   2.797   3.716
10076SOL    HW130572   7.268   2.790   3.627
10076SOL    HW230573   7.252   2.841   3.782
10077SOL     OW30574   5.893   1.925   2.480
10077SOL    HW130575   5.882   2.019   2.513
10077SOL    HW230576   5.888   1.862   2.557
10078SOL     OW30577   7.208   2.229   2.236
10078SOL    HW130578   7.210   2.153   2.300
10078SOL    HW230579   7.160   2.306   2.276
10079SOL     OW30580   6.609   2.628   2.828
10079SOL    HW130581   6.624   2.649   2.924
10079SOL    HW230582   6.579   2.533   2.819
10080SOL     OW30583   6.566   3.435   3.562
10080SOL    HW130584   6.546   3.479   3.474
10080SOL    HW230585   6.605   3.344   3.546
10081SOL     OW30586   7.445   3.380   3.467
10081SOL    HW130587   7.459   3.407   3.372
10081SOL    HW230588   7.528   3.402   3.520
10082SOL     OW30589   5.936   2.760   3.666
10082SOL    HW130590   6.012   2.804   3.714
10082SOL    HW230591   5.971   2.713   3.584
10083SOL     OW30592   7.126   2.136   1.987
10083SOL    HW130593   7.065   2.061   2.010
10083SOL    HW230594   7.148   2.188   2.070
10084SOL     OW30595   6.889   2.700   1.904
10084SOL    HW130596   6.923   2.607   1.919
10084SOL    HW230597   6.907   2.727   1.809
10085SOL     OW30598   6.654   3.195   2.711
10085SOL    HW130599   6.661   3.111   2.656
10085SOL    HW230600   6.716   3.264   2.675
10086SOL     OW30601   5.905   2.672   2.811
10086SOL    HW130602   5.998   2.708   2.816
10086SOL    HW230603   5.899   2.587   2.863
10087SOL     OW30604   5.925   2.371   2.868
10087SOL    HW130605   5.873   2.288   2.851
10087SOL    HW230606   6.002   2.376   2.804
10088SOL     OW30607   6.724   2.242   3.540
10088SOL    HW130608   6.679   2.305   3.604
10088SOL    HW230609   6.817   2.273   3.523
10089SOL     OW30610   6.746   2.069   3.339
10089SOL    HW130611   6.746   2.133   3.416
10089SOL    HW230612   6.774   2.117   3.256
10090SOL     OW30613   5.594   3.188   2.062
10090SOL    HW130614   5.501   3.209   2.031
10090SOL    HW230615   5.604   3.089   2.075
10091SOL     OW30616   5.674   3.663   2.789
10091SOL    HW130617   5.632   3.577   2.762
10091SOL    HW230618   5.768   3.666   2.755
10092SOL     OW30619   6.090   3.430   2.772
10092SOL    HW130620   6.156   3.504   2.781
10092SOL    HW230621   6.134   3.351   2.730
10093SOL     OW30622   6.588   2.658   3.100
10093SOL    HW130623   6.629   2.626   3.186
10093SOL    HW230624   6.492   2.631   3.097
10094SOL     OW30625   5.626   2.406   2.976
10094SOL    HW130626   5.711   2.373   2.935
10094SOL    HW230627   5.639   2.421   3.074
10095SOL     OW30628   5.775   2.382   3.584
10095SOL    HW130629   5.834   2.342   3.514
10095SOL    HW230630   5.717   2.453   3.543
10096SOL     OW30631   6.955   2.812   3.522
10096SOL    HW130632   6.994   2.901   3.542
10096SOL    HW230633   6.965   2.792   3.425
10097SOL     OW30634   6.401   2.434   2.187
10097SOL    HW130635   6.408   2.345   2.141
10097SOL    HW230636   6.307   2.468   2.179
10098SOL     OW30637   7.243   2.466   3.068
10098SOL    HW130638   7.205   2.397   3.130
10098SOL    HW230639   7.325   2.430   3.024
10099SOL     OW30640   5.838   3.426   3.606
10099SOL    HW130641   5.808   3.483   3.682
10099SOL    HW230642   5.831   3.329   3.632
10100SOL     OW30643   6.257   2.326   3.131
10100SOL    HW130644   6.223   2.237   3.101
10100SOL    HW230645   6.283   2.380   3.051
10101SOL     OW30646   6.516   3.540   3.327
10101SOL    HW130647   6.492   3.522   3.232
10101SOL    HW230648   6.546   3.634   3.337
10102SOL     OW30649   6.059   2.362   2.053
10102SOL    HW130650   6.120   2.442   2.057
10102SOL    HW230651   5.964   2.393   2.060
10103SOL     OW30652   5.745   2.999   3.328
10103SOL    HW130653   5.767   2.938   3.404
10103SOL    HW230654   5.755   2.950   3.242
10104SOL     OW30655   6.933   2.921   3.096
10104SOL    HW130656   6.957   2.858   3.022
10104SOL    HW230657   6.843   2.961   3.078
10105SOL     OW30658   6.888   2.717   2.171
10105SOL    HW130659   6.802   2.686   2.213
10105SOL    HW230660   6.884   2.703   2.072
10106SOL     OW30661   7.345   3.609   3.016
10106SOL    HW130662   7.406   3.639   2.943
10106SOL    HW230663   7.307   3.520   2.994
10107SOL     OW30664   6.838   3.593   2.990
10107SOL    HW130665   6.922   3.598   2.936
10107SOL    HW230666   6.815   3.497   3.008
10108SOL     OW30667   5.669   3.120   2.884
10108SOL    HW130668   5.664   3.119   2.984
10108SOL    HW230669   5.586   3.079   2.846
10109SOL     OW30670   6.274   3.524   3.578
10109SOL    HW130671   6.218   3.605   3.587
10109SOL    HW230672   6.326   3.528   3.492
10110SOL     OW30673   7.312   1.997   2.385
10110SOL    HW130674   7.385   1.980   2.318
10110SOL    HW230675   7.281   1.910   2.423
10111SOL     OW30676   6.974   3.435   2.339
10111SOL    HW130677   7.041   3.447   2.265
10111SOL    HW230678   6.934   3.524   2.362
10112SOL     OW30679   5.716   3.656   3.713
10112SOL    HW130680   5.675   3.582   3.766
10112SOL    HW230681   5.780   3.707   3.771
10113SOL     OW30682   6.866   2.789   2.534
10113SOL    HW130683   6.926   2.708   2.536
10113SOL    HW230684   6.906   2.858   2.474
10114SOL     OW30685   6.416   3.135   3.284
10114SOL    HW130686   6.411   3.168   3.379
10114SOL    HW230687   6.330   3.154   3.238
10115SOL     OW30688   6.258   3.478   2.016
10115SOL    HW130689   6.267   3.488   1.917
10115SOL    HW230690   6.218   3.389   2.037
10116SOL     OW30691   7.236   3.582   3.256
10116SOL    HW130692   7.289   3.592   3.172
10116SOL    HW230693   7.209   3.672   3.290
10117SOL     OW30694   7.427   2.037   2.825
10117SOL    HW130695   7.466   1.952   2.789
10117SOL    HW230696   7.329   2.039   2.806
10118SOL     OW30697   5.849   2.188   2.582
10118SOL    HW130698   5.770   2.239   2.548
10118SOL    HW230699   5.840   2.173   2.680
10119SOL     OW30700   6.780   3.474   1.893
10119SOL    HW130701   6.786   3.381   1.930
10119SOL    HW230702   6.721   3.474   1.813
10120SOL     OW30703   6.408   2.864   3.234
10120SOL    HW130704   6.448   2.863   3.142
10120SOL    HW230705   6.418   2.956   3.274
10121SOL     OW30706   6.502   2.772   2.153
10121SOL    HW130707   6.565   2.810   2.085
10121SOL    HW230708   6.542   2.689   2.192
10122SOL     OW30709   7.090   3.469   1.906
10122SOL    HW130710   6.998   3.506   1.913
10122SOL    HW230711   7.128   3.489   1.816
10123SOL     OW30712   5.958   3.150   3.352
10123SOL    HW130713   5.945   3.243   3.318
10123SOL    HW230714   5.874   3.098   3.339
10124SOL     OW30715   7.200   3.154   3.151
10124SOL    HW130716   7.260   3.157   3.231
10124SOL    HW230717   7.125   3.218   3.164
10125SOL     OW30718   6.625   2.960   2.558
10125SOL    HW130719   6.555   2.913   2.612
10125SOL    HW230720   6.684   2.892   2.515
10126SOL     OW30721   6.600   2.098   2.833
10126SOL    HW130722   6.592   2.062   2.740
10126SOL    HW230723   6.598   2.022   2.898
10127SOL     OW30724   6.176   3.349   2.353
10127SOL    HW130725   6.218   3.291   2.283
10127SOL    HW230726   6.132   3.428   2.309
10128SOL     OW30727   7.295   2.247   3.243
10128SOL    HW130728   7.368   2.316   3.247
10128SOL    HW230729   7.323   2.172   3.184
10129SOL     OW30730   5.841   3.210   2.152
10129SOL    HW130731   5.745   3.211   2.125
10129SOL    HW230732   5.853   3.263   2.236
10130SOL     OW30733   5.691   2.875   3.588
10130SOL    HW130734   5.614   2.842   3.642
10130SOL    HW230735   5.776   2.845   3.630
10131SOL     OW30736   6.258   2.065   3.351
10131SOL    HW130737   6.348   2.049   3.311
10131SOL    HW230738   6.266   2.070   3.450
10132SOL     OW30739   5.661   2.207   1.895
10132SOL    HW130740   5.569   2.179   1.866
10132SOL    HW230741   5.692   2.284   1.839
10133SOL     OW30742   7.026   2.718   3.260
10133SOL    HW130743   6.969   2.770   3.197
10133SOL    HW230744   7.122   2.730   3.236
10134SOL     OW30745   5.658   2.028   2.180
10134SOL    HW130746   5.641   2.111   2.126
10134SOL    HW230747   5.748   1.991   2.158
10135SOL     OW30748   6.769   3.197   1.981
10135SOL    HW130749   6.670   3.186   1.983
10135SOL    HW230750   6.803   3.212   2.074
10136SOL     OW30751   6.199   2.704   3.293
10136SOL    HW130752   6.255   2.785   3.276
10136SOL    HW230753   6.258   2.624   3.296
10137SOL     OW30754   7.079   3.629   2.821
10137SOL    HW130755   7.112   3.693   2.752
10137SOL    HW230756   7.145   3.623   2.896
10138SOL     OW30757   6.302   2.427   3.570
10138SOL    HW130758   6.321   2.492   3.644
10138SOL    HW230759   6.362   2.347   3.579
10139SOL     OW30760   7.036   3.082   3.495
10139SOL    HW130761   7.027   3.072   3.594
10139SOL    HW230762   7.132   3.075   3.469
10140SOL     OW30763   5.976   3.603   3.422
10140SOL    HW130764   5.885   3.644   3.420
10140SOL    HW230765   5.969   3.509   3.454
10141SOL     OW30766   7.260   2.745   3.116
10141SOL    HW130767   7.233   2.656   3.079
10141SOL    HW230768   7.261   2.813   3.043
10142SOL     OW30769   6.811   2.187   2.311
10142SOL    HW130770   6.876   2.113   2.300
10142SOL    HW230771   6.831   2.237   2.395
10143SOL     OW30772   6.180   2.607   2.514
10143SOL    HW130773   6.230   2.692   2.495
10143SOL    HW230774   6.092   2.609   2.466
10144SOL     OW30775   7.363   2.204   3.504
10144SOL    HW130776   7.346   2.235   3.410
10144SOL    HW230777   7.279   2.167   3.542
10145SOL     OW30778   7.316   2.796   3.379
10145SOL    HW130779   7.354   2.887   3.394
10145SOL    HW230780   7.308   2.779   3.280
10146SOL     OW30781   6.445   3.236   1.878
10146SOL    HW130782   6.399   3.251   1.966
10146SOL    HW230783   6.489   3.321   1.848
10147SOL     OW30784   6.247   3.652   2.815
10147SOL    HW130785   6.201   3.740   2.802
10147SOL    HW230786   6.346   3.664   2.808
10148SOL     OW30787   6.445   2.818   2.723
10148SOL    HW130788   6.499   2.749   2.771
10148SOL    HW230789   6.413   2.887   2.789
10149SOL     OW30790   6.669   2.846   1.949
10149SOL    HW130791   6.646   2.899   1.867
10149SOL    HW230792   6.750   2.790   1.930
10150SOL     OW30793   7.447   3.431   2.713
10150SOL    HW130794   7.376   3.419   2.643
10150SOL    HW230795   7.448   3.352   2.773
10151SOL     OW30796   5.807   3.176   3.706
10151SOL    HW130797   5.742   3.103   3.685
10151SOL    HW230798   5.811   3.190   3.804
10152SOL     OW30799   5.665   3.102   2.515
10152SOL    HW130800   5.664   3.055   2.603
10152SOL    HW230801   5.747   3.074   2.464
10153SOL     OW30802   6.258   3.253   3.486
10153SOL    HW130803   6.180   3.203   3.524
10153SOL    HW230804   6.255   3.348   3.517
10154SOL     OW30805   7.410   2.054   3.089
10154SOL    HW130806   7.406   1.964   3.133
10154SOL    HW230807   7.413   2.043   2.990
10155SOL     OW30808   6.014   2.286   2.382
10155SOL    HW130809   6.044   2.214   2.320
10155SOL    HW230810   5.975   2.246   2.465
10156SOL     OW30811   7.291   3.349   2.966
10156SOL    HW130812   7.198   3.324   2.939
10156SOL    HW230813   7.317   3.299   3.048
10157SOL     OW30814   5.903   2.409   3.142
10157SOL    HW130815   5.941   2.350   3.214
10157SOL    HW230816   5.943   2.383   3.054
10158SOL     OW30817   6.398   3.448   2.549
10158SOL    HW130818   6.430   3.458   2.455
10158SOL    HW230819   6.319   3.386   2.551
10159SOL     OW30820   7.010   2.076   2.974
10159SOL    HW130821   7.062   2.011   3.029
10159SOL    HW230822   6.961   2.139   3.035
10160SOL     OW30823   6.587   1.896   3.016
10160SOL    HW130824   6.524   1.824   2.985
10160SOL    HW230825   6.680   1.860   3.016
10161SOL     OW30826   6.356   3.192   2.163
10161SOL    HW130827   6.310   3.105   2.180
10161SOL    HW230828   6.447   3.189   2.204
10162SOL     OW30829   6.204   3.429   3.146
10162SOL    HW130830   6.199   3.511   3.203
10162SOL    HW230831   6.293   3.426   3.101
10163SOL     OW30832   6.938   1.914   2.030
10163SOL    HW130833   6.973   1.873   1.946
10163SOL    HW230834   6.848   1.876   2.050
10164SOL     OW30835   6.886   2.315   2.553
10164SOL    HW130836   6.827   2.395   2.557
10164SOL    HW230837   6.901   2.280   2.646
10165SOL     OW30838   7.179   2.083   2.744
10165SOL    HW130839   7.095   2.082   2.798
10165SOL    HW230840   7.181   2.166   2.688
10166SOL     OW30841   5.625   2.939   2.162
10166SOL    HW130842   5.724   2.928   2.153
10166SOL    HW230843   5.585   2.853   2.194
10167SOL     OW30844   6.461   3.508   2.199
10167SOL    HW130845   6.384   3.473   2.145
10167SOL    HW230846   6.429   3.579   2.261
10168SOL     OW30847   5.816   2.490   3.837
10168SOL    HW130848   5.723   2.488   3.874
10168SOL    HW230849   5.817   2.451   3.745
10169SOL     OW30850   5.811   2.137   4.720
10169SOL    HW130851   5.846   2.120   4.812
10169SOL    HW230852   5.723   2.092   4.708
10170SOL     OW30853   5.605   2.230   4.371
10170SOL    HW130854   5.523   2.273   4.410
10170SOL    HW230855   5.577   2.157   4.308
10171SOL     OW30856   6.155   3.137   4.889
10171SOL    HW130857   6.062   3.130   4.852
10171SOL    HW230858   6.166   3.226   4.933
10172SOL     OW30859   7.141   3.373   4.427
10172SOL    HW130860   7.084   3.357   4.508
10172SOL    HW230861   7.082   3.383   4.347
10173SOL     OW30862   6.721   2.565   4.441
10173SOL    HW130863   6.778   2.643   4.416
10173SOL    HW230864   6.661   2.591   4.517
10174SOL     OW30865   7.341   2.469   3.955
10174SOL    HW130866   7.329   2.456   3.856
10174SOL    HW230867   7.311   2.388   4.004
10175SOL     OW30868   6.354   3.006   4.747
10175SOL    HW130869   6.276   3.023   4.807
10175SOL    HW230870   6.388   3.093   4.711
10176SOL     OW30871   6.436   2.660   5.547
10176SOL    HW130872   6.432   2.736   5.612
10176SOL    HW230873   6.458   2.696   5.456
10177SOL     OW30874   6.271   2.874   4.389
10177SOL    HW130875   6.340   2.858   4.459
10177SOL    HW230876   6.198   2.931   4.427
10178SOL     OW30877   6.272   3.023   5.527
10178SOL    HW130878   6.332   3.102   5.541
10178SOL    HW230879   6.186   3.054   5.486
10179SOL     OW30880   5.921   3.297   4.785
10179SOL    HW130881   5.843   3.266   4.732
10179SOL    HW230882   5.979   3.355   4.728
10180SOL     OW30883   7.046   3.367   5.063
10180SOL    HW130884   7.070   3.461   5.089
10180SOL    HW230885   7.030   3.313   5.145
10181SOL     OW30886   6.024   2.254   5.223
10181SOL    HW130887   6.106   2.198   5.232
10181SOL    HW230888   5.943   2.196   5.227
10182SOL     OW30889   7.189   2.309   4.461
10182SOL    HW130890   7.115   2.355   4.411
10182SOL    HW230891   7.240   2.377   4.514
10183SOL     OW30892   5.817   3.575   4.207
10183SOL    HW130893   5.851   3.652   4.261
10183SOL    HW230894   5.861   3.575   4.117
10184SOL     OW30895   6.713   3.203   5.414
10184SOL    HW130896   6.760   3.203   5.502
10184SOL    HW230897   6.665   3.116   5.403
10185SOL     OW30898   5.816   3.296   4.262
10185SOL    HW130899   5.790   3.392   4.262
10185SOL    HW230900   5.745   3.242   4.307
10186SOL     OW30901   5.826   2.953   4.610
10186SOL    HW130902   5.840   2.869   4.662
10186SOL    HW230903   5.771   3.017   4.665
10187SOL     OW30904   6.206   3.648   5.163
10187SOL    HW130905   6.114   3.631   5.198
10187SOL    HW230906   6.234   3.740   5.189
10188SOL     OW30907   6.192   2.826   3.847
10188SOL    HW130908   6.199   2.910   3.793
10188SOL    HW230909   6.238   2.839   3.935
10189SOL     OW30910   7.180   1.976   5.204
10189SOL    HW130911   7.162   2.043   5.132
10189SOL    HW230912   7.177   2.022   5.293
10190SOL     OW30913   5.708   2.505   4.287
10190SOL    HW130914   5.663   2.417   4.304
10190SOL    HW230915   5.707   2.559   4.371
10191SOL     OW30916   7.428   3.629   4.083
10191SOL    HW130917   7.482   3.600   4.163
10191SOL    HW230918   7.458   3.719   4.054
10192SOL     OW30919   5.613   3.458   3.841
10192SOL    HW130920   5.594   3.362   3.862
10192SOL    HW230921   5.580   3.516   3.916
10193SOL     OW30922   7.275   2.784   4.336
10193SOL    HW130923   7.370   2.755   4.344
10193SOL    HW230924   7.267   2.849   4.261
10194SOL     OW30925   7.227   2.970   4.156
10194SOL    HW130926   7.313   2.972   4.104
10194SOL    HW230927   7.241   3.017   4.244
10195SOL     OW30928   5.699   2.599   5.321
10195SOL    HW130929   5.787   2.586   5.366
10195SOL    HW230930   5.686   2.696   5.299
10196SOL     OW30931   6.199   3.227   4.450
10196SOL    HW130932   6.150   3.140   4.459
10196SOL    HW230933   6.176   3.270   4.363
10197SOL     OW30934   6.879   3.090   5.147
10197SOL    HW130935   6.916   3.017   5.089
10197SOL    HW230936   6.931   3.095   5.232
10198SOL     OW30937   6.395   1.866   4.226
10198SOL    HW130938   6.435   1.957   4.217
10198SOL    HW230939   6.295   1.874   4.232
10199SOL     OW30940   5.783   2.838   4.988
10199SOL    HW130941   5.872   2.793   4.974
10199SOL    HW230942   5.710   2.773   4.969
10200SOL     OW30943   7.111   2.861   3.914
10200SOL    HW130944   7.048   2.785   3.927
10200SOL    HW230945   7.159   2.879   4.000
10201SOL     OW30946   6.773   3.654   5.340
10201SOL    HW130947   6.797   3.714   5.264
10201SOL    HW230948   6.780   3.559   5.310
10202SOL     OW30949   5.903   2.113   5.525
10202SOL    HW130950   5.974   2.184   5.531
10202SOL    HW230951   5.815   2.152   5.553
10203SOL     OW30952   7.052   3.279   4.677
10203SOL    HW130953   6.993   3.285   4.757
10203SOL    HW230954   7.037   3.191   4.631
10204SOL     OW30955   7.253   3.576   4.296
10204SOL    HW130956   7.212   3.553   4.208
10204SOL    HW230957   7.235   3.502   4.361
10205SOL     OW30958   6.184   2.591   3.994
10205SOL    HW130959   6.208   2.660   3.926
10205SOL    HW230960   6.106   2.624   4.048
10206SOL     OW30961   6.867   2.207   4.668
10206SOL    HW130962   6.781   2.157   4.655
10206SOL    HW230963   6.929   2.153   4.724
10207SOL     OW30964   7.162   3.524   4.031
10207SOL    HW130965   7.251   3.570   4.034
10207SOL    HW230966   7.141   3.500   3.936
10208SOL     OW30967   6.393   2.467   5.189
10208SOL    HW130968   6.346   2.464   5.278
10208SOL    HW230969   6.342   2.412   5.123
10209SOL     OW30970   6.980   2.331   5.398
10209SOL    HW130971   6.960   2.374   5.486
10209SOL    HW230972   7.058   2.269   5.407
10210SOL     OW30973   6.559   2.752   5.296
10210SOL    HW130974   6.605   2.668   5.267
10210SOL    HW230975   6.503   2.786   5.221
10211SOL     OW30976   6.577   2.272   4.966
10211SOL    HW130977   6.500   2.306   5.020
10211SOL    HW230978   6.543   2.221   4.887
10212SOL     OW30979   6.627   2.563   4.153
10212SOL    HW130980   6.653   2.559   4.249
10212SOL    HW230981   6.542   2.512   4.139
10213SOL     OW30982   5.662   2.673   4.513
10213SOL    HW130983   5.761   2.661   4.522
10213SOL    HW230984   5.638   2.768   4.534
10214SOL     OW30985   5.716   3.683   5.295
10214SOL    HW130986   5.706   3.668   5.394
10214SOL    HW230987   5.630   3.719   5.259
10215SOL     OW30988   6.451   2.210   3.919
10215SOL    HW130989   6.510   2.273   3.870
10215SOL    HW230990   6.470   2.116   3.890
10216SOL     OW30991   7.305   2.447   5.555
10216SOL    HW130992   7.279   2.536   5.519
10216SOL    HW230993   7.303   2.379   5.482
10217SOL     OW30994   6.948   3.006   4.269
10217SOL    HW130995   7.031   2.977   4.221
10217SOL    HW230996   6.899   3.073   4.213
10218SOL     OW30997   6.136   2.058   4.609
10218SOL    HW130998   6.131   2.053   4.709
10218SOL    HW230999   6.138   2.154   4.580
10219SOL     OW31000   6.594   3.318   4.201
10219SOL    HW131001   6.548   3.390   4.149
10219SOL    HW231002   6.590   3.338   4.299
10220SOL     OW31003   5.937   3.663   4.577
10220SOL    HW131004   5.987   3.577   4.583
10220SOL    HW231005   6.002   3.740   4.574
10221SOL     OW31006   7.381   2.928   4.597
10221SOL    HW131007   7.319   2.913   4.521
10221SOL    HW231008   7.329   2.939   4.682
10222SOL     OW31009   6.813   3.412   5.230
10222SOL    HW131010   6.819   3.335   5.294
10222SOL    HW231011   6.761   3.386   5.150
10223SOL     OW31012   5.907   2.805   3.966
10223SOL    HW131013   5.989   2.844   3.924
10223SOL    HW231014   5.880   2.723   3.917
10224SOL     OW31015   7.044   2.597   4.452
10224SOL    HW131016   7.039   2.532   4.527
10224SOL    HW231017   7.124   2.656   4.465
10225SOL     OW31018   6.047   3.128   5.451
10225SOL    HW131019   5.997   3.129   5.365
10225SOL    HW231020   5.984   3.110   5.527
10226SOL     OW31021   6.697   3.638   3.961
10226SOL    HW131022   6.637   3.576   4.011
10226SOL    HW231023   6.728   3.594   3.876
10227SOL     OW31024   5.788   2.147   5.222
10227SOL    HW131025   5.708   2.207   5.209
10227SOL    HW231026   5.778   2.098   5.308
10228SOL     OW31027   7.218   3.239   3.805
10228SOL    HW131028   7.186   3.333   3.795
10228SOL    HW231029   7.142   3.176   3.793
10229SOL     OW31030   6.050   3.605   4.047
10229SOL    HW131031   6.083   3.644   4.133
10229SOL    HW231032   6.126   3.598   3.982
10230SOL     OW31033   6.986   1.969   4.150
10230SOL    HW131034   6.962   1.932   4.060
10230SOL    HW231035   7.085   1.985   4.154
10231SOL     OW31036   5.835   3.647   4.965
10231SOL    HW131037   5.892   3.582   5.015
10231SOL    HW231038   5.819   3.614   4.872
10232SOL     OW31039   6.526   3.560   4.628
10232SOL    HW131040   6.606   3.503   4.649
10232SOL    HW231041   6.477   3.520   4.551
10233SOL     OW31042   5.968   2.562   4.204
10233SOL    HW131043   6.013   2.472   4.201
10233SOL    HW231044   5.874   2.551   4.237
10234SOL     OW31045   7.133   2.084   5.453
10234SOL    HW131046   7.128   2.121   5.545
10234SOL    HW231047   7.061   2.015   5.441
10235SOL     OW31048   6.200   1.984   3.841
10235SOL    HW131049   6.298   1.962   3.848
10235SOL    HW231050   6.169   1.967   3.748
10236SOL     OW31051   6.367   2.126   5.473
10236SOL    HW131052   6.434   2.065   5.516
10236SOL    HW231053   6.294   2.145   5.538
10237SOL     OW31054   6.474   3.376   4.919
10237SOL    HW131055   6.451   3.351   4.825
10237SOL    HW231056   6.535   3.307   4.958
10238SOL     OW31057   6.937   2.452   5.157
10238SOL    HW131058   6.965   2.409   5.242
10238SOL    HW231059   6.962   2.548   5.158
10239SOL     OW31060   6.389   3.264   4.648
10239SOL    HW131061   6.479   3.278   4.606
10239SOL    HW231062   6.318   3.266   4.577
10240SOL     OW31063   6.508   2.365   4.623
10240SOL    HW131064   6.483   2.356   4.527
10240SOL    HW231065   6.556   2.283   4.654
10241SOL     OW31066   6.125   1.926   4.236
10241SOL    HW131067   6.044   1.927   4.294
10241SOL    HW231068   6.128   2.009   4.181
10242SOL     OW31069   7.020   3.050   3.765
10242SOL    HW131070   7.052   2.974   3.822
10242SOL    HW231071   6.928   3.077   3.795
10243SOL     OW31072   5.883   1.897   3.895
10243SOL    HW131073   5.932   1.981   3.874
10243SOL    HW231074   5.945   1.832   3.940
10244SOL     OW31075   6.521   2.098   4.204
10244SOL    HW131076   6.473   2.139   4.126
10244SOL    HW231077   6.620   2.096   4.185
10245SOL     OW31078   6.662   2.545   5.188
10245SOL    HW131079   6.582   2.484   5.191
10245SOL    HW231080   6.743   2.492   5.164
10246SOL     OW31081   6.813   3.432   4.517
10246SOL    HW131082   6.834   3.506   4.452
10246SOL    HW231083   6.881   3.432   4.590
10247SOL     OW31084   6.045   3.014   4.465
10247SOL    HW131085   5.974   2.987   4.530
10247SOL    HW231086   6.019   2.986   4.372
10248SOL     OW31087   6.857   3.659   4.315
10248SOL    HW131088   6.901   3.723   4.251
10248SOL    HW231089   6.807   3.711   4.385
10249SOL     OW31090   6.618   2.411   3.740
10249SOL    HW131091   6.577   2.493   3.701
10249SOL    HW231092   6.682   2.437   3.813
10250SOL     OW31093   5.664   2.418   5.110
10250SOL    HW131094   5.756   2.417   5.069
10250SOL    HW231095   5.658   2.492   5.177
10251SOL     OW31096   6.147   2.084   4.871
10251SOL    HW131097   6.185   2.000   4.908
10251SOL    HW231098   6.059   2.103   4.915
10252SOL     OW31099   6.452   2.316   4.366
10252SOL    HW131100   6.420   2.388   4.304
10252SOL    HW231101   6.476   2.235   4.313
10253SOL     OW31102   6.603   1.901   4.477
10253SOL    HW131103   6.531   1.906   4.408
10253SOL    HW231104   6.579   1.832   4.546
10254SOL     OW31105   7.015   3.035   4.591
10254SOL    HW131106   6.960   2.951   4.584
10254SOL    HW231107   7.041   3.064   4.499
10255SOL     OW31108   7.052   2.452   4.716
10255SOL    HW131109   7.022   2.357   4.723
10255SOL    HW231110   7.125   2.468   4.782
10256SOL     OW31111   7.443   2.695   4.101
10256SOL    HW131112   7.485   2.631   4.165
10256SOL    HW231113   7.405   2.644   4.023
10257SOL     OW31114   6.074   3.247   3.898
10257SOL    HW131115   5.987   3.232   3.945
10257SOL    HW231116   6.057   3.273   3.803
10258SOL     OW31117   7.250   3.142   4.381
10258SOL    HW131118   7.349   3.150   4.395
10258SOL    HW231119   7.205   3.226   4.412
10259SOL     OW31120   6.976   2.437   3.802
10259SOL    HW131121   6.922   2.416   3.883
10259SOL    HW231122   7.067   2.396   3.811
10260SOL     OW31123   6.113   2.118   4.052
10260SOL    HW131124   6.140   2.059   3.977
10260SOL    HW231125   6.113   2.213   4.021
10261SOL     OW31126   7.340   3.085   5.312
10261SOL    HW131127   7.431   3.046   5.299
10261SOL    HW231128   7.348   3.181   5.336
10262SOL     OW31129   6.650   3.209   5.064
10262SOL    HW131130   6.570   3.186   5.119
10262SOL    HW231131   6.733   3.183   5.113
10263SOL     OW31132   7.178   3.491   5.349
10263SOL    HW131133   7.205   3.525   5.259
10263SOL    HW231134   7.257   3.453   5.395
10264SOL     OW31135   6.697   3.057   4.824
10264SOL    HW131136   6.657   3.101   4.905
10264SOL    HW231137   6.656   3.094   4.741
10265SOL     OW31138   7.224   2.961   4.803
10265SOL    HW131139   7.229   3.042   4.862
10265SOL    HW231140   7.138   2.963   4.752
10266SOL     OW31141   6.501   1.951   5.126
10266SOL    HW131142   6.526   1.931   5.031
10266SOL    HW231143   6.573   2.007   5.168
10267SOL     OW31144   6.566   2.978   5.443
10267SOL    HW131145   6.467   2.984   5.453
10267SOL    HW231146   6.589   2.898   5.387
10268SOL     OW31147   6.291   2.912   4.092
10268SOL    HW131148   6.277   2.919   4.191
10268SOL    HW231149   6.375   2.861   4.074
10269SOL     OW31150   5.996   2.675   4.975
10269SOL    HW131151   6.082   2.687   5.025
10269SOL    HW231152   5.954   2.588   5.002
10270SOL     OW31153   6.860   2.248   4.986
10270SOL    HW131154   6.881   2.322   5.050
10270SOL    HW231155   6.771   2.265   4.943
10271SOL     OW31156   5.650   3.426   5.055
10271SOL    HW131157   5.604   3.508   5.021
10271SOL    HW231158   5.748   3.445   5.064
10272SOL     OW31159   5.953   2.962   4.225
10272SOL    HW131160   5.946   3.045   4.169
10272SOL    HW231161   5.957   2.882   4.165
10273SOL     OW31162   6.152   2.399   4.589
10273SOL    HW131163   6.164   2.465   4.515
10273SOL    HW231164   6.198   2.433   4.672
10274SOL     OW31165   6.838   3.210   4.112
10274SOL    HW131166   6.888   3.287   4.152
10274SOL    HW231167   6.743   3.212   4.144
10275SOL     OW31168   6.858   3.307   4.866
10275SOL    HW131169   6.905   3.320   4.953
10275SOL    HW231170   6.792   3.233   4.875
10276SOL     OW31171   7.168   2.501   4.196
10276SOL    HW131172   7.137   2.562   4.269
10276SOL    HW231173   7.218   2.553   4.127
10277SOL     OW31174   5.940   3.372   5.053
10277SOL    HW131175   5.919   3.328   4.966
10277SOL    HW231176   6.037   3.398   5.056
10278SOL     OW31177   5.988   2.613   5.322
10278SOL    HW131178   6.056   2.668   5.275
10278SOL    HW231179   6.028   2.525   5.349
10279SOL     OW31180   7.173   2.641   5.394
10279SOL    HW131181   7.081   2.679   5.389
10279SOL    HW231182   7.233   2.688   5.329
10280SOL     OW31183   6.599   1.967   5.494
10280SOL    HW131184   6.605   2.052   5.442
10280SOL    HW231185   6.631   1.891   5.437
10281SOL     OW31186   6.090   1.912   5.464
10281SOL    HW131187   6.048   1.855   5.394
10281SOL    HW231188   6.024   1.981   5.496
10282SOL     OW31189   6.159   2.732   4.753
10282SOL    HW131190   6.203   2.821   4.744
10282SOL    HW231191   6.096   2.732   4.830
10283SOL     OW31192   6.946   2.724   4.769
10283SOL    HW131193   6.871   2.724   4.703
10283SOL    HW231194   6.983   2.632   4.778
10284SOL     OW31195   6.795   2.387   3.999
10284SOL    HW131196   6.808   2.303   4.053
10284SOL    HW231197   6.766   2.461   4.059
10285SOL     OW31198   5.893   2.075   4.955
10285SOL    HW131199   5.870   2.112   5.045
10285SOL    HW231200   5.863   1.980   4.949
10286SOL     OW31201   5.623   3.172   5.006
10286SOL    HW131202   5.676   3.123   5.074
10286SOL    HW231203   5.645   3.270   5.011
10287SOL     OW31204   6.318   2.496   4.788
10287SOL    HW131205   6.377   2.470   4.712
10287SOL    HW231206   6.290   2.592   4.777
10288SOL     OW31207   7.314   2.797   5.578
10288SOL    HW131208   7.268   2.790   5.489
10288SOL    HW231209   7.252   2.841   5.644
10289SOL     OW31210   5.893   1.925   4.342
10289SOL    HW131211   5.882   2.019   4.375
10289SOL    HW231212   5.888   1.862   4.419
10290SOL     OW31213   7.208   2.229   4.098
10290SOL    HW131214   7.210   2.153   4.162
10290SOL    HW231215   7.160   2.306   4.138
10291SOL     OW31216   6.609   2.628   4.690
10291SOL    HW131217   6.624   2.649   4.786
10291SOL    HW231218   6.579   2.533   4.681
10292SOL     OW31219   6.566   3.435   5.424
10292SOL    HW131220   6.546   3.479   5.336
10292SOL    HW231221   6.605   3.344   5.408
10293SOL     OW31222   7.445   3.380   5.329
10293SOL    HW131223   7.459   3.407   5.234
10293SOL    HW231224   7.528   3.402   5.382
10294SOL     OW31225   5.936   2.760   5.528
10294SOL    HW131226   6.012   2.804   5.576
10294SOL    HW231227   5.971   2.713   5.446
10295SOL     OW31228   7.126   2.136   3.849
10295SOL    HW131229   7.065   2.061   3.872
10295SOL    HW231230   7.148   2.188   3.932
10296SOL     OW31231   6.889   2.700   3.766
10296SOL    HW131232   6.923   2.607   3.781
10296SOL    HW231233   6.907   2.727   3.671
10297SOL     OW31234   6.654   3.195   4.573
10297SOL    HW131235   6.661   3.111   4.518
10297SOL    HW231236   6.716   3.264   4.537
10298SOL     OW31237   5.905   2.672   4.673
10298SOL    HW131238   5.998   2.708   4.678
10298SOL    HW231239   5.899   2.587   4.725
10299SOL     OW31240   5.925   2.371   4.730
10299SOL    HW131241   5.873   2.288   4.713
10299SOL    HW231242   6.002   2.376   4.666
10300SOL     OW31243   6.724   2.242   5.402
10300SOL    HW131244   6.679   2.305   5.466
10300SOL    HW231245   6.817   2.273   5.385
10301SOL     OW31246   6.746   2.069   5.201
10301SOL    HW131247   6.746   2.133   5.278
10301SOL    HW231248   6.774   2.117   5.118
10302SOL     OW31249   5.594   3.188   3.924
10302SOL    HW131250   5.501   3.209   3.893
10302SOL    HW231251   5.604   3.089   3.937
10303SOL     OW31252   5.674   3.663   4.651
10303SOL    HW131253   5.632   3.577   4.624
10303SOL    HW231254   5.768   3.666   4.617
10304SOL     OW31255   6.090   3.430   4.634
10304SOL    HW131256   6.156   3.504   4.643
10304SOL    HW231257   6.134   3.351   4.592
10305SOL     OW31258   6.588   2.658   4.962
10305SOL    HW131259   6.629   2.626   5.048
10305SOL    HW231260   6.492   2.631   4.959
10306SOL     OW31261   5.626   2.406   4.838
10306SOL    HW131262   5.711   2.373   4.797
10306SOL    HW231263   5.639   2.421   4.936
10307SOL     OW31264   5.775   2.382   5.446
10307SOL    HW131265   5.834   2.342   5.376
10307SOL    HW231266   5.717   2.453   5.405
10308SOL     OW31267   6.955   2.812   5.384
10308SOL    HW131268   6.994   2.901   5.404
10308SOL    HW231269   6.965   2.792   5.287
10309SOL     OW31270   6.401   2.434   4.049
10309SOL    HW131271   6.408   2.345   4.003
10309SOL    HW231272   6.307   2.468   4.041
10310SOL     OW31273   7.243   2.466   4.930
10310SOL    HW131274   7.205   2.397   4.992
10310SOL    HW231275   7.325   2.430   4.886
10311SOL     OW31276   5.838   3.426   5.468
10311SOL    HW131277   5.808   3.483   5.544
10311SOL    HW231278   5.831   3.329   5.494
10312SOL     OW31279   6.257   2.326   4.993
10312SOL    HW131280   6.223   2.237   4.963
10312SOL    HW231281   6.283   2.380   4.913
10313SOL     OW31282   6.516   3.540   5.189
10313SOL    HW131283   6.492   3.522   5.094
10313SOL    HW231284   6.546   3.634   5.199
10314SOL     OW31285   6.059   2.362   3.915
10314SOL    HW131286   6.120   2.442   3.919
10314SOL    HW231287   5.964   2.393   3.922
10315SOL     OW31288   5.745   2.999   5.190
10315SOL    HW131289   5.767   2.938   5.266
10315SOL    HW231290   5.755   2.950   5.104
10316SOL     OW31291   6.933   2.921   4.958
10316SOL    HW131292   6.957   2.858   4.884
10316SOL    HW231293   6.843   2.961   4.940
10317SOL     OW31294   6.888   2.717   4.033
10317SOL    HW131295   6.802   2.686   4.075
10317SOL    HW231296   6.884   2.703   3.934
10318SOL     OW31297   7.345   3.609   4.878
10318SOL    HW131298   7.406   3.639   4.805
10318SOL    HW231299   7.307   3.520   4.856
10319SOL     OW31300   6.838   3.593   4.852
10319SOL    HW131301   6.922   3.598   4.798
10319SOL    HW231302   6.815   3.497   4.870
10320SOL     OW31303   5.669   3.120   4.746
10320SOL    HW131304   5.664   3.119   4.846
10320SOL    HW231305   5.586   3.079   4.708
10321SOL     OW31306   6.274   3.524   5.440
10321SOL    HW131307   6.218   3.605   5.449
10321SOL    HW231308   6.326   3.528   5.354
10322SOL     OW31309   7.312   1.997   4.247
10322SOL    HW131310   7.385   1.980   4.180
10322SOL    HW231311   7.281   1.910   4.285
10323SOL     OW31312   6.974   3.435   4.201
10323SOL    HW131313   7.041   3.447   4.127
10323SOL    HW231314   6.934   3.524   4.224
10324SOL     OW31315   5.716   3.656   5.575
10324SOL    HW131316   5.675   3.582   5.628
10324SOL    HW231317   5.780   3.707   5.633
10325SOL     OW31318   6.866   2.789   4.396
10325SOL    HW131319   6.926   2.708   4.398
10325SOL    HW231320   6.906   2.858   4.336
10326SOL     OW31321   6.416   3.135   5.146
10326SOL    HW131322   6.411   3.168   5.241
10326SOL    HW231323   6.330   3.154   5.100
10327SOL     OW31324   6.258   3.478   3.878
10327SOL    HW131325   6.267   3.488   3.779
10327SOL    HW231326   6.218   3.389   3.899
10328SOL     OW31327   7.236   3.582   5.118
10328SOL    HW131328   7.289   3.592   5.034
10328SOL    HW231329   7.209   3.672   5.152
10329SOL     OW31330   7.427   2.037   4.687
10329SOL    HW131331   7.466   1.952   4.651
10329SOL    HW231332   7.329   2.039   4.668
10330SOL     OW31333   5.849   2.188   4.444
10330SOL    HW131334   5.770   2.239   4.410
10330SOL    HW231335   5.840   2.173   4.542
10331SOL     OW31336   6.780   3.474   3.755
10331SOL    HW131337   6.786   3.381   3.792
10331SOL    HW231338   6.721   3.474   3.675
10332SOL     OW31339   6.408   2.864   5.096
10332SOL    HW131340   6.448   2.863   5.004
10332SOL    HW231341   6.418   2.956   5.136
10333SOL     OW31342   6.502   2.772   4.015
10333SOL    HW131343   6.565   2.810   3.947
10333SOL    HW231344   6.542   2.689   4.054
10334SOL     OW31345   7.090   3.469   3.768
10334SOL    HW131346   6.998   3.506   3.775
10334SOL    HW231347   7.128   3.489   3.678
10335SOL     OW31348   5.958   3.150   5.214
10335SOL    HW131349   5.945   3.243   5.180
10335SOL    HW231350   5.874   3.098   5.201
10336SOL     OW31351   7.200   3.154   5.013
10336SOL    HW131352   7.260   3.157   5.093
10336SOL    HW231353   7.125   3.218   5.026
10337SOL     OW31354   6.625   2.960   4.420
10337SOL    HW131355   6.555   2.913   4.474
10337SOL    HW231356   6.684   2.892   4.377
10338SOL     OW31357   6.600   2.098   4.695
10338SOL    HW131358   6.592   2.062   4.602
10338SOL    HW231359   6.598   2.022   4.760
10339SOL     OW31360   6.176   3.349   4.215
10339SOL    HW131361   6.218   3.291   4.145
10339SOL    HW231362   6.132   3.428   4.171
10340SOL     OW31363   7.295   2.247   5.105
10340SOL    HW131364   7.368   2.316   5.109
10340SOL    HW231365   7.323   2.172   5.046
10341SOL     OW31366   5.841   3.210   4.014
10341SOL    HW131367   5.745   3.211   3.987
10341SOL    HW231368   5.853   3.263   4.098
10342SOL     OW31369   5.691   2.875   5.450
10342SOL    HW131370   5.614   2.842   5.504
10342SOL    HW231371   5.776   2.845   5.492
10343SOL     OW31372   6.258   2.065   5.213
10343SOL    HW131373   6.348   2.049   5.173
10343SOL    HW231374   6.266   2.070   5.312
10344SOL     OW31375   5.661   2.207   3.757
10344SOL    HW131376   5.569   2.179   3.728
10344SOL    HW231377   5.692   2.284   3.701
10345SOL     OW31378   7.026   2.718   5.122
10345SOL    HW131379   6.969   2.770   5.059
10345SOL    HW231380   7.122   2.730   5.098
10346SOL     OW31381   5.658   2.028   4.042
10346SOL    HW131382   5.641   2.111   3.988
10346SOL    HW231383   5.748   1.991   4.020
10347SOL     OW31384   6.769   3.197   3.843
10347SOL    HW131385   6.670   3.186   3.845
10347SOL    HW231386   6.803   3.212   3.936
10348SOL     OW31387   6.199   2.704   5.155
10348SOL    HW131388   6.255   2.785   5.138
10348SOL    HW231389   6.258   2.624   5.158
10349SOL     OW31390   7.079   3.629   4.683
10349SOL    HW131391   7.112   3.693   4.614
10349SOL    HW231392   7.145   3.623   4.758
10350SOL     OW31393   6.302   2.427   5.432
10350SOL    HW131394   6.321   2.492   5.506
10350SOL    HW231395   6.362   2.347   5.441
10351SOL     OW31396   7.036   3.082   5.357
10351SOL    HW131397   7.027   3.072   5.456
10351SOL    HW231398   7.132   3.075   5.331
10352SOL     OW31399   5.976   3.603   5.284
10352SOL    HW131400   5.885   3.644   5.282
10352SOL    HW231401   5.969   3.509   5.316
10353SOL     OW31402   7.260   2.745   4.978
10353SOL    HW131403   7.233   2.656   4.941
10353SOL    HW231404   7.261   2.813   4.905
10354SOL     OW31405   6.811   2.187   4.173
10354SOL    HW131406   6.876   2.113   4.162
10354SOL    HW231407   6.831   2.237   4.257
10355SOL     OW31408   6.180   2.607   4.376
10355SOL    HW131409   6.230   2.692   4.357
10355SOL    HW231410   6.092   2.609   4.328
10356SOL     OW31411   7.363   2.204   5.366
10356SOL    HW131412   7.346   2.235   5.272
10356SOL    HW231413   7.279   2.167   5.404
10357SOL     OW31414   7.316   2.796   5.241
10357SOL    HW131415   7.354   2.887   5.256
10357SOL    HW231416   7.308   2.779   5.142
10358SOL     OW31417   6.445   3.236   3.740
10358SOL    HW131418   6.399   3.251   3.828
10358SOL    HW231419   6.489   3.321   3.710
10359SOL     OW31420   6.247   3.652   4.677
10359SOL    HW131421   6.201   3.740   4.664
10359SOL    HW231422   6.346   3.664   4.670
10360SOL     OW31423   6.445   2.818   4.585
10360SOL    HW131424   6.499   2.749   4.633
10360SOL    HW231425   6.413   2.887   4.651
10361SOL     OW31426   6.669   2.846   3.811
10361SOL    HW131427   6.646   2.899   3.729
10361SOL    HW231428   6.750   2.790   3.792
10362SOL     OW31429   7.447   3.431   4.575
10362SOL    HW131430   7.376   3.419   4.505
10362SOL    HW231431   7.448   3.352   4.635
10363SOL     OW31432   5.807   3.176   5.568
10363SOL    HW131433   5.742   3.103   5.547
10363SOL    HW231434   5.811   3.190   5.666
10364SOL     OW31435   5.665   3.102   4.377
10364SOL    HW131436   5.664   3.055   4.465
10364SOL    HW231437   5.747   3.074   4.326
10365SOL     OW31438   6.258   3.253   5.348
10365SOL    HW131439   6.180   3.203   5.386
10365SOL    HW231440   6.255   3.348   5.379
10366SOL     OW31441   7.410   2.054   4.951
10366SOL    HW131442   7.406   1.964   4.995
10366SOL    HW231443   7.413   2.043   4.852
10367SOL     OW31444   6.014   2.286   4.244
10367SOL    HW131445   6.044   2.214   4.182
10367SOL    HW231446   5.975   2.246   4.327
10368SOL     OW31447   7.291   3.349   4.828
10368SOL    HW131448   7.198   3.324   4.801
10368SOL    HW231449   7.317   3.299   4.910
10369SOL     OW31450   5.903   2.409   5.004
10369SOL    HW131451   5.941   2.350   5.076
10369SOL    HW231452   5.943   2.383   4.916
10370SOL     OW31453   6.398   3.448   4.411
10370SOL    HW131454   6.430   3.458   4.317
10370SOL    HW231455   6.319   3.386   4.413
10371SOL     OW31456   7.010   2.076   4.836
10371SOL    HW131457   7.062   2.011   4.891
10371SOL    HW231458   6.961   2.139   4.897
10372SOL     OW31459   6.587   1.896   4.878
10372SOL    HW131460   6.524   1.824   4.847
10372SOL    HW231461   6.680   1.860   4.878
10373SOL     OW31462   6.356   3.192   4.025
10373SOL    HW131463   6.310   3.105   4.042
10373SOL    HW231464   6.447   3.189   4.066
10374SOL     OW31465   6.204   3.429   5.008
10374SOL    HW131466   6.199   3.511   5.065
10374SOL    HW231467   6.293   3.426   4.963
10375SOL     OW31468   6.938   1.914   3.892
10375SOL    HW131469   6.973   1.873   3.808
10375SOL    HW231470   6.848   1.876   3.912
10376SOL     OW31471   6.886   2.315   4.415
10376SOL    HW131472   6.827   2.395   4.419
10376SOL    HW231473   6.901   2.280   4.508
10377SOL     OW31474   7.179   2.083   4.606
10377SOL    HW131475   7.095   2.082   4.660
10377SOL    HW231476   7.181   2.166   4.550
10378SOL     OW31477   5.625   2.939   4.024
10378SOL    HW131478   5.724   2.928   4.015
10378SOL    HW231479   5.585   2.853   4.056
10379SOL     OW31480   6.461   3.508   4.061
10379SOL    HW131481   6.384   3.473   4.007
10379SOL    HW231482   6.429   3.579   4.123
10380SOL     OW31483   5.816   2.490   5.699
10380SOL    HW131484   5.723   2.488   5.736
10380SOL    HW231485   5.817   2.451   5.607
10381SOL     OW31486   5.811   2.137   6.582
10381SOL    HW131487   5.846   2.120   6.674
10381SOL    HW231488   5.723   2.092   6.570
10382SOL     OW31489   5.605   2.230   6.233
10382SOL    HW131490   5.523   2.273   6.272
10382SOL    HW231491   5.577   2.157   6.170
10383SOL     OW31492   7.141   3.373   6.289
10383SOL    HW131493   7.084   3.357   6.370
10383SOL    HW231494   7.082   3.383   6.209
10384SOL     OW31495   6.721   2.565   6.303
10384SOL    HW131496   6.778   2.643   6.278
10384SOL    HW231497   6.661   2.591   6.379
10385SOL     OW31498   7.341   2.469   5.817
10385SOL    HW131499   7.329   2.456   5.718
10385SOL    HW231500   7.311   2.388   5.866
10386SOL     OW31501   6.271   2.874   6.251
10386SOL    HW131502   6.340   2.858   6.321
10386SOL    HW231503   6.198   2.931   6.289
10387SOL     OW31504   7.189   2.309   6.323
10387SOL    HW131505   7.115   2.355   6.273
10387SOL    HW231506   7.240   2.377   6.376
10388SOL     OW31507   5.817   3.575   6.069
10388SOL    HW131508   5.851   3.652   6.123
10388SOL    HW231509   5.861   3.575   5.979
10389SOL     OW31510   5.816   3.296   6.124
10389SOL    HW131511   5.790   3.392   6.124
10389SOL    HW231512   5.745   3.242   6.169
10390SOL     OW31513   6.192   2.826   5.709
10390SOL    HW131514   6.199   2.910   5.655
10390SOL    HW231515   6.238   2.839   5.797
10391SOL     OW31516   5.708   2.505   6.149
10391SOL    HW131517   5.663   2.417   6.166
10391SOL    HW231518   5.707   2.559   6.233
10392SOL     OW31519   7.428   3.629   5.945
10392SOL    HW131520   7.482   3.600   6.025
10392SOL    HW231521   7.458   3.719   5.916
10393SOL     OW31522   5.613   3.458   5.703
10393SOL    HW131523   5.594   3.362   5.724
10393SOL    HW231524   5.580   3.516   5.778
10394SOL     OW31525   7.275   2.784   6.198
10394SOL    HW131526   7.370   2.755   6.206
10394SOL    HW231527   7.267   2.849   6.123
10395SOL     OW31528   7.227   2.970   6.018
10395SOL    HW131529   7.313   2.972   5.966
10395SOL    HW231530   7.241   3.017   6.106
10396SOL     OW31531   6.199   3.227   6.312
10396SOL    HW131532   6.150   3.140   6.321
10396SOL    HW231533   6.176   3.270   6.225
10397SOL     OW31534   6.395   1.866   6.088
10397SOL    HW131535   6.435   1.957   6.079
10397SOL    HW231536   6.295   1.874   6.094
10398SOL     OW31537   7.111   2.861   5.776
10398SOL    HW131538   7.048   2.785   5.789
10398SOL    HW231539   7.159   2.879   5.862
10399SOL     OW31540   7.253   3.576   6.158
10399SOL    HW131541   7.212   3.553   6.070
10399SOL    HW231542   7.235   3.502   6.223
10400SOL     OW31543   6.184   2.591   5.856
10400SOL    HW131544   6.208   2.660   5.788
10400SOL    HW231545   6.106   2.624   5.910
10401SOL     OW31546   6.867   2.207   6.530
10401SOL    HW131547   6.781   2.157   6.517
10401SOL    HW231548   6.929   2.153   6.586
10402SOL     OW31549   7.162   3.524   5.893
10402SOL    HW131550   7.251   3.570   5.896
10402SOL    HW231551   7.141   3.500   5.798
10403SOL     OW31552   6.577   2.272   6.828
10403SOL    HW131553   6.500   2.306   6.882
10403SOL    HW231554   6.543   2.221   6.749
10404SOL     OW31555   6.627   2.563   6.015
10404SOL    HW131556   6.653   2.559   6.111
10404SOL    HW231557   6.542   2.512   6.001
10405SOL     OW31558   6.451   2.210   5.781
10405SOL    HW131559   6.510   2.273   5.732
10405SOL    HW231560   6.470   2.116   5.752
10406SOL     OW31561   6.948   3.006   6.131
10406SOL    HW131562   7.031   2.977   6.083
10406SOL    HW231563   6.899   3.073   6.075
10407SOL     OW31564   6.594   3.318   6.063
10407SOL    HW131565   6.548   3.390   6.011
10407SOL    HW231566   6.590   3.338   6.161
10408SOL     OW31567   5.937   3.663   6.439
10408SOL    HW131568   5.987   3.577   6.445
10408SOL    HW231569   6.002   3.740   6.436
10409SOL     OW31570   5.907   2.805   5.828
10409SOL    HW131571   5.989   2.844   5.786
10409SOL    HW231572   5.880   2.723   5.779
10410SOL     OW31573   7.044   2.597   6.314
10410SOL    HW131574   7.039   2.532   6.389
10410SOL    HW231575   7.124   2.656   6.327
10411SOL     OW31576   6.697   3.638   5.823
10411SOL    HW131577   6.637   3.576   5.873
10411SOL    HW231578   6.728   3.594   5.738
10412SOL     OW31579   7.218   3.239   5.667
10412SOL    HW131580   7.186   3.333   5.657
10412SOL    HW231581   7.142   3.176   5.655
10413SOL     OW31582   6.050   3.605   5.909
10413SOL    HW131583   6.083   3.644   5.995
10413SOL    HW231584   6.126   3.598   5.844
10414SOL     OW31585   6.986   1.969   6.012
10414SOL    HW131586   6.962   1.932   5.922
10414SOL    HW231587   7.085   1.985   6.016
10415SOL     OW31588   5.835   3.647   6.827
10415SOL    HW131589   5.892   3.582   6.877
10415SOL    HW231590   5.819   3.614   6.734
10416SOL     OW31591   6.526   3.560   6.490
10416SOL    HW131592   6.606   3.503   6.511
10416SOL    HW231593   6.477   3.520   6.413
10417SOL     OW31594   5.968   2.562   6.066
10417SOL    HW131595   6.013   2.472   6.063
10417SOL    HW231596   5.874   2.551   6.099
10418SOL     OW31597   6.200   1.984   5.703
10418SOL    HW131598   6.298   1.962   5.710
10418SOL    HW231599   6.169   1.967   5.610
10419SOL     OW31600   6.389   3.264   6.510
10419SOL    HW131601   6.479   3.278   6.468
10419SOL    HW231602   6.318   3.266   6.439
10420SOL     OW31603   6.125   1.926   6.098
10420SOL    HW131604   6.044   1.927   6.156
10420SOL    HW231605   6.128   2.009   6.043
10421SOL     OW31606   7.020   3.050   5.627
10421SOL    HW131607   7.052   2.974   5.684
10421SOL    HW231608   6.928   3.077   5.657
10422SOL     OW31609   5.883   1.897   5.757
10422SOL    HW131610   5.932   1.981   5.736
10422SOL    HW231611   5.945   1.832   5.802
10423SOL     OW31612   6.521   2.098   6.066
10423SOL    HW131613   6.473   2.139   5.988
10423SOL    HW231614   6.620   2.096   6.047
10424SOL     OW31615   6.813   3.432   6.379
10424SOL    HW131616   6.834   3.506   6.314
10424SOL    HW231617   6.881   3.432   6.452
10425SOL     OW31618   6.045   3.014   6.327
10425SOL    HW131619   5.974   2.987   6.392
10425SOL    HW231620   6.019   2.986   6.234
10426SOL     OW31621   6.857   3.659   6.177
10426SOL    HW131622   6.901   3.723   6.113
10426SOL    HW231623   6.807   3.711   6.247
10427SOL     OW31624   6.618   2.411   5.602
10427SOL    HW131625   6.577   2.493   5.563
10427SOL    HW231626   6.682   2.437   5.675
10428SOL     OW31627   6.452   2.316   6.228
10428SOL    HW131628   6.420   2.388   6.166
10428SOL    HW231629   6.476   2.235   6.175
10429SOL     OW31630   6.603   1.901   6.339
10429SOL    HW131631   6.531   1.906   6.270
10429SOL    HW231632   6.579   1.832   6.408
10430SOL     OW31633   7.015   3.035   6.453
10430SOL    HW131634   6.960   2.951   6.446
10430SOL    HW231635   7.041   3.064   6.361
10431SOL     OW31636   7.052   2.452   6.578
10431SOL    HW131637   7.022   2.357   6.585
10431SOL    HW231638   7.125   2.468   6.644
10432SOL     OW31639   7.443   2.695   5.963
10432SOL    HW131640   7.485   2.631   6.027
10432SOL    HW231641   7.405   2.644   5.885
10433SOL     OW31642   6.074   3.247   5.760
10433SOL    HW131643   5.987   3.232   5.807
10433SOL    HW231644   6.057   3.273   5.665
10434SOL     OW31645   7.250   3.142   6.243
10434SOL    HW131646   7.349   3.150   6.257
10434SOL    HW231647   7.205   3.226   6.274
10435SOL     OW31648   6.976   2.437   5.664
10435SOL    HW131649   6.922   2.416   5.745
10435SOL    HW231650   7.067   2.396   5.673
10436SOL     OW31651   6.113   2.118   5.914
10436SOL    HW131652   6.140   2.059   5.839
10436SOL    HW231653   6.113   2.213   5.883
10437SOL     OW31654   7.224   2.961   6.665
10437SOL    HW131655   7.229   3.042   6.724
10437SOL    HW231656   7.138   2.963   6.614
10438SOL     OW31657   6.291   2.912   5.954
10438SOL    HW131658   6.277   2.919   6.053
10438SOL    HW231659   6.375   2.861   5.936
10439SOL     OW31660   5.953   2.962   6.087
10439SOL    HW131661   5.946   3.045   6.031
10439SOL    HW231662   5.957   2.882   6.027
10440SOL     OW31663   6.152   2.399   6.451
10440SOL    HW131664   6.164   2.465   6.377
10440SOL    HW231665   6.198   2.433   6.534
10441SOL     OW31666   6.838   3.210   5.974
10441SOL    HW131667   6.888   3.287   6.014
10441SOL    HW231668   6.743   3.212   6.006
10442SOL     OW31669   7.168   2.501   6.058
10442SOL    HW131670   7.137   2.562   6.131
10442SOL    HW231671   7.218   2.553   5.989
10443SOL     OW31672   6.795   2.387   5.861
10443SOL    HW131673   6.808   2.303   5.915
10443SOL    HW231674   6.766   2.461   5.921
10444SOL     OW31675   5.893   1.925   6.204
10444SOL    HW131676   5.882   2.019   6.237
10444SOL    HW231677   5.888   1.862   6.281
10445SOL     OW31678   7.208   2.229   5.960
10445SOL    HW131679   7.210   2.153   6.024
10445SOL    HW231680   7.160   2.306   6.000
10446SOL     OW31681   7.126   2.136   5.711
10446SOL    HW131682   7.065   2.061   5.734
10446SOL    HW231683   7.148   2.188   5.794
10447SOL     OW31684   6.889   2.700   5.628
10447SOL    HW131685   6.923   2.607   5.643
10447SOL    HW231686   6.907   2.727   5.533
10448SOL     OW31687   6.654   3.195   6.435
10448SOL    HW131688   6.661   3.111   6.380
10448SOL    HW231689   6.716   3.264   6.399
10449SOL     OW31690   5.594   3.188   5.786
10449SOL    HW131691   5.501   3.209   5.755
10449SOL    HW231692   5.604   3.089   5.799
10450SOL     OW31693   5.674   3.663   6.513
10450SOL    HW131694   5.632   3.577   6.486
10450SOL    HW231695   5.768   3.666   6.479
10451SOL     OW31696   6.401   2.434   5.911
10451SOL    HW131697   6.408   2.345   5.865
10451SOL    HW231698   6.307   2.468   5.903
10452SOL     OW31699   6.059   2.362   5.777
10452SOL    HW131700   6.120   2.442   5.781
10452SOL    HW231701   5.964   2.393   5.784
10453SOL     OW31702   6.888   2.717   5.895
10453SOL    HW131703   6.802   2.686   5.937
10453SOL    HW231704   6.884   2.703   5.796
10454SOL     OW31705   7.312   1.997   6.109
10454SOL    HW131706   7.385   1.980   6.042
10454SOL    HW231707   7.281   1.910   6.147
10455SOL     OW31708   6.974   3.435   6.063
10455SOL    HW131709   7.041   3.447   5.989
10455SOL    HW231710   6.934   3.524   6.086
10456SOL     OW31711   6.866   2.789   6.258
10456SOL    HW131712   6.926   2.708   6.260
10456SOL    HW231713   6.906   2.858   6.198
10457SOL     OW31714   6.258   3.478   5.740
10457SOL    HW131715   6.267   3.488   5.641
10457SOL    HW231716   6.218   3.389   5.761
10458SOL     OW31717   7.427   2.037   6.549
10458SOL    HW131718   7.466   1.952   6.513
10458SOL    HW231719   7.329   2.039   6.530
10459SOL     OW31720   5.849   2.188   6.306
10459SOL    HW131721   5.770   2.239   6.272
10459SOL    HW231722   5.840   2.173   6.404
10460SOL     OW31723   6.780   3.474   5.617
10460SOL    HW131724   6.786   3.381   5.654
10460SOL    HW231725   6.721   3.474   5.537
10461SOL     OW31726   6.502   2.772   5.877
10461SOL    HW131727   6.565   2.810   5.809
10461SOL    HW231728   6.542   2.689   5.916
10462SOL     OW31729   7.090   3.469   5.630
10462SOL    HW131730   6.998   3.506   5.637
10462SOL    HW231731   7.128   3.489   5.540
10463SOL     OW31732   6.625   2.960   6.282
10463SOL    HW131733   6.555   2.913   6.336
10463SOL    HW231734   6.684   2.892   6.239
10464SOL     OW31735   6.176   3.349   6.077
10464SOL    HW131736   6.218   3.291   6.007
10464SOL    HW231737   6.132   3.428   6.033
10465SOL     OW31738   5.841   3.210   5.876
10465SOL    HW131739   5.745   3.211   5.849
10465SOL    HW231740   5.853   3.263   5.960
10466SOL     OW31741   5.661   2.207   5.619
10466SOL    HW131742   5.569   2.179   5.590
10466SOL    HW231743   5.692   2.284   5.563
10467SOL     OW31744   5.658   2.028   5.904
10467SOL    HW131745   5.641   2.111   5.850
10467SOL    HW231746   5.748   1.991   5.882
10468SOL     OW31747   6.769   3.197   5.705
10468SOL    HW131748   6.670   3.186   5.707
10468SOL    HW231749   6.803   3.212   5.798
10469SOL     OW31750   7.079   3.629   6.545
10469SOL    HW131751   7.112   3.693   6.476
10469SOL    HW231752   7.145   3.623   6.620
10470SOL     OW31753   6.811   2.187   6.035
10470SOL    HW131754   6.876   2.113   6.024
10470SOL    HW231755   6.831   2.237   6.119
10471SOL     OW31756   6.180   2.607   6.238
10471SOL    HW131757   6.230   2.692   6.219
10471SOL    HW231758   6.092   2.609   6.190
10472SOL     OW31759   6.445   3.236   5.602
10472SOL    HW131760   6.399   3.251   5.690
10472SOL    HW231761   6.489   3.321   5.572
10473SOL     OW31762   6.247   3.652   6.539
10473SOL    HW131763   6.201   3.740   6.526
10473SOL    HW231764   6.346   3.664   6.532
10474SOL     OW31765   6.445   2.818   6.447
10474SOL    HW131766   6.499   2.749   6.495
10474SOL    HW231767   6.413   2.887   6.513
10475SOL     OW31768   6.669   2.846   5.673
10475SOL    HW131769   6.646   2.899   5.591
10475SOL    HW231770   6.750   2.790   5.654
10476SOL     OW31771   5.665   3.102   6.239
10476SOL    HW131772   5.664   3.055   6.327
10476SOL    HW231773   5.747   3.074   6.188
10477SOL     OW31774   7.410   2.054   6.813
10477SOL    HW131775   7.406   1.964   6.857
10477SOL    HW231776   7.413   2.043   6.714
10478SOL     OW31777   6.014   2.286   6.106
10478SOL    HW131778   6.044   2.214   6.044
10478SOL    HW231779   5.975   2.246   6.189
10479SOL     OW31780   6.398   3.448   6.273
10479SOL    HW131781   6.430   3.458   6.179
10479SOL    HW231782   6.319   3.386   6.275
10480SOL     OW31783   6.356   3.192   5.887
10480SOL    HW131784   6.310   3.105   5.904
10480SOL    HW231785   6.447   3.189   5.928
10481SOL     OW31786   6.938   1.914   5.754
10481SOL    HW131787   6.973   1.873   5.670
10481SOL    HW231788   6.848   1.876   5.774
10482SOL     OW31789   6.886   2.315   6.277
10482SOL    HW131790   6.827   2.395   6.281
10482SOL    HW231791   6.901   2.280   6.370
10483SOL     OW31792   7.179   2.083   6.468
10483SOL    HW131793   7.095   2.082   6.522
10483SOL    HW231794   7.181   2.166   6.412
10484SOL     OW31795   5.625   2.939   5.886
10484SOL    HW131796   5.724   2.928   5.877
10484SOL    HW231797   5.585   2.853   5.918
10485SOL     OW31798   6.461   3.508   5.923
10485SOL    HW131799   6.384   3.473   5.869
10485SOL    HW231800   6.429   3.579   5.985
10486SOL     OW31801   5.811   3.999   0.996
10486SOL    HW131802   5.846   3.982   1.088
10486SOL    HW231803   5.723   3.954   0.984
10487SOL     OW31804   5.605   4.092   0.647
10487SOL    HW131805   5.523   4.135   0.686
10487SOL    HW231806   5.577   4.019   0.584
10488SOL     OW31807   6.155   4.999   1.165
10488SOL    HW131808   6.062   4.992   1.128
10488SOL    HW231809   6.166   5.088   1.209
10489SOL     OW31810   7.141   5.235   0.703
10489SOL    HW131811   7.084   5.219   0.784
10489SOL    HW231812   7.082   5.245   0.623
10490SOL     OW31813   6.721   4.427   0.717
10490SOL    HW131814   6.778   4.505   0.692
10490SOL    HW231815   6.661   4.453   0.793
10491SOL     OW31816   6.354   4.868   1.023
10491SOL    HW131817   6.276   4.885   1.083
10491SOL    HW231818   6.388   4.955   0.987
10492SOL     OW31819   6.436   4.522   1.823
10492SOL    HW131820   6.432   4.598   1.888
10492SOL    HW231821   6.458   4.558   1.732
10493SOL     OW31822   6.271   4.736   0.665
10493SOL    HW131823   6.340   4.720   0.735
10493SOL    HW231824   6.198   4.793   0.703
10494SOL     OW31825   6.272   4.885   1.803
10494SOL    HW131826   6.332   4.964   1.817
10494SOL    HW231827   6.186   4.916   1.762
10495SOL     OW31828   5.921   5.159   1.061
10495SOL    HW131829   5.843   5.128   1.008
10495SOL    HW231830   5.979   5.217   1.004
10496SOL     OW31831   7.046   5.229   1.339
10496SOL    HW131832   7.070   5.323   1.365
10496SOL    HW231833   7.030   5.175   1.421
10497SOL     OW31834   6.024   4.116   1.499
10497SOL    HW131835   6.106   4.060   1.508
10497SOL    HW231836   5.943   4.058   1.503
10498SOL     OW31837   7.189   4.171   0.737
10498SOL    HW131838   7.115   4.217   0.687
10498SOL    HW231839   7.240   4.239   0.790
10499SOL     OW31840   5.817   5.437   0.483
10499SOL    HW131841   5.851   5.514   0.537
10499SOL    HW231842   5.861   5.437   0.393
10500SOL     OW31843   6.713   5.065   1.690
10500SOL    HW131844   6.760   5.065   1.778
10500SOL    HW231845   6.665   4.978   1.679
10501SOL     OW31846   5.816   5.158   0.538
10501SOL    HW131847   5.790   5.254   0.538
10501SOL    HW231848   5.745   5.104   0.583
10502SOL     OW31849   5.826   4.815   0.886
10502SOL    HW131850   5.840   4.731   0.938
10502SOL    HW231851   5.771   4.879   0.941
10503SOL     OW31852   6.206   5.510   1.439
10503SOL    HW131853   6.114   5.493   1.474
10503SOL    HW231854   6.234   5.602   1.465
10504SOL     OW31855   7.180   3.838   1.480
10504SOL    HW131856   7.162   3.905   1.408
10504SOL    HW231857   7.177   3.884   1.569
10505SOL     OW31858   5.708   4.367   0.563
10505SOL    HW131859   5.663   4.279   0.580
10505SOL    HW231860   5.707   4.421   0.647
10506SOL     OW31861   7.275   4.646   0.612
10506SOL    HW131862   7.370   4.617   0.620
10506SOL    HW231863   7.267   4.711   0.537
10507SOL     OW31864   7.227   4.832   0.432
10507SOL    HW131865   7.313   4.834   0.380
10507SOL    HW231866   7.241   4.879   0.520
10508SOL     OW31867   5.699   4.461   1.597
10508SOL    HW131868   5.787   4.448   1.642
10508SOL    HW231869   5.686   4.558   1.575
10509SOL     OW31870   6.199   5.089   0.726
10509SOL    HW131871   6.150   5.002   0.735
10509SOL    HW231872   6.176   5.132   0.639
10510SOL     OW31873   6.879   4.952   1.423
10510SOL    HW131874   6.916   4.879   1.365
10510SOL    HW231875   6.931   4.957   1.508
10511SOL     OW31876   6.395   3.728   0.502
10511SOL    HW131877   6.435   3.819   0.493
10511SOL    HW231878   6.295   3.736   0.508
10512SOL     OW31879   5.783   4.700   1.264
10512SOL    HW131880   5.872   4.655   1.250
10512SOL    HW231881   5.710   4.635   1.245
10513SOL     OW31882   6.773   5.516   1.616
10513SOL    HW131883   6.797   5.576   1.540
10513SOL    HW231884   6.780   5.421   1.586
10514SOL     OW31885   5.903   3.975   1.801
10514SOL    HW131886   5.974   4.046   1.807
10514SOL    HW231887   5.815   4.014   1.829
10515SOL     OW31888   7.052   5.141   0.953
10515SOL    HW131889   6.993   5.147   1.033
10515SOL    HW231890   7.037   5.053   0.907
10516SOL     OW31891   7.253   5.438   0.572
10516SOL    HW131892   7.212   5.415   0.484
10516SOL    HW231893   7.235   5.364   0.637
10517SOL     OW31894   6.184   4.453   0.270
10517SOL    HW131895   6.208   4.522   0.202
10517SOL    HW231896   6.106   4.486   0.324
10518SOL     OW31897   6.867   4.069   0.944
10518SOL    HW131898   6.781   4.019   0.931
10518SOL    HW231899   6.929   4.015   1.000
10519SOL     OW31900   6.393   4.329   1.465
10519SOL    HW131901   6.346   4.326   1.554
10519SOL    HW231902   6.342   4.274   1.399
10520SOL     OW31903   6.980   4.193   1.674
10520SOL    HW131904   6.960   4.236   1.762
10520SOL    HW231905   7.058   4.131   1.683
10521SOL     OW31906   6.559   4.614   1.572
10521SOL    HW131907   6.605   4.530   1.543
10521SOL    HW231908   6.503   4.648   1.497
10522SOL     OW31909   6.577   4.134   1.242
10522SOL    HW131910   6.500   4.168   1.296
10522SOL    HW231911   6.543   4.083   1.163
10523SOL     OW31912   6.627   4.425   0.429
10523SOL    HW131913   6.653   4.421   0.525
10523SOL    HW231914   6.542   4.374   0.415
10524SOL     OW31915   5.662   4.535   0.789
10524SOL    HW131916   5.761   4.523   0.798
10524SOL    HW231917   5.638   4.630   0.810
10525SOL     OW31918   5.716   5.545   1.571
10525SOL    HW131919   5.706   5.530   1.670
10525SOL    HW231920   5.630   5.581   1.535
10526SOL     OW31921   6.451   4.072   0.195
10526SOL    HW131922   6.510   4.135   0.146
10526SOL    HW231923   6.470   3.978   0.166
10527SOL     OW31924   7.305   4.309   1.831
10527SOL    HW131925   7.279   4.398   1.795
10527SOL    HW231926   7.303   4.241   1.758
10528SOL     OW31927   6.948   4.868   0.545
10528SOL    HW131928   7.031   4.839   0.497
10528SOL    HW231929   6.899   4.935   0.489
10529SOL     OW31930   6.136   3.920   0.885
10529SOL    HW131931   6.131   3.915   0.985
10529SOL    HW231932   6.138   4.016   0.856
10530SOL     OW31933   6.594   5.180   0.477
10530SOL    HW131934   6.548   5.252   0.425
10530SOL    HW231935   6.590   5.200   0.575
10531SOL     OW31936   5.937   5.525   0.853
10531SOL    HW131937   5.987   5.439   0.859
10531SOL    HW231938   6.002   5.602   0.850
10532SOL     OW31939   7.381   4.790   0.873
10532SOL    HW131940   7.319   4.775   0.797
10532SOL    HW231941   7.329   4.801   0.958
10533SOL     OW31942   6.813   5.274   1.506
10533SOL    HW131943   6.819   5.197   1.570
10533SOL    HW231944   6.761   5.248   1.426
10534SOL     OW31945   7.044   4.459   0.728
10534SOL    HW131946   7.039   4.394   0.803
10534SOL    HW231947   7.124   4.518   0.741
10535SOL     OW31948   6.047   4.990   1.727
10535SOL    HW131949   5.997   4.991   1.641
10535SOL    HW231950   5.984   4.972   1.803
10536SOL     OW31951   5.788   4.009   1.498
10536SOL    HW131952   5.708   4.069   1.485
10536SOL    HW231953   5.778   3.960   1.584
10537SOL     OW31954   6.050   5.467   0.323
10537SOL    HW131955   6.083   5.506   0.409
10537SOL    HW231956   6.126   5.460   0.258
10538SOL     OW31957   5.835   5.509   1.241
10538SOL    HW131958   5.892   5.444   1.291
10538SOL    HW231959   5.819   5.476   1.148
10539SOL     OW31960   6.526   5.422   0.904
10539SOL    HW131961   6.606   5.365   0.925
10539SOL    HW231962   6.477   5.382   0.827
10540SOL     OW31963   5.968   4.424   0.480
10540SOL    HW131964   6.013   4.334   0.477
10540SOL    HW231965   5.874   4.413   0.513
10541SOL     OW31966   7.133   3.946   1.729
10541SOL    HW131967   7.128   3.983   1.821
10541SOL    HW231968   7.061   3.877   1.717
10542SOL     OW31969   6.367   3.988   1.749
10542SOL    HW131970   6.434   3.927   1.792
10542SOL    HW231971   6.294   4.007   1.814
10543SOL     OW31972   6.474   5.238   1.195
10543SOL    HW131973   6.451   5.213   1.101
10543SOL    HW231974   6.535   5.169   1.234
10544SOL     OW31975   6.937   4.314   1.433
10544SOL    HW131976   6.965   4.271   1.518
10544SOL    HW231977   6.962   4.410   1.434
10545SOL     OW31978   6.389   5.126   0.924
10545SOL    HW131979   6.479   5.140   0.882
10545SOL    HW231980   6.318   5.128   0.853
10546SOL     OW31981   6.508   4.227   0.899
10546SOL    HW131982   6.483   4.218   0.803
10546SOL    HW231983   6.556   4.145   0.930
10547SOL     OW31984   6.125   3.788   0.512
10547SOL    HW131985   6.044   3.789   0.570
10547SOL    HW231986   6.128   3.871   0.457
10548SOL     OW31987   6.521   3.960   0.480
10548SOL    HW131988   6.473   4.001   0.402
10548SOL    HW231989   6.620   3.958   0.461
10549SOL     OW31990   6.662   4.407   1.464
10549SOL    HW131991   6.582   4.346   1.467
10549SOL    HW231992   6.743   4.354   1.440
10550SOL     OW31993   6.813   5.294   0.793
10550SOL    HW131994   6.834   5.368   0.728
10550SOL    HW231995   6.881   5.294   0.866
10551SOL     OW31996   6.045   4.876   0.741
10551SOL    HW131997   5.974   4.849   0.806
10551SOL    HW231998   6.019   4.848   0.648
10552SOL     OW31999   6.857   5.521   0.591
10552SOL    HW132000   6.901   5.585   0.527
10552SOL    HW232001   6.807   5.573   0.661
10553SOL     OW32002   5.664   4.280   1.386
10553SOL    HW132003   5.756   4.279   1.345
10553SOL    HW232004   5.658   4.354   1.453
10554SOL     OW32005   6.147   3.946   1.147
10554SOL    HW132006   6.185   3.862   1.184
10554SOL    HW232007   6.059   3.965   1.191
10555SOL     OW32008   6.452   4.178   0.642
10555SOL    HW132009   6.420   4.250   0.580
10555SOL    HW232010   6.476   4.097   0.589
10556SOL     OW32011   6.603   3.763   0.753
10556SOL    HW132012   6.531   3.768   0.684
10556SOL    HW232013   6.579   3.694   0.822
10557SOL     OW32014   7.015   4.897   0.867
10557SOL    HW132015   6.960   4.813   0.860
10557SOL    HW232016   7.041   4.926   0.775
10558SOL     OW32017   7.052   4.314   0.992
10558SOL    HW132018   7.022   4.219   0.999
10558SOL    HW232019   7.125   4.330   1.058
10559SOL     OW32020   7.443   4.557   0.377
10559SOL    HW132021   7.485   4.493   0.441
10559SOL    HW232022   7.405   4.506   0.299
10560SOL     OW32023   7.250   5.004   0.657
10560SOL    HW132024   7.349   5.012   0.671
10560SOL    HW232025   7.205   5.088   0.688
10561SOL     OW32026   6.113   3.980   0.328
10561SOL    HW132027   6.140   3.921   0.253
10561SOL    HW232028   6.113   4.075   0.297
10562SOL     OW32029   7.340   4.947   1.588
10562SOL    HW132030   7.431   4.908   1.575
10562SOL    HW232031   7.348   5.043   1.612
10563SOL     OW32032   6.650   5.071   1.340
10563SOL    HW132033   6.570   5.048   1.395
10563SOL    HW232034   6.733   5.045   1.389
10564SOL     OW32035   7.178   5.353   1.625
10564SOL    HW132036   7.205   5.387   1.535
10564SOL    HW232037   7.257   5.315   1.671
10565SOL     OW32038   6.697   4.919   1.100
10565SOL    HW132039   6.657   4.963   1.181
10565SOL    HW232040   6.656   4.956   1.017
10566SOL     OW32041   7.224   4.823   1.079
10566SOL    HW132042   7.229   4.904   1.138
10566SOL    HW232043   7.138   4.825   1.028
10567SOL     OW32044   6.501   3.813   1.402
10567SOL    HW132045   6.526   3.793   1.307
10567SOL    HW232046   6.573   3.869   1.444
10568SOL     OW32047   6.566   4.840   1.719
10568SOL    HW132048   6.467   4.846   1.729
10568SOL    HW232049   6.589   4.760   1.663
10569SOL     OW32050   6.291   4.774   0.368
10569SOL    HW132051   6.277   4.781   0.467
10569SOL    HW232052   6.375   4.723   0.350
10570SOL     OW32053   5.996   4.537   1.251
10570SOL    HW132054   6.082   4.549   1.301
10570SOL    HW232055   5.954   4.450   1.278
10571SOL     OW32056   6.860   4.110   1.262
10571SOL    HW132057   6.881   4.184   1.326
10571SOL    HW232058   6.771   4.127   1.219
10572SOL     OW32059   5.650   5.288   1.331
10572SOL    HW132060   5.604   5.370   1.297
10572SOL    HW232061   5.748   5.307   1.340
10573SOL     OW32062   5.953   4.824   0.501
10573SOL    HW132063   5.946   4.907   0.445
10573SOL    HW232064   5.957   4.744   0.441
10574SOL     OW32065   6.152   4.261   0.865
10574SOL    HW132066   6.164   4.327   0.791
10574SOL    HW232067   6.198   4.295   0.948
10575SOL     OW32068   6.838   5.072   0.388
10575SOL    HW132069   6.888   5.149   0.428
10575SOL    HW232070   6.743   5.074   0.420
10576SOL     OW32071   6.858   5.169   1.142
10576SOL    HW132072   6.905   5.182   1.229
10576SOL    HW232073   6.792   5.095   1.151
10577SOL     OW32074   7.168   4.363   0.472
10577SOL    HW132075   7.137   4.424   0.545
10577SOL    HW232076   7.218   4.415   0.403
10578SOL     OW32077   5.940   5.234   1.329
10578SOL    HW132078   5.919   5.190   1.242
10578SOL    HW232079   6.037   5.260   1.332
10579SOL     OW32080   5.988   4.475   1.598
10579SOL    HW132081   6.056   4.530   1.551
10579SOL    HW232082   6.028   4.387   1.625
10580SOL     OW32083   7.173   4.503   1.670
10580SOL    HW132084   7.081   4.541   1.665
10580SOL    HW232085   7.233   4.550   1.605
10581SOL     OW32086   6.599   3.829   1.770
10581SOL    HW132087   6.605   3.914   1.718
10581SOL    HW232088   6.631   3.753   1.713
10582SOL     OW32089   6.090   3.774   1.740
10582SOL    HW132090   6.048   3.717   1.670
10582SOL    HW232091   6.024   3.843   1.772
10583SOL     OW32092   6.159   4.594   1.029
10583SOL    HW132093   6.203   4.683   1.020
10583SOL    HW232094   6.096   4.594   1.106
10584SOL     OW32095   6.946   4.586   1.045
10584SOL    HW132096   6.871   4.586   0.979
10584SOL    HW232097   6.983   4.494   1.054
10585SOL     OW32098   6.795   4.249   0.275
10585SOL    HW132099   6.808   4.165   0.329
10585SOL    HW232100   6.766   4.323   0.335
10586SOL     OW32101   5.893   3.937   1.231
10586SOL    HW132102   5.870   3.974   1.321
10586SOL    HW232103   5.863   3.842   1.225
10587SOL     OW32104   5.623   5.034   1.282
10587SOL    HW132105   5.676   4.985   1.350
10587SOL    HW232106   5.645   5.132   1.287
10588SOL     OW32107   6.318   4.358   1.064
10588SOL    HW132108   6.377   4.332   0.988
10588SOL    HW232109   6.290   4.454   1.053
10589SOL     OW32110   7.314   4.659   1.854
10589SOL    HW132111   7.268   4.652   1.765
10589SOL    HW232112   7.252   4.703   1.920
10590SOL     OW32113   5.893   3.787   0.618
10590SOL    HW132114   5.882   3.881   0.651
10590SOL    HW232115   5.888   3.724   0.695
10591SOL     OW32116   6.609   4.490   0.966
10591SOL    HW132117   6.624   4.511   1.062
10591SOL    HW232118   6.579   4.395   0.957
10592SOL     OW32119   6.566   5.297   1.700
10592SOL    HW132120   6.546   5.341   1.612
10592SOL    HW232121   6.605   5.206   1.684
10593SOL     OW32122   7.445   5.242   1.605
10593SOL    HW132123   7.459   5.269   1.510
10593SOL    HW232124   7.528   5.264   1.658
10594SOL     OW32125   5.936   4.622   1.804
10594SOL    HW132126   6.012   4.666   1.852
10594SOL    HW232127   5.971   4.575   1.722
10595SOL     OW32128   6.654   5.057   0.849
10595SOL    HW132129   6.661   4.973   0.794
10595SOL    HW232130   6.716   5.126   0.813
10596SOL     OW32131   5.905   4.534   0.949
10596SOL    HW132132   5.998   4.570   0.954
10596SOL    HW232133   5.899   4.449   1.001
10597SOL     OW32134   5.925   4.233   1.006
10597SOL    HW132135   5.873   4.150   0.989
10597SOL    HW232136   6.002   4.238   0.942
10598SOL     OW32137   6.724   4.104   1.678
10598SOL    HW132138   6.679   4.167   1.742
10598SOL    HW232139   6.817   4.135   1.661
10599SOL     OW32140   6.746   3.931   1.477
10599SOL    HW132141   6.746   3.995   1.554
10599SOL    HW232142   6.774   3.979   1.394
10600SOL     OW32143   5.674   5.525   0.927
10600SOL    HW132144   5.632   5.439   0.900
10600SOL    HW232145   5.768   5.528   0.893
10601SOL     OW32146   6.090   5.292   0.910
10601SOL    HW132147   6.156   5.366   0.919
10601SOL    HW232148   6.134   5.213   0.868
10602SOL     OW32149   6.588   4.520   1.238
10602SOL    HW132150   6.629   4.488   1.324
10602SOL    HW232151   6.492   4.493   1.235
10603SOL     OW32152   5.626   4.268   1.114
10603SOL    HW132153   5.711   4.235   1.073
10603SOL    HW232154   5.639   4.283   1.212
10604SOL     OW32155   5.775   4.244   1.722
10604SOL    HW132156   5.834   4.204   1.652
10604SOL    HW232157   5.717   4.315   1.681
10605SOL     OW32158   6.955   4.674   1.660
10605SOL    HW132159   6.994   4.763   1.680
10605SOL    HW232160   6.965   4.654   1.563
10606SOL     OW32161   7.243   4.328   1.206
10606SOL    HW132162   7.205   4.259   1.268
10606SOL    HW232163   7.325   4.292   1.162
10607SOL     OW32164   5.838   5.288   1.744
10607SOL    HW132165   5.808   5.345   1.820
10607SOL    HW232166   5.831   5.191   1.770
10608SOL     OW32167   6.257   4.188   1.269
10608SOL    HW132168   6.223   4.099   1.239
10608SOL    HW232169   6.283   4.242   1.189
10609SOL     OW32170   6.516   5.402   1.465
10609SOL    HW132171   6.492   5.384   1.370
10609SOL    HW232172   6.546   5.496   1.475
10610SOL     OW32173   5.745   4.861   1.466
10610SOL    HW132174   5.767   4.800   1.542
10610SOL    HW232175   5.755   4.812   1.380
10611SOL     OW32176   6.933   4.783   1.234
10611SOL    HW132177   6.957   4.720   1.160
10611SOL    HW232178   6.843   4.823   1.216
10612SOL     OW32179   7.345   5.471   1.154
10612SOL    HW132180   7.406   5.501   1.081
10612SOL    HW232181   7.307   5.382   1.132
10613SOL     OW32182   6.838   5.455   1.128
10613SOL    HW132183   6.922   5.460   1.074
10613SOL    HW232184   6.815   5.359   1.146
10614SOL     OW32185   5.669   4.982   1.022
10614SOL    HW132186   5.664   4.981   1.122
10614SOL    HW232187   5.586   4.941   0.984
10615SOL     OW32188   6.274   5.386   1.716
10615SOL    HW132189   6.218   5.467   1.725
10615SOL    HW232190   6.326   5.390   1.630
10616SOL     OW32191   7.312   3.859   0.523
10616SOL    HW132192   7.385   3.842   0.456
10616SOL    HW232193   7.281   3.772   0.561
10617SOL     OW32194   6.974   5.297   0.477
10617SOL    HW132195   7.041   5.309   0.403
10617SOL    HW232196   6.934   5.386   0.500
10618SOL     OW32197   5.716   5.518   1.851
10618SOL    HW132198   5.675   5.444   1.904
10618SOL    HW232199   5.780   5.569   1.909
10619SOL     OW32200   6.866   4.651   0.672
10619SOL    HW132201   6.926   4.570   0.674
10619SOL    HW232202   6.906   4.720   0.612
10620SOL     OW32203   6.416   4.997   1.422
10620SOL    HW132204   6.411   5.030   1.517
10620SOL    HW232205   6.330   5.016   1.376
10621SOL     OW32206   7.236   5.444   1.394
10621SOL    HW132207   7.289   5.454   1.310
10621SOL    HW232208   7.209   5.534   1.428
10622SOL     OW32209   7.427   3.899   0.963
10622SOL    HW132210   7.466   3.814   0.927
10622SOL    HW232211   7.329   3.901   0.944
10623SOL     OW32212   5.849   4.050   0.720
10623SOL    HW132213   5.770   4.101   0.686
10623SOL    HW232214   5.840   4.035   0.818
10624SOL     OW32215   6.408   4.726   1.372
10624SOL    HW132216   6.448   4.725   1.280
10624SOL    HW232217   6.418   4.818   1.412
10625SOL     OW32218   6.502   4.634   0.291
10625SOL    HW132219   6.565   4.672   0.223
10625SOL    HW232220   6.542   4.551   0.330
10626SOL     OW32221   5.958   5.012   1.490
10626SOL    HW132222   5.945   5.105   1.456
10626SOL    HW232223   5.874   4.960   1.477
10627SOL     OW32224   7.200   5.016   1.289
10627SOL    HW132225   7.260   5.019   1.369
10627SOL    HW232226   7.125   5.080   1.302
10628SOL     OW32227   6.625   4.822   0.696
10628SOL    HW132228   6.555   4.775   0.750
10628SOL    HW232229   6.684   4.754   0.653
10629SOL     OW32230   6.600   3.960   0.971
10629SOL    HW132231   6.592   3.924   0.878
10629SOL    HW232232   6.598   3.884   1.036
10630SOL     OW32233   6.176   5.211   0.491
10630SOL    HW132234   6.218   5.153   0.421
10630SOL    HW232235   6.132   5.290   0.447
10631SOL     OW32236   7.295   4.109   1.381
10631SOL    HW132237   7.368   4.178   1.385
10631SOL    HW232238   7.323   4.034   1.322
10632SOL     OW32239   5.691   4.737   1.726
10632SOL    HW132240   5.614   4.704   1.780
10632SOL    HW232241   5.776   4.707   1.768
10633SOL     OW32242   6.258   3.927   1.489
10633SOL    HW132243   6.348   3.911   1.449
10633SOL    HW232244   6.266   3.932   1.588
10634SOL     OW32245   7.026   4.580   1.398
10634SOL    HW132246   6.969   4.632   1.335
10634SOL    HW232247   7.122   4.592   1.374
10635SOL     OW32248   6.199   4.566   1.431
10635SOL    HW132249   6.255   4.647   1.414
10635SOL    HW232250   6.258   4.486   1.434
10636SOL     OW32251   7.079   5.491   0.959
10636SOL    HW132252   7.112   5.555   0.890
10636SOL    HW232253   7.145   5.485   1.034
10637SOL     OW32254   6.302   4.289   1.708
10637SOL    HW132255   6.321   4.354   1.782
10637SOL    HW232256   6.362   4.209   1.717
10638SOL     OW32257   7.036   4.944   1.633
10638SOL    HW132258   7.027   4.934   1.732
10638SOL    HW232259   7.132   4.937   1.607
10639SOL     OW32260   5.976   5.465   1.560
10639SOL    HW132261   5.885   5.506   1.558
10639SOL    HW232262   5.969   5.371   1.592
10640SOL     OW32263   7.260   4.607   1.254
10640SOL    HW132264   7.233   4.518   1.217
10640SOL    HW232265   7.261   4.675   1.181
10641SOL     OW32266   6.811   4.049   0.449
10641SOL    HW132267   6.876   3.975   0.438
10641SOL    HW232268   6.831   4.099   0.533
10642SOL     OW32269   6.180   4.469   0.652
10642SOL    HW132270   6.230   4.554   0.633
10642SOL    HW232271   6.092   4.471   0.604
10643SOL     OW32272   7.363   4.066   1.642
10643SOL    HW132273   7.346   4.097   1.548
10643SOL    HW232274   7.279   4.029   1.680
10644SOL     OW32275   7.316   4.658   1.517
10644SOL    HW132276   7.354   4.749   1.532
10644SOL    HW232277   7.308   4.641   1.418
10645SOL     OW32278   6.247   5.514   0.953
10645SOL    HW132279   6.201   5.602   0.940
10645SOL    HW232280   6.346   5.526   0.946
10646SOL     OW32281   6.445   4.680   0.861
10646SOL    HW132282   6.499   4.611   0.909
10646SOL    HW232283   6.413   4.749   0.927
10647SOL     OW32284   7.447   5.293   0.851
10647SOL    HW132285   7.376   5.281   0.781
10647SOL    HW232286   7.448   5.214   0.911
10648SOL     OW32287   5.807   5.038   1.844
10648SOL    HW132288   5.742   4.965   1.823
10648SOL    HW232289   5.811   5.052   1.942
10649SOL     OW32290   5.665   4.964   0.653
10649SOL    HW132291   5.664   4.917   0.741
10649SOL    HW232292   5.747   4.936   0.602
10650SOL     OW32293   6.258   5.115   1.624
10650SOL    HW132294   6.180   5.065   1.662
10650SOL    HW232295   6.255   5.210   1.655
10651SOL     OW32296   7.410   3.916   1.227
10651SOL    HW132297   7.406   3.826   1.271
10651SOL    HW232298   7.413   3.905   1.128
10652SOL     OW32299   6.014   4.148   0.520
10652SOL    HW132300   6.044   4.076   0.458
10652SOL    HW232301   5.975   4.108   0.603
10653SOL     OW32302   7.291   5.211   1.104
10653SOL    HW132303   7.198   5.186   1.077
10653SOL    HW232304   7.317   5.161   1.186
10654SOL     OW32305   5.903   4.271   1.280
10654SOL    HW132306   5.941   4.212   1.352
10654SOL    HW232307   5.943   4.245   1.192
10655SOL     OW32308   6.398   5.310   0.687
10655SOL    HW132309   6.430   5.320   0.593
10655SOL    HW232310   6.319   5.248   0.689
10656SOL     OW32311   7.010   3.938   1.112
10656SOL    HW132312   7.062   3.873   1.167
10656SOL    HW232313   6.961   4.001   1.173
10657SOL     OW32314   6.587   3.758   1.154
10657SOL    HW132315   6.524   3.686   1.123
10657SOL    HW232316   6.680   3.722   1.154
10658SOL     OW32317   6.204   5.291   1.284
10658SOL    HW132318   6.199   5.373   1.341
10658SOL    HW232319   6.293   5.288   1.239
10659SOL     OW32320   6.886   4.177   0.691
10659SOL    HW132321   6.827   4.257   0.695
10659SOL    HW232322   6.901   4.142   0.784
10660SOL     OW32323   7.179   3.945   0.882
10660SOL    HW132324   7.095   3.944   0.936
10660SOL    HW232325   7.181   4.028   0.826
10661SOL     OW32326   5.625   4.801   0.300
10661SOL    HW132327   5.724   4.790   0.291
10661SOL    HW232328   5.585   4.715   0.332
10662SOL     OW32329   6.461   5.370   0.337
10662SOL    HW132330   6.384   5.335   0.283
10662SOL    HW232331   6.429   5.441   0.399
10663SOL     OW32332   5.816   4.352   1.975
10663SOL    HW132333   5.723   4.350   2.012
10663SOL    HW232334   5.817   4.313   1.883
10664SOL     OW32335   5.811   3.999   2.858
10664SOL    HW132336   5.846   3.982   2.950
10664SOL    HW232337   5.723   3.954   2.846
10665SOL     OW32338   5.605   4.092   2.509
10665SOL    HW132339   5.523   4.135   2.548
10665SOL    HW232340   5.577   4.019   2.446
10666SOL     OW32341   6.155   4.999   3.027
10666SOL    HW132342   6.062   4.992   2.990
10666SOL    HW232343   6.166   5.088   3.071
10667SOL     OW32344   7.141   5.235   2.565
10667SOL    HW132345   7.084   5.219   2.646
10667SOL    HW232346   7.082   5.245   2.485
10668SOL     OW32347   6.721   4.427   2.579
10668SOL    HW132348   6.778   4.505   2.554
10668SOL    HW232349   6.661   4.453   2.655
10669SOL     OW32350   7.341   4.331   2.093
10669SOL    HW132351   7.329   4.318   1.994
10669SOL    HW232352   7.311   4.250   2.142
10670SOL     OW32353   6.354   4.868   2.885
10670SOL    HW132354   6.276   4.885   2.945
10670SOL    HW232355   6.388   4.955   2.849
10671SOL     OW32356   6.436   4.522   3.685
10671SOL    HW132357   6.432   4.598   3.750
10671SOL    HW232358   6.458   4.558   3.594
10672SOL     OW32359   6.271   4.736   2.527
10672SOL    HW132360   6.340   4.720   2.597
10672SOL    HW232361   6.198   4.793   2.565
10673SOL     OW32362   6.272   4.885   3.665
10673SOL    HW132363   6.332   4.964   3.679
10673SOL    HW232364   6.186   4.916   3.624
10674SOL     OW32365   5.921   5.159   2.923
10674SOL    HW132366   5.843   5.128   2.870
10674SOL    HW232367   5.979   5.217   2.866
10675SOL     OW32368   7.046   5.229   3.201
10675SOL    HW132369   7.070   5.323   3.227
10675SOL    HW232370   7.030   5.175   3.283
10676SOL     OW32371   6.024   4.116   3.361
10676SOL    HW132372   6.106   4.060   3.370
10676SOL    HW232373   5.943   4.058   3.365
10677SOL     OW32374   7.189   4.171   2.599
10677SOL    HW132375   7.115   4.217   2.549
10677SOL    HW232376   7.240   4.239   2.652
10678SOL     OW32377   5.817   5.437   2.345
10678SOL    HW132378   5.851   5.514   2.399
10678SOL    HW232379   5.861   5.437   2.255
10679SOL     OW32380   6.713   5.065   3.552
10679SOL    HW132381   6.760   5.065   3.640
10679SOL    HW232382   6.665   4.978   3.541
10680SOL     OW32383   5.816   5.158   2.400
10680SOL    HW132384   5.790   5.254   2.400
10680SOL    HW232385   5.745   5.104   2.445
10681SOL     OW32386   5.826   4.815   2.748
10681SOL    HW132387   5.840   4.731   2.800
10681SOL    HW232388   5.771   4.879   2.803
10682SOL     OW32389   6.206   5.510   3.301
10682SOL    HW132390   6.114   5.493   3.336
10682SOL    HW232391   6.234   5.602   3.327
10683SOL     OW32392   6.192   4.688   1.985
10683SOL    HW132393   6.199   4.772   1.931
10683SOL    HW232394   6.238   4.701   2.073
10684SOL     OW32395   7.180   3.838   3.342
10684SOL    HW132396   7.162   3.905   3.270
10684SOL    HW232397   7.177   3.884   3.431
10685SOL     OW32398   5.708   4.367   2.425
10685SOL    HW132399   5.663   4.279   2.442
10685SOL    HW232400   5.707   4.421   2.509
10686SOL     OW32401   7.428   5.491   2.221
10686SOL    HW132402   7.482   5.462   2.301
10686SOL    HW232403   7.458   5.581   2.192
10687SOL     OW32404   5.613   5.320   1.979
10687SOL    HW132405   5.594   5.224   2.000
10687SOL    HW232406   5.580   5.378   2.054
10688SOL     OW32407   7.275   4.646   2.474
10688SOL    HW132408   7.370   4.617   2.482
10688SOL    HW232409   7.267   4.711   2.399
10689SOL     OW32410   7.227   4.832   2.294
10689SOL    HW132411   7.313   4.834   2.242
10689SOL    HW232412   7.241   4.879   2.382
10690SOL     OW32413   5.699   4.461   3.459
10690SOL    HW132414   5.787   4.448   3.504
10690SOL    HW232415   5.686   4.558   3.437
10691SOL     OW32416   6.199   5.089   2.588
10691SOL    HW132417   6.150   5.002   2.597
10691SOL    HW232418   6.176   5.132   2.501
10692SOL     OW32419   6.879   4.952   3.285
10692SOL    HW132420   6.916   4.879   3.227
10692SOL    HW232421   6.931   4.957   3.370
10693SOL     OW32422   6.395   3.728   2.364
10693SOL    HW132423   6.435   3.819   2.355
10693SOL    HW232424   6.295   3.736   2.370
10694SOL     OW32425   5.783   4.700   3.126
10694SOL    HW132426   5.872   4.655   3.112
10694SOL    HW232427   5.710   4.635   3.107
10695SOL     OW32428   7.111   4.723   2.052
10695SOL    HW132429   7.048   4.647   2.065
10695SOL    HW232430   7.159   4.741   2.138
10696SOL     OW32431   6.773   5.516   3.478
10696SOL    HW132432   6.797   5.576   3.402
10696SOL    HW232433   6.780   5.421   3.448
10697SOL     OW32434   5.903   3.975   3.663
10697SOL    HW132435   5.974   4.046   3.669
10697SOL    HW232436   5.815   4.014   3.691
10698SOL     OW32437   7.052   5.141   2.815
10698SOL    HW132438   6.993   5.147   2.895
10698SOL    HW232439   7.037   5.053   2.769
10699SOL     OW32440   7.253   5.438   2.434
10699SOL    HW132441   7.212   5.415   2.346
10699SOL    HW232442   7.235   5.364   2.499
10700SOL     OW32443   6.184   4.453   2.132
10700SOL    HW132444   6.208   4.522   2.064
10700SOL    HW232445   6.106   4.486   2.186
10701SOL     OW32446   6.867   4.069   2.806
10701SOL    HW132447   6.781   4.019   2.793
10701SOL    HW232448   6.929   4.015   2.862
10702SOL     OW32449   7.162   5.386   2.169
10702SOL    HW132450   7.251   5.432   2.172
10702SOL    HW232451   7.141   5.362   2.074
10703SOL     OW32452   6.393   4.329   3.327
10703SOL    HW132453   6.346   4.326   3.416
10703SOL    HW232454   6.342   4.274   3.261
10704SOL     OW32455   6.980   4.193   3.536
10704SOL    HW132456   6.960   4.236   3.624
10704SOL    HW232457   7.058   4.131   3.545
10705SOL     OW32458   6.559   4.614   3.434
10705SOL    HW132459   6.605   4.530   3.405
10705SOL    HW232460   6.503   4.648   3.359
10706SOL     OW32461   6.577   4.134   3.104
10706SOL    HW132462   6.500   4.168   3.158
10706SOL    HW232463   6.543   4.083   3.025
10707SOL     OW32464   6.627   4.425   2.291
10707SOL    HW132465   6.653   4.421   2.387
10707SOL    HW232466   6.542   4.374   2.277
10708SOL     OW32467   5.662   4.535   2.651
10708SOL    HW132468   5.761   4.523   2.660
10708SOL    HW232469   5.638   4.630   2.672
10709SOL     OW32470   5.716   5.545   3.433
10709SOL    HW132471   5.706   5.530   3.532
10709SOL    HW232472   5.630   5.581   3.397
10710SOL     OW32473   6.451   4.072   2.057
10710SOL    HW132474   6.510   4.135   2.008
10710SOL    HW232475   6.470   3.978   2.028
10711SOL     OW32476   7.305   4.309   3.693
10711SOL    HW132477   7.279   4.398   3.657
10711SOL    HW232478   7.303   4.241   3.620
10712SOL     OW32479   6.948   4.868   2.407
10712SOL    HW132480   7.031   4.839   2.359
10712SOL    HW232481   6.899   4.935   2.351
10713SOL     OW32482   6.136   3.920   2.747
10713SOL    HW132483   6.131   3.915   2.847
10713SOL    HW232484   6.138   4.016   2.718
10714SOL     OW32485   6.594   5.180   2.339
10714SOL    HW132486   6.548   5.252   2.287
10714SOL    HW232487   6.590   5.200   2.437
10715SOL     OW32488   5.937   5.525   2.715
10715SOL    HW132489   5.987   5.439   2.721
10715SOL    HW232490   6.002   5.602   2.712
10716SOL     OW32491   7.381   4.790   2.735
10716SOL    HW132492   7.319   4.775   2.659
10716SOL    HW232493   7.329   4.801   2.820
10717SOL     OW32494   6.813   5.274   3.368
10717SOL    HW132495   6.819   5.197   3.432
10717SOL    HW232496   6.761   5.248   3.288
10718SOL     OW32497   5.907   4.667   2.104
10718SOL    HW132498   5.989   4.706   2.062
10718SOL    HW232499   5.880   4.585   2.055
10719SOL     OW32500   7.044   4.459   2.590
10719SOL    HW132501   7.039   4.394   2.665
10719SOL    HW232502   7.124   4.518   2.603
10720SOL     OW32503   6.047   4.990   3.589
10720SOL    HW132504   5.997   4.991   3.503
10720SOL    HW232505   5.984   4.972   3.665
10721SOL     OW32506   6.697   5.500   2.099
10721SOL    HW132507   6.637   5.438   2.149
10721SOL    HW232508   6.728   5.456   2.014
10722SOL     OW32509   5.788   4.009   3.360
10722SOL    HW132510   5.708   4.069   3.347
10722SOL    HW232511   5.778   3.960   3.446
10723SOL     OW32512   7.218   5.101   1.943
10723SOL    HW132513   7.186   5.195   1.933
10723SOL    HW232514   7.142   5.038   1.931
10724SOL     OW32515   6.050   5.467   2.185
10724SOL    HW132516   6.083   5.506   2.271
10724SOL    HW232517   6.126   5.460   2.120
10725SOL     OW32518   6.986   3.831   2.288
10725SOL    HW132519   6.962   3.794   2.198
10725SOL    HW232520   7.085   3.847   2.292
10726SOL     OW32521   5.835   5.509   3.103
10726SOL    HW132522   5.892   5.444   3.153
10726SOL    HW232523   5.819   5.476   3.010
10727SOL     OW32524   6.526   5.422   2.766
10727SOL    HW132525   6.606   5.365   2.787
10727SOL    HW232526   6.477   5.382   2.689
10728SOL     OW32527   5.968   4.424   2.342
10728SOL    HW132528   6.013   4.334   2.339
10728SOL    HW232529   5.874   4.413   2.375
10729SOL     OW32530   7.133   3.946   3.591
10729SOL    HW132531   7.128   3.983   3.683
10729SOL    HW232532   7.061   3.877   3.579
10730SOL     OW32533   6.200   3.846   1.979
10730SOL    HW132534   6.298   3.824   1.986
10730SOL    HW232535   6.169   3.829   1.886
10731SOL     OW32536   6.367   3.988   3.611
10731SOL    HW132537   6.434   3.927   3.654
10731SOL    HW232538   6.294   4.007   3.676
10732SOL     OW32539   6.474   5.238   3.057
10732SOL    HW132540   6.451   5.213   2.963
10732SOL    HW232541   6.535   5.169   3.096
10733SOL     OW32542   6.937   4.314   3.295
10733SOL    HW132543   6.965   4.271   3.380
10733SOL    HW232544   6.962   4.410   3.296
10734SOL     OW32545   6.389   5.126   2.786
10734SOL    HW132546   6.479   5.140   2.744
10734SOL    HW232547   6.318   5.128   2.715
10735SOL     OW32548   6.508   4.227   2.761
10735SOL    HW132549   6.483   4.218   2.665
10735SOL    HW232550   6.556   4.145   2.792
10736SOL     OW32551   6.125   3.788   2.374
10736SOL    HW132552   6.044   3.789   2.432
10736SOL    HW232553   6.128   3.871   2.319
10737SOL     OW32554   7.020   4.912   1.903
10737SOL    HW132555   7.052   4.836   1.960
10737SOL    HW232556   6.928   4.939   1.933
10738SOL     OW32557   5.883   3.759   2.033
10738SOL    HW132558   5.932   3.843   2.012
10738SOL    HW232559   5.945   3.694   2.078
10739SOL     OW32560   6.521   3.960   2.342
10739SOL    HW132561   6.473   4.001   2.264
10739SOL    HW232562   6.620   3.958   2.323
10740SOL     OW32563   6.662   4.407   3.326
10740SOL    HW132564   6.582   4.346   3.329
10740SOL    HW232565   6.743   4.354   3.302
10741SOL     OW32566   6.813   5.294   2.655
10741SOL    HW132567   6.834   5.368   2.590
10741SOL    HW232568   6.881   5.294   2.728
10742SOL     OW32569   6.045   4.876   2.603
10742SOL    HW132570   5.974   4.849   2.668
10742SOL    HW232571   6.019   4.848   2.510
10743SOL     OW32572   6.857   5.521   2.453
10743SOL    HW132573   6.901   5.585   2.389
10743SOL    HW232574   6.807   5.573   2.523
10744SOL     OW32575   6.618   4.273   1.878
10744SOL    HW132576   6.577   4.355   1.839
10744SOL    HW232577   6.682   4.299   1.951
10745SOL     OW32578   5.664   4.280   3.248
10745SOL    HW132579   5.756   4.279   3.207
10745SOL    HW232580   5.658   4.354   3.315
10746SOL     OW32581   6.147   3.946   3.009
10746SOL    HW132582   6.185   3.862   3.046
10746SOL    HW232583   6.059   3.965   3.053
10747SOL     OW32584   6.452   4.178   2.504
10747SOL    HW132585   6.420   4.250   2.442
10747SOL    HW232586   6.476   4.097   2.451
10748SOL     OW32587   6.603   3.763   2.615
10748SOL    HW132588   6.531   3.768   2.546
10748SOL    HW232589   6.579   3.694   2.684
10749SOL     OW32590   7.015   4.897   2.729
10749SOL    HW132591   6.960   4.813   2.722
10749SOL    HW232592   7.041   4.926   2.637
10750SOL     OW32593   7.052   4.314   2.854
10750SOL    HW132594   7.022   4.219   2.861
10750SOL    HW232595   7.125   4.330   2.920
10751SOL     OW32596   7.443   4.557   2.239
10751SOL    HW132597   7.485   4.493   2.303
10751SOL    HW232598   7.405   4.506   2.161
10752SOL     OW32599   6.074   5.109   2.036
10752SOL    HW132600   5.987   5.094   2.083
10752SOL    HW232601   6.057   5.135   1.941
10753SOL     OW32602   7.250   5.004   2.519
10753SOL    HW132603   7.349   5.012   2.533
10753SOL    HW232604   7.205   5.088   2.550
10754SOL     OW32605   6.976   4.299   1.940
10754SOL    HW132606   6.922   4.278   2.021
10754SOL    HW232607   7.067   4.258   1.949
10755SOL     OW32608   6.113   3.980   2.190
10755SOL    HW132609   6.140   3.921   2.115
10755SOL    HW232610   6.113   4.075   2.159
10756SOL     OW32611   7.340   4.947   3.450
10756SOL    HW132612   7.431   4.908   3.437
10756SOL    HW232613   7.348   5.043   3.474
10757SOL     OW32614   6.650   5.071   3.202
10757SOL    HW132615   6.570   5.048   3.257
10757SOL    HW232616   6.733   5.045   3.251
10758SOL     OW32617   7.178   5.353   3.487
10758SOL    HW132618   7.205   5.387   3.397
10758SOL    HW232619   7.257   5.315   3.533
10759SOL     OW32620   6.697   4.919   2.962
10759SOL    HW132621   6.657   4.963   3.043
10759SOL    HW232622   6.656   4.956   2.879
10760SOL     OW32623   7.224   4.823   2.941
10760SOL    HW132624   7.229   4.904   3.000
10760SOL    HW232625   7.138   4.825   2.890
10761SOL     OW32626   6.501   3.813   3.264
10761SOL    HW132627   6.526   3.793   3.169
10761SOL    HW232628   6.573   3.869   3.306
10762SOL     OW32629   6.566   4.840   3.581
10762SOL    HW132630   6.467   4.846   3.591
10762SOL    HW232631   6.589   4.760   3.525
10763SOL     OW32632   6.291   4.774   2.230
10763SOL    HW132633   6.277   4.781   2.329
10763SOL    HW232634   6.375   4.723   2.212
10764SOL     OW32635   5.996   4.537   3.113
10764SOL    HW132636   6.082   4.549   3.163
10764SOL    HW232637   5.954   4.450   3.140
10765SOL     OW32638   6.860   4.110   3.124
10765SOL    HW132639   6.881   4.184   3.188
10765SOL    HW232640   6.771   4.127   3.081
10766SOL     OW32641   5.650   5.288   3.193
10766SOL    HW132642   5.604   5.370   3.159
10766SOL    HW232643   5.748   5.307   3.202
10767SOL     OW32644   5.953   4.824   2.363
10767SOL    HW132645   5.946   4.907   2.307
10767SOL    HW232646   5.957   4.744   2.303
10768SOL     OW32647   6.152   4.261   2.727
10768SOL    HW132648   6.164   4.327   2.653
10768SOL    HW232649   6.198   4.295   2.810
10769SOL     OW32650   6.838   5.072   2.250
10769SOL    HW132651   6.888   5.149   2.290
10769SOL    HW232652   6.743   5.074   2.282
10770SOL     OW32653   6.858   5.169   3.004
10770SOL    HW132654   6.905   5.182   3.091
10770SOL    HW232655   6.792   5.095   3.013
10771SOL     OW32656   7.168   4.363   2.334
10771SOL    HW132657   7.137   4.424   2.407
10771SOL    HW232658   7.218   4.415   2.265
10772SOL     OW32659   5.940   5.234   3.191
10772SOL    HW132660   5.919   5.190   3.104
10772SOL    HW232661   6.037   5.260   3.194
10773SOL     OW32662   5.988   4.475   3.460
10773SOL    HW132663   6.056   4.530   3.413
10773SOL    HW232664   6.028   4.387   3.487
10774SOL     OW32665   7.173   4.503   3.532
10774SOL    HW132666   7.081   4.541   3.527
10774SOL    HW232667   7.233   4.550   3.467
10775SOL     OW32668   6.599   3.829   3.632
10775SOL    HW132669   6.605   3.914   3.580
10775SOL    HW232670   6.631   3.753   3.575
10776SOL     OW32671   6.090   3.774   3.602
10776SOL    HW132672   6.048   3.717   3.532
10776SOL    HW232673   6.024   3.843   3.634
10777SOL     OW32674   6.159   4.594   2.891
10777SOL    HW132675   6.203   4.683   2.882
10777SOL    HW232676   6.096   4.594   2.968
10778SOL     OW32677   6.946   4.586   2.907
10778SOL    HW132678   6.871   4.586   2.841
10778SOL    HW232679   6.983   4.494   2.916
10779SOL     OW32680   6.795   4.249   2.137
10779SOL    HW132681   6.808   4.165   2.191
10779SOL    HW232682   6.766   4.323   2.197
10780SOL     OW32683   5.893   3.937   3.093
10780SOL    HW132684   5.870   3.974   3.183
10780SOL    HW232685   5.863   3.842   3.087
10781SOL     OW32686   5.623   5.034   3.144
10781SOL    HW132687   5.676   4.985   3.212
10781SOL    HW232688   5.645   5.132   3.149
10782SOL     OW32689   6.318   4.358   2.926
10782SOL    HW132690   6.377   4.332   2.850
10782SOL    HW232691   6.290   4.454   2.915
10783SOL     OW32692   7.314   4.659   3.716
10783SOL    HW132693   7.268   4.652   3.627
10783SOL    HW232694   7.252   4.703   3.782
10784SOL     OW32695   5.893   3.787   2.480
10784SOL    HW132696   5.882   3.881   2.513
10784SOL    HW232697   5.888   3.724   2.557
10785SOL     OW32698   7.208   4.091   2.236
10785SOL    HW132699   7.210   4.015   2.300
10785SOL    HW232700   7.160   4.168   2.276
10786SOL     OW32701   6.609   4.490   2.828
10786SOL    HW132702   6.624   4.511   2.924
10786SOL    HW232703   6.579   4.395   2.819
10787SOL     OW32704   6.566   5.297   3.562
10787SOL    HW132705   6.546   5.341   3.474
10787SOL    HW232706   6.605   5.206   3.546
10788SOL     OW32707   7.445   5.242   3.467
10788SOL    HW132708   7.459   5.269   3.372
10788SOL    HW232709   7.528   5.264   3.520
10789SOL     OW32710   5.936   4.622   3.666
10789SOL    HW132711   6.012   4.666   3.714
10789SOL    HW232712   5.971   4.575   3.584
10790SOL     OW32713   7.126   3.998   1.987
10790SOL    HW132714   7.065   3.923   2.010
10790SOL    HW232715   7.148   4.050   2.070
10791SOL     OW32716   6.889   4.562   1.904
10791SOL    HW132717   6.923   4.469   1.919
10791SOL    HW232718   6.907   4.589   1.809
10792SOL     OW32719   6.654   5.057   2.711
10792SOL    HW132720   6.661   4.973   2.656
10792SOL    HW232721   6.716   5.126   2.675
10793SOL     OW32722   5.905   4.534   2.811
10793SOL    HW132723   5.998   4.570   2.816
10793SOL    HW232724   5.899   4.449   2.863
10794SOL     OW32725   5.925   4.233   2.868
10794SOL    HW132726   5.873   4.150   2.851
10794SOL    HW232727   6.002   4.238   2.804
10795SOL     OW32728   6.724   4.104   3.540
10795SOL    HW132729   6.679   4.167   3.604
10795SOL    HW232730   6.817   4.135   3.523
10796SOL     OW32731   6.746   3.931   3.339
10796SOL    HW132732   6.746   3.995   3.416
10796SOL    HW232733   6.774   3.979   3.256
10797SOL     OW32734   5.594   5.050   2.062
10797SOL    HW132735   5.501   5.071   2.031
10797SOL    HW232736   5.604   4.951   2.075
10798SOL     OW32737   5.674   5.525   2.789
10798SOL    HW132738   5.632   5.439   2.762
10798SOL    HW232739   5.768   5.528   2.755
10799SOL     OW32740   6.090   5.292   2.772
10799SOL    HW132741   6.156   5.366   2.781
10799SOL    HW232742   6.134   5.213   2.730
10800SOL     OW32743   6.588   4.520   3.100
10800SOL    HW132744   6.629   4.488   3.186
10800SOL    HW232745   6.492   4.493   3.097
10801SOL     OW32746   5.626   4.268   2.976
10801SOL    HW132747   5.711   4.235   2.935
10801SOL    HW232748   5.639   4.283   3.074
10802SOL     OW32749   5.775   4.244   3.584
10802SOL    HW132750   5.834   4.204   3.514
10802SOL    HW232751   5.717   4.315   3.543
10803SOL     OW32752   6.955   4.674   3.522
10803SOL    HW132753   6.994   4.763   3.542
10803SOL    HW232754   6.965   4.654   3.425
10804SOL     OW32755   6.401   4.296   2.187
10804SOL    HW132756   6.408   4.207   2.141
10804SOL    HW232757   6.307   4.330   2.179
10805SOL     OW32758   7.243   4.328   3.068
10805SOL    HW132759   7.205   4.259   3.130
10805SOL    HW232760   7.325   4.292   3.024
10806SOL     OW32761   5.838   5.288   3.606
10806SOL    HW132762   5.808   5.345   3.682
10806SOL    HW232763   5.831   5.191   3.632
10807SOL     OW32764   6.257   4.188   3.131
10807SOL    HW132765   6.223   4.099   3.101
10807SOL    HW232766   6.283   4.242   3.051
10808SOL     OW32767   6.516   5.402   3.327
10808SOL    HW132768   6.492   5.384   3.232
10808SOL    HW232769   6.546   5.496   3.337
10809SOL     OW32770   6.059   4.224   2.053
10809SOL    HW132771   6.120   4.304   2.057
10809SOL    HW232772   5.964   4.255   2.060
10810SOL     OW32773   5.745   4.861   3.328
10810SOL    HW132774   5.767   4.800   3.404
10810SOL    HW232775   5.755   4.812   3.242
10811SOL     OW32776   6.933   4.783   3.096
10811SOL    HW132777   6.957   4.720   3.022
10811SOL    HW232778   6.843   4.823   3.078
10812SOL     OW32779   6.888   4.579   2.171
10812SOL    HW132780   6.802   4.548   2.213
10812SOL    HW232781   6.884   4.565   2.072
10813SOL     OW32782   7.345   5.471   3.016
10813SOL    HW132783   7.406   5.501   2.943
10813SOL    HW232784   7.307   5.382   2.994
10814SOL     OW32785   6.838   5.455   2.990
10814SOL    HW132786   6.922   5.460   2.936
10814SOL    HW232787   6.815   5.359   3.008
10815SOL     OW32788   5.669   4.982   2.884
10815SOL    HW132789   5.664   4.981   2.984
10815SOL    HW232790   5.586   4.941   2.846
10816SOL     OW32791   6.274   5.386   3.578
10816SOL    HW132792   6.218   5.467   3.587
10816SOL    HW232793   6.326   5.390   3.492
10817SOL     OW32794   7.312   3.859   2.385
10817SOL    HW132795   7.385   3.842   2.318
10817SOL    HW232796   7.281   3.772   2.423
10818SOL     OW32797   6.974   5.297   2.339
10818SOL    HW132798   7.041   5.309   2.265
10818SOL    HW232799   6.934   5.386   2.362
10819SOL     OW32800   5.716   5.518   3.713
10819SOL    HW132801   5.675   5.444   3.766
10819SOL    HW232802   5.780   5.569   3.771
10820SOL     OW32803   6.866   4.651   2.534
10820SOL    HW132804   6.926   4.570   2.536
10820SOL    HW232805   6.906   4.720   2.474
10821SOL     OW32806   6.416   4.997   3.284
10821SOL    HW132807   6.411   5.030   3.379
10821SOL    HW232808   6.330   5.016   3.238
10822SOL     OW32809   6.258   5.340   2.016
10822SOL    HW132810   6.267   5.350   1.917
10822SOL    HW232811   6.218   5.251   2.037
10823SOL     OW32812   7.236   5.444   3.256
10823SOL    HW132813   7.289   5.454   3.172
10823SOL    HW232814   7.209   5.534   3.290
10824SOL     OW32815   7.427   3.899   2.825
10824SOL    HW132816   7.466   3.814   2.789
10824SOL    HW232817   7.329   3.901   2.806
10825SOL     OW32818   5.849   4.050   2.582
10825SOL    HW132819   5.770   4.101   2.548
10825SOL    HW232820   5.840   4.035   2.680
10826SOL     OW32821   6.780   5.336   1.893
10826SOL    HW132822   6.786   5.243   1.930
10826SOL    HW232823   6.721   5.336   1.813
10827SOL     OW32824   6.408   4.726   3.234
10827SOL    HW132825   6.448   4.725   3.142
10827SOL    HW232826   6.418   4.818   3.274
10828SOL     OW32827   6.502   4.634   2.153
10828SOL    HW132828   6.565   4.672   2.085
10828SOL    HW232829   6.542   4.551   2.192
10829SOL     OW32830   7.090   5.331   1.906
10829SOL    HW132831   6.998   5.368   1.913
10829SOL    HW232832   7.128   5.351   1.816
10830SOL     OW32833   5.958   5.012   3.352
10830SOL    HW132834   5.945   5.105   3.318
10830SOL    HW232835   5.874   4.960   3.339
10831SOL     OW32836   7.200   5.016   3.151
10831SOL    HW132837   7.260   5.019   3.231
10831SOL    HW232838   7.125   5.080   3.164
10832SOL     OW32839   6.625   4.822   2.558
10832SOL    HW132840   6.555   4.775   2.612
10832SOL    HW232841   6.684   4.754   2.515
10833SOL     OW32842   6.600   3.960   2.833
10833SOL    HW132843   6.592   3.924   2.740
10833SOL    HW232844   6.598   3.884   2.898
10834SOL     OW32845   6.176   5.211   2.353
10834SOL    HW132846   6.218   5.153   2.283
10834SOL    HW232847   6.132   5.290   2.309
10835SOL     OW32848   7.295   4.109   3.243
10835SOL    HW132849   7.368   4.178   3.247
10835SOL    HW232850   7.323   4.034   3.184
10836SOL     OW32851   5.841   5.072   2.152
10836SOL    HW132852   5.745   5.073   2.125
10836SOL    HW232853   5.853   5.125   2.236
10837SOL     OW32854   5.691   4.737   3.588
10837SOL    HW132855   5.614   4.704   3.642
10837SOL    HW232856   5.776   4.707   3.630
10838SOL     OW32857   6.258   3.927   3.351
10838SOL    HW132858   6.348   3.911   3.311
10838SOL    HW232859   6.266   3.932   3.450
10839SOL     OW32860   5.661   4.069   1.895
10839SOL    HW132861   5.569   4.041   1.866
10839SOL    HW232862   5.692   4.146   1.839
10840SOL     OW32863   7.026   4.580   3.260
10840SOL    HW132864   6.969   4.632   3.197
10840SOL    HW232865   7.122   4.592   3.236
10841SOL     OW32866   5.658   3.890   2.180
10841SOL    HW132867   5.641   3.973   2.126
10841SOL    HW232868   5.748   3.853   2.158
10842SOL     OW32869   6.769   5.059   1.981
10842SOL    HW132870   6.670   5.048   1.983
10842SOL    HW232871   6.803   5.074   2.074
10843SOL     OW32872   6.199   4.566   3.293
10843SOL    HW132873   6.255   4.647   3.276
10843SOL    HW232874   6.258   4.486   3.296
10844SOL     OW32875   7.079   5.491   2.821
10844SOL    HW132876   7.112   5.555   2.752
10844SOL    HW232877   7.145   5.485   2.896
10845SOL     OW32878   6.302   4.289   3.570
10845SOL    HW132879   6.321   4.354   3.644
10845SOL    HW232880   6.362   4.209   3.579
10846SOL     OW32881   7.036   4.944   3.495
10846SOL    HW132882   7.027   4.934   3.594
10846SOL    HW232883   7.132   4.937   3.469
10847SOL     OW32884   5.976   5.465   3.422
10847SOL    HW132885   5.885   5.506   3.420
10847SOL    HW232886   5.969   5.371   3.454
10848SOL     OW32887   7.260   4.607   3.116
10848SOL    HW132888   7.233   4.518   3.079
10848SOL    HW232889   7.261   4.675   3.043
10849SOL     OW32890   6.811   4.049   2.311
10849SOL    HW132891   6.876   3.975   2.300
10849SOL    HW232892   6.831   4.099   2.395
10850SOL     OW32893   6.180   4.469   2.514
10850SOL    HW132894   6.230   4.554   2.495
10850SOL    HW232895   6.092   4.471   2.466
10851SOL     OW32896   7.363   4.066   3.504
10851SOL    HW132897   7.346   4.097   3.410
10851SOL    HW232898   7.279   4.029   3.542
10852SOL     OW32899   7.316   4.658   3.379
10852SOL    HW132900   7.354   4.749   3.394
10852SOL    HW232901   7.308   4.641   3.280
10853SOL     OW32902   6.445   5.098   1.878
10853SOL    HW132903   6.399   5.113   1.966
10853SOL    HW232904   6.489   5.183   1.848
10854SOL     OW32905   6.247   5.514   2.815
10854SOL    HW132906   6.201   5.602   2.802
10854SOL    HW232907   6.346   5.526   2.808
10855SOL     OW32908   6.445   4.680   2.723
10855SOL    HW132909   6.499   4.611   2.771
10855SOL    HW232910   6.413   4.749   2.789
10856SOL     OW32911   6.669   4.708   1.949
10856SOL    HW132912   6.646   4.761   1.867
10856SOL    HW232913   6.750   4.652   1.930
10857SOL     OW32914   7.447   5.293   2.713
10857SOL    HW132915   7.376   5.281   2.643
10857SOL    HW232916   7.448   5.214   2.773
10858SOL     OW32917   5.807   5.038   3.706
10858SOL    HW132918   5.742   4.965   3.685
10858SOL    HW232919   5.811   5.052   3.804
10859SOL     OW32920   5.665   4.964   2.515
10859SOL    HW132921   5.664   4.917   2.603
10859SOL    HW232922   5.747   4.936   2.464
10860SOL     OW32923   6.258   5.115   3.486
10860SOL    HW132924   6.180   5.065   3.524
10860SOL    HW232925   6.255   5.210   3.517
10861SOL     OW32926   7.410   3.916   3.089
10861SOL    HW132927   7.406   3.826   3.133
10861SOL    HW232928   7.413   3.905   2.990
10862SOL     OW32929   6.014   4.148   2.382
10862SOL    HW132930   6.044   4.076   2.320
10862SOL    HW232931   5.975   4.108   2.465
10863SOL     OW32932   7.291   5.211   2.966
10863SOL    HW132933   7.198   5.186   2.939
10863SOL    HW232934   7.317   5.161   3.048
10864SOL     OW32935   5.903   4.271   3.142
10864SOL    HW132936   5.941   4.212   3.214
10864SOL    HW232937   5.943   4.245   3.054
10865SOL     OW32938   6.398   5.310   2.549
10865SOL    HW132939   6.430   5.320   2.455
10865SOL    HW232940   6.319   5.248   2.551
10866SOL     OW32941   7.010   3.938   2.974
10866SOL    HW132942   7.062   3.873   3.029
10866SOL    HW232943   6.961   4.001   3.035
10867SOL     OW32944   6.587   3.758   3.016
10867SOL    HW132945   6.524   3.686   2.985
10867SOL    HW232946   6.680   3.722   3.016
10868SOL     OW32947   6.356   5.054   2.163
10868SOL    HW132948   6.310   4.967   2.180
10868SOL    HW232949   6.447   5.051   2.204
10869SOL     OW32950   6.204   5.291   3.146
10869SOL    HW132951   6.199   5.373   3.203
10869SOL    HW232952   6.293   5.288   3.101
10870SOL     OW32953   6.938   3.776   2.030
10870SOL    HW132954   6.973   3.735   1.946
10870SOL    HW232955   6.848   3.738   2.050
10871SOL     OW32956   6.886   4.177   2.553
10871SOL    HW132957   6.827   4.257   2.557
10871SOL    HW232958   6.901   4.142   2.646
10872SOL     OW32959   7.179   3.945   2.744
10872SOL    HW132960   7.095   3.944   2.798
10872SOL    HW232961   7.181   4.028   2.688
10873SOL     OW32962   5.625   4.801   2.162
10873SOL    HW132963   5.724   4.790   2.153
10873SOL    HW232964   5.585   4.715   2.194
10874SOL     OW32965   6.461   5.370   2.199
10874SOL    HW132966   6.384   5.335   2.145
10874SOL    HW232967   6.429   5.441   2.261
10875SOL     OW32968   5.816   4.352   3.837
10875SOL    HW132969   5.723   4.350   3.874
10875SOL    HW232970   5.817   4.313   3.745
10876SOL     OW32971   5.811   3.999   4.720
10876SOL    HW132972   5.846   3.982   4.812
10876SOL    HW232973   5.723   3.954   4.708
10877SOL     OW32974   5.605   4.092   4.371
10877SOL    HW132975   5.523   4.135   4.410
10877SOL    HW232976   5.577   4.019   4.308
10878SOL     OW32977   6.155   4.999   4.889
10878SOL    HW132978   6.062   4.992   4.852
10878SOL    HW232979   6.166   5.088   4.933
10879SOL     OW32980   7.141   5.235   4.427
10879SOL    HW132981   7.084   5.219   4.508
10879SOL    HW232982   7.082   5.245   4.347
10880SOL     OW32983   6.721   4.427   4.441
10880SOL    HW132984   6.778   4.505   4.416
10880SOL    HW232985   6.661   4.453   4.517
10881SOL     OW32986   7.341   4.331   3.955
10881SOL    HW132987   7.329   4.318   3.856
10881SOL    HW232988   7.311   4.250   4.004
10882SOL     OW32989   6.354   4.868   4.747
10882SOL    HW132990   6.276   4.885   4.807
10882SOL    HW232991   6.388   4.955   4.711
10883SOL     OW32992   6.436   4.522   5.547
10883SOL    HW132993   6.432   4.598   5.612
10883SOL    HW232994   6.458   4.558   5.456
10884SOL     OW32995   6.271   4.736   4.389
10884SOL    HW132996   6.340   4.720   4.459
10884SOL    HW232997   6.198   4.793   4.427
10885SOL     OW32998   6.272   4.885   5.527
10885SOL    HW132999   6.332   4.964   5.541
10885SOL    HW233000   6.186   4.916   5.486
10886SOL     OW33001   5.921   5.159   4.785
10886SOL    HW133002   5.843   5.128   4.732
10886SOL    HW233003   5.979   5.217   4.728
10887SOL     OW33004   7.046   5.229   5.063
10887SOL    HW133005   7.070   5.323   5.089
10887SOL    HW233006   7.030   5.175   5.145
10888SOL     OW33007   6.024   4.116   5.223
10888SOL    HW133008   6.106   4.060   5.232
10888SOL    HW233009   5.943   4.058   5.227
10889SOL     OW33010   7.189   4.171   4.461
10889SOL    HW133011   7.115   4.217   4.411
10889SOL    HW233012   7.240   4.239   4.514
10890SOL     OW33013   5.817   5.437   4.207
10890SOL    HW133014   5.851   5.514   4.261
10890SOL    HW233015   5.861   5.437   4.117
10891SOL     OW33016   6.713   5.065   5.414
10891SOL    HW133017   6.760   5.065   5.502
10891SOL    HW233018   6.665   4.978   5.403
10892SOL     OW33019   5.816   5.158   4.262
10892SOL    HW133020   5.790   5.254   4.262
10892SOL    HW233021   5.745   5.104   4.307
10893SOL     OW33022   5.826   4.815   4.610
10893SOL    HW133023   5.840   4.731   4.662
10893SOL    HW233024   5.771   4.879   4.665
10894SOL     OW33025   6.206   5.510   5.163
10894SOL    HW133026   6.114   5.493   5.198
10894SOL    HW233027   6.234   5.602   5.189
10895SOL     OW33028   6.192   4.688   3.847
10895SOL    HW133029   6.199   4.772   3.793
10895SOL    HW233030   6.238   4.701   3.935
10896SOL     OW33031   7.180   3.838   5.204
10896SOL    HW133032   7.162   3.905   5.132
10896SOL    HW233033   7.177   3.884   5.293
10897SOL     OW33034   5.708   4.367   4.287
10897SOL    HW133035   5.663   4.279   4.304
10897SOL    HW233036   5.707   4.421   4.371
10898SOL     OW33037   7.428   5.491   4.083
10898SOL    HW133038   7.482   5.462   4.163
10898SOL    HW233039   7.458   5.581   4.054
10899SOL     OW33040   5.613   5.320   3.841
10899SOL    HW133041   5.594   5.224   3.862
10899SOL    HW233042   5.580   5.378   3.916
10900SOL     OW33043   7.275   4.646   4.336
10900SOL    HW133044   7.370   4.617   4.344
10900SOL    HW233045   7.267   4.711   4.261
10901SOL     OW33046   7.227   4.832   4.156
10901SOL    HW133047   7.313   4.834   4.104
10901SOL    HW233048   7.241   4.879   4.244
10902SOL     OW33049   5.699   4.461   5.321
10902SOL    HW133050   5.787   4.448   5.366
10902SOL    HW233051   5.686   4.558   5.299
10903SOL     OW33052   6.199   5.089   4.450
10903SOL    HW133053   6.150   5.002   4.459
10903SOL    HW233054   6.176   5.132   4.363
10904SOL     OW33055   6.879   4.952   5.147
10904SOL    HW133056   6.916   4.879   5.089
10904SOL    HW233057   6.931   4.957   5.232
10905SOL     OW33058   6.395   3.728   4.226
10905SOL    HW133059   6.435   3.819   4.217
10905SOL    HW233060   6.295   3.736   4.232
10906SOL     OW33061   5.783   4.700   4.988
10906SOL    HW133062   5.872   4.655   4.974
10906SOL    HW233063   5.710   4.635   4.969
10907SOL     OW33064   7.111   4.723   3.914
10907SOL    HW133065   7.048   4.647   3.927
10907SOL    HW233066   7.159   4.741   4.000
10908SOL     OW33067   6.773   5.516   5.340
10908SOL    HW133068   6.797   5.576   5.264
10908SOL    HW233069   6.780   5.421   5.310
10909SOL     OW33070   5.903   3.975   5.525
10909SOL    HW133071   5.974   4.046   5.531
10909SOL    HW233072   5.815   4.014   5.553
10910SOL     OW33073   7.052   5.141   4.677
10910SOL    HW133074   6.993   5.147   4.757
10910SOL    HW233075   7.037   5.053   4.631
10911SOL     OW33076   7.253   5.438   4.296
10911SOL    HW133077   7.212   5.415   4.208
10911SOL    HW233078   7.235   5.364   4.361
10912SOL     OW33079   6.184   4.453   3.994
10912SOL    HW133080   6.208   4.522   3.926
10912SOL    HW233081   6.106   4.486   4.048
10913SOL     OW33082   6.867   4.069   4.668
10913SOL    HW133083   6.781   4.019   4.655
10913SOL    HW233084   6.929   4.015   4.724
10914SOL     OW33085   7.162   5.386   4.031
10914SOL    HW133086   7.251   5.432   4.034
10914SOL    HW233087   7.141   5.362   3.936
10915SOL     OW33088   6.393   4.329   5.189
10915SOL    HW133089   6.346   4.326   5.278
10915SOL    HW233090   6.342   4.274   5.123
10916SOL     OW33091   6.980   4.193   5.398
10916SOL    HW133092   6.960   4.236   5.486
10916SOL    HW233093   7.058   4.131   5.407
10917SOL     OW33094   6.559   4.614   5.296
10917SOL    HW133095   6.605   4.530   5.267
10917SOL    HW233096   6.503   4.648   5.221
10918SOL     OW33097   6.577   4.134   4.966
10918SOL    HW133098   6.500   4.168   5.020
10918SOL    HW233099   6.543   4.083   4.887
10919SOL     OW33100   6.627   4.425   4.153
10919SOL    HW133101   6.653   4.421   4.249
10919SOL    HW233102   6.542   4.374   4.139
10920SOL     OW33103   5.662   4.535   4.513
10920SOL    HW133104   5.761   4.523   4.522
10920SOL    HW233105   5.638   4.630   4.534
10921SOL     OW33106   5.716   5.545   5.295
10921SOL    HW133107   5.706   5.530   5.394
10921SOL    HW233108   5.630   5.581   5.259
10922SOL     OW33109   6.451   4.072   3.919
10922SOL    HW133110   6.510   4.135   3.870
10922SOL    HW233111   6.470   3.978   3.890
10923SOL     OW33112   7.305   4.309   5.555
10923SOL    HW133113   7.279   4.398   5.519
10923SOL    HW233114   7.303   4.241   5.482
10924SOL     OW33115   6.948   4.868   4.269
10924SOL    HW133116   7.031   4.839   4.221
10924SOL    HW233117   6.899   4.935   4.213
10925SOL     OW33118   6.136   3.920   4.609
10925SOL    HW133119   6.131   3.915   4.709
10925SOL    HW233120   6.138   4.016   4.580
10926SOL     OW33121   6.594   5.180   4.201
10926SOL    HW133122   6.548   5.252   4.149
10926SOL    HW233123   6.590   5.200   4.299
10927SOL     OW33124   5.937   5.525   4.577
10927SOL    HW133125   5.987   5.439   4.583
10927SOL    HW233126   6.002   5.602   4.574
10928SOL     OW33127   7.381   4.790   4.597
10928SOL    HW133128   7.319   4.775   4.521
10928SOL    HW233129   7.329   4.801   4.682
10929SOL     OW33130   6.813   5.274   5.230
10929SOL    HW133131   6.819   5.197   5.294
10929SOL    HW233132   6.761   5.248   5.150
10930SOL     OW33133   5.907   4.667   3.966
10930SOL    HW133134   5.989   4.706   3.924
10930SOL    HW233135   5.880   4.585   3.917
10931SOL     OW33136   7.044   4.459   4.452
10931SOL    HW133137   7.039   4.394   4.527
10931SOL    HW233138   7.124   4.518   4.465
10932SOL     OW33139   6.047   4.990   5.451
10932SOL    HW133140   5.997   4.991   5.365
10932SOL    HW233141   5.984   4.972   5.527
10933SOL     OW33142   6.697   5.500   3.961
10933SOL    HW133143   6.637   5.438   4.011
10933SOL    HW233144   6.728   5.456   3.876
10934SOL     OW33145   5.788   4.009   5.222
10934SOL    HW133146   5.708   4.069   5.209
10934SOL    HW233147   5.778   3.960   5.308
10935SOL     OW33148   7.218   5.101   3.805
10935SOL    HW133149   7.186   5.195   3.795
10935SOL    HW233150   7.142   5.038   3.793
10936SOL     OW33151   6.050   5.467   4.047
10936SOL    HW133152   6.083   5.506   4.133
10936SOL    HW233153   6.126   5.460   3.982
10937SOL     OW33154   6.986   3.831   4.150
10937SOL    HW133155   6.962   3.794   4.060
10937SOL    HW233156   7.085   3.847   4.154
10938SOL     OW33157   5.835   5.509   4.965
10938SOL    HW133158   5.892   5.444   5.015
10938SOL    HW233159   5.819   5.476   4.872
10939SOL     OW33160   6.526   5.422   4.628
10939SOL    HW133161   6.606   5.365   4.649
10939SOL    HW233162   6.477   5.382   4.551
10940SOL     OW33163   5.968   4.424   4.204
10940SOL    HW133164   6.013   4.334   4.201
10940SOL    HW233165   5.874   4.413   4.237
10941SOL     OW33166   7.133   3.946   5.453
10941SOL    HW133167   7.128   3.983   5.545
10941SOL    HW233168   7.061   3.877   5.441
10942SOL     OW33169   6.200   3.846   3.841
10942SOL    HW133170   6.298   3.824   3.848
10942SOL    HW233171   6.169   3.829   3.748
10943SOL     OW33172   6.367   3.988   5.473
10943SOL    HW133173   6.434   3.927   5.516
10943SOL    HW233174   6.294   4.007   5.538
10944SOL     OW33175   6.474   5.238   4.919
10944SOL    HW133176   6.451   5.213   4.825
10944SOL    HW233177   6.535   5.169   4.958
10945SOL     OW33178   6.937   4.314   5.157
10945SOL    HW133179   6.965   4.271   5.242
10945SOL    HW233180   6.962   4.410   5.158
10946SOL     OW33181   6.389   5.126   4.648
10946SOL    HW133182   6.479   5.140   4.606
10946SOL    HW233183   6.318   5.128   4.577
10947SOL     OW33184   6.508   4.227   4.623
10947SOL    HW133185   6.483   4.218   4.527
10947SOL    HW233186   6.556   4.145   4.654
10948SOL     OW33187   6.125   3.788   4.236
10948SOL    HW133188   6.044   3.789   4.294
10948SOL    HW233189   6.128   3.871   4.181
10949SOL     OW33190   7.020   4.912   3.765
10949SOL    HW133191   7.052   4.836   3.822
10949SOL    HW233192   6.928   4.939   3.795
10950SOL     OW33193   5.883   3.759   3.895
10950SOL    HW133194   5.932   3.843   3.874
10950SOL    HW233195   5.945   3.694   3.940
10951SOL     OW33196   6.521   3.960   4.204
10951SOL    HW133197   6.473   4.001   4.126
10951SOL    HW233198   6.620   3.958   4.185
10952SOL     OW33199   6.662   4.407   5.188
10952SOL    HW133200   6.582   4.346   5.191
10952SOL    HW233201   6.743   4.354   5.164
10953SOL     OW33202   6.813   5.294   4.517
10953SOL    HW133203   6.834   5.368   4.452
10953SOL    HW233204   6.881   5.294   4.590
10954SOL     OW33205   6.045   4.876   4.465
10954SOL    HW133206   5.974   4.849   4.530
10954SOL    HW233207   6.019   4.848   4.372
10955SOL     OW33208   6.857   5.521   4.315
10955SOL    HW133209   6.901   5.585   4.251
10955SOL    HW233210   6.807   5.573   4.385
10956SOL     OW33211   6.618   4.273   3.740
10956SOL    HW133212   6.577   4.355   3.701
10956SOL    HW233213   6.682   4.299   3.813
10957SOL     OW33214   5.664   4.280   5.110
10957SOL    HW133215   5.756   4.279   5.069
10957SOL    HW233216   5.658   4.354   5.177
10958SOL     OW33217   6.147   3.946   4.871
10958SOL    HW133218   6.185   3.862   4.908
10958SOL    HW233219   6.059   3.965   4.915
10959SOL     OW33220   6.452   4.178   4.366
10959SOL    HW133221   6.420   4.250   4.304
10959SOL    HW233222   6.476   4.097   4.313
10960SOL     OW33223   6.603   3.763   4.477
10960SOL    HW133224   6.531   3.768   4.408
10960SOL    HW233225   6.579   3.694   4.546
10961SOL     OW33226   7.015   4.897   4.591
10961SOL    HW133227   6.960   4.813   4.584
10961SOL    HW233228   7.041   4.926   4.499
10962SOL     OW33229   7.052   4.314   4.716
10962SOL    HW133230   7.022   4.219   4.723
10962SOL    HW233231   7.125   4.330   4.782
10963SOL     OW33232   7.443   4.557   4.101
10963SOL    HW133233   7.485   4.493   4.165
10963SOL    HW233234   7.405   4.506   4.023
10964SOL     OW33235   6.074   5.109   3.898
10964SOL    HW133236   5.987   5.094   3.945
10964SOL    HW233237   6.057   5.135   3.803
10965SOL     OW33238   7.250   5.004   4.381
10965SOL    HW133239   7.349   5.012   4.395
10965SOL    HW233240   7.205   5.088   4.412
10966SOL     OW33241   6.976   4.299   3.802
10966SOL    HW133242   6.922   4.278   3.883
10966SOL    HW233243   7.067   4.258   3.811
10967SOL     OW33244   6.113   3.980   4.052
10967SOL    HW133245   6.140   3.921   3.977
10967SOL    HW233246   6.113   4.075   4.021
10968SOL     OW33247   7.340   4.947   5.312
10968SOL    HW133248   7.431   4.908   5.299
10968SOL    HW233249   7.348   5.043   5.336
10969SOL     OW33250   6.650   5.071   5.064
10969SOL    HW133251   6.570   5.048   5.119
10969SOL    HW233252   6.733   5.045   5.113
10970SOL     OW33253   7.178   5.353   5.349
10970SOL    HW133254   7.205   5.387   5.259
10970SOL    HW233255   7.257   5.315   5.395
10971SOL     OW33256   6.697   4.919   4.824
10971SOL    HW133257   6.657   4.963   4.905
10971SOL    HW233258   6.656   4.956   4.741
10972SOL     OW33259   7.224   4.823   4.803
10972SOL    HW133260   7.229   4.904   4.862
10972SOL    HW233261   7.138   4.825   4.752
10973SOL     OW33262   6.501   3.813   5.126
10973SOL    HW133263   6.526   3.793   5.031
10973SOL    HW233264   6.573   3.869   5.168
10974SOL     OW33265   6.566   4.840   5.443
10974SOL    HW133266   6.467   4.846   5.453
10974SOL    HW233267   6.589   4.760   5.387
10975SOL     OW33268   6.291   4.774   4.092
10975SOL    HW133269   6.277   4.781   4.191
10975SOL    HW233270   6.375   4.723   4.074
10976SOL     OW33271   5.996   4.537   4.975
10976SOL    HW133272   6.082   4.549   5.025
10976SOL    HW233273   5.954   4.450   5.002
10977SOL     OW33274   6.860   4.110   4.986
10977SOL    HW133275   6.881   4.184   5.050
10977SOL    HW233276   6.771   4.127   4.943
10978SOL     OW33277   5.650   5.288   5.055
10978SOL    HW133278   5.604   5.370   5.021
10978SOL    HW233279   5.748   5.307   5.064
10979SOL     OW33280   5.953   4.824   4.225
10979SOL    HW133281   5.946   4.907   4.169
10979SOL    HW233282   5.957   4.744   4.165
10980SOL     OW33283   6.152   4.261   4.589
10980SOL    HW133284   6.164   4.327   4.515
10980SOL    HW233285   6.198   4.295   4.672
10981SOL     OW33286   6.838   5.072   4.112
10981SOL    HW133287   6.888   5.149   4.152
10981SOL    HW233288   6.743   5.074   4.144
10982SOL     OW33289   6.858   5.169   4.866
10982SOL    HW133290   6.905   5.182   4.953
10982SOL    HW233291   6.792   5.095   4.875
10983SOL     OW33292   7.168   4.363   4.196
10983SOL    HW133293   7.137   4.424   4.269
10983SOL    HW233294   7.218   4.415   4.127
10984SOL     OW33295   5.940   5.234   5.053
10984SOL    HW133296   5.919   5.190   4.966
10984SOL    HW233297   6.037   5.260   5.056
10985SOL     OW33298   5.988   4.475   5.322
10985SOL    HW133299   6.056   4.530   5.275
10985SOL    HW233300   6.028   4.387   5.349
10986SOL     OW33301   7.173   4.503   5.394
10986SOL    HW133302   7.081   4.541   5.389
10986SOL    HW233303   7.233   4.550   5.329
10987SOL     OW33304   6.599   3.829   5.494
10987SOL    HW133305   6.605   3.914   5.442
10987SOL    HW233306   6.631   3.753   5.437
10988SOL     OW33307   6.090   3.774   5.464
10988SOL    HW133308   6.048   3.717   5.394
10988SOL    HW233309   6.024   3.843   5.496
10989SOL     OW33310   6.159   4.594   4.753
10989SOL    HW133311   6.203   4.683   4.744
10989SOL    HW233312   6.096   4.594   4.830
10990SOL     OW33313   6.946   4.586   4.769
10990SOL    HW133314   6.871   4.586   4.703
10990SOL    HW233315   6.983   4.494   4.778
10991SOL     OW33316   6.795   4.249   3.999
10991SOL    HW133317   6.808   4.165   4.053
10991SOL    HW233318   6.766   4.323   4.059
10992SOL     OW33319   5.893   3.937   4.955
10992SOL    HW133320   5.870   3.974   5.045
10992SOL    HW233321   5.863   3.842   4.949
10993SOL     OW33322   5.623   5.034   5.006
10993SOL    HW133323   5.676   4.985   5.074
10993SOL    HW233324   5.645   5.132   5.011
10994SOL     OW33325   6.318   4.358   4.788
10994SOL    HW133326   6.377   4.332   4.712
10994SOL    HW233327   6.290   4.454   4.777
10995SOL     OW33328   7.314   4.659   5.578
10995SOL    HW133329   7.268   4.652   5.489
10995SOL    HW233330   7.252   4.703   5.644
10996SOL     OW33331   5.893   3.787   4.342
10996SOL    HW133332   5.882   3.881   4.375
10996SOL    HW233333   5.888   3.724   4.419
10997SOL     OW33334   7.208   4.091   4.098
10997SOL    HW133335   7.210   4.015   4.162
10997SOL    HW233336   7.160   4.168   4.138
10998SOL     OW33337   6.609   4.490   4.690
10998SOL    HW133338   6.624   4.511   4.786
10998SOL    HW233339   6.579   4.395   4.681
10999SOL     OW33340   6.566   5.297   5.424
10999SOL    HW133341   6.546   5.341   5.336
10999SOL    HW233342   6.605   5.206   5.408
11000SOL     OW33343   7.445   5.242   5.329
11000SOL    HW133344   7.459   5.269   5.234
11000SOL    HW233345   7.528   5.264   5.382
11001SOL     OW33346   5.936   4.622   5.528
11001SOL    HW133347   6.012   4.666   5.576
11001SOL    HW233348   5.971   4.575   5.446
11002SOL     OW33349   7.126   3.998   3.849
11002SOL    HW133350   7.065   3.923   3.872
11002SOL    HW233351   7.148   4.050   3.932
11003SOL     OW33352   6.889   4.562   3.766
11003SOL    HW133353   6.923   4.469   3.781
11003SOL    HW233354   6.907   4.589   3.671
11004SOL     OW33355   6.654   5.057   4.573
11004SOL    HW133356   6.661   4.973   4.518
11004SOL    HW233357   6.716   5.126   4.537
11005SOL     OW33358   5.905   4.534   4.673
11005SOL    HW133359   5.998   4.570   4.678
11005SOL    HW233360   5.899   4.449   4.725
11006SOL     OW33361   5.925   4.233   4.730
11006SOL    HW133362   5.873   4.150   4.713
11006SOL    HW233363   6.002   4.238   4.666
11007SOL     OW33364   6.724   4.104   5.402
11007SOL    HW133365   6.679   4.167   5.466
11007SOL    HW233366   6.817   4.135   5.385
11008SOL     OW33367   6.746   3.931   5.201
11008SOL    HW133368   6.746   3.995   5.278
11008SOL    HW233369   6.774   3.979   5.118
11009SOL     OW33370   5.594   5.050   3.924
11009SOL    HW133371   5.501   5.071   3.893
11009SOL    HW233372   5.604   4.951   3.937
11010SOL     OW33373   5.674   5.525   4.651
11010SOL    HW133374   5.632   5.439   4.624
11010SOL    HW233375   5.768   5.528   4.617
11011SOL     OW33376   6.090   5.292   4.634
11011SOL    HW133377   6.156   5.366   4.643
11011SOL    HW233378   6.134   5.213   4.592
11012SOL     OW33379   6.588   4.520   4.962
11012SOL    HW133380   6.629   4.488   5.048
11012SOL    HW233381   6.492   4.493   4.959
11013SOL     OW33382   5.626   4.268   4.838
11013SOL    HW133383   5.711   4.235   4.797
11013SOL    HW233384   5.639   4.283   4.936
11014SOL     OW33385   5.775   4.244   5.446
11014SOL    HW133386   5.834   4.204   5.376
11014SOL    HW233387   5.717   4.315   5.405
11015SOL     OW33388   6.955   4.674   5.384
11015SOL    HW133389   6.994   4.763   5.404
11015SOL    HW233390   6.965   4.654   5.287
11016SOL     OW33391   6.401   4.296   4.049
11016SOL    HW133392   6.408   4.207   4.003
11016SOL    HW233393   6.307   4.330   4.041
11017SOL     OW33394   7.243   4.328   4.930
11017SOL    HW133395   7.205   4.259   4.992
11017SOL    HW233396   7.325   4.292   4.886
11018SOL     OW33397   5.838   5.288   5.468
11018SOL    HW133398   5.808   5.345   5.544
11018SOL    HW233399   5.831   5.191   5.494
11019SOL     OW33400   6.257   4.188   4.993
11019SOL    HW133401   6.223   4.099   4.963
11019SOL    HW233402   6.283   4.242   4.913
11020SOL     OW33403   6.516   5.402   5.189
11020SOL    HW133404   6.492   5.384   5.094
11020SOL    HW233405   6.546   5.496   5.199
11021SOL     OW33406   6.059   4.224   3.915
11021SOL    HW133407   6.120   4.304   3.919
11021SOL    HW233408   5.964   4.255   3.922
11022SOL     OW33409   5.745   4.861   5.190
11022SOL    HW133410   5.767   4.800   5.266
11022SOL    HW233411   5.755   4.812   5.104
11023SOL     OW33412   6.933   4.783   4.958
11023SOL    HW133413   6.957   4.720   4.884
11023SOL    HW233414   6.843   4.823   4.940
11024SOL     OW33415   6.888   4.579   4.033
11024SOL    HW133416   6.802   4.548   4.075
11024SOL    HW233417   6.884   4.565   3.934
11025SOL     OW33418   7.345   5.471   4.878
11025SOL    HW133419   7.406   5.501   4.805
11025SOL    HW233420   7.307   5.382   4.856
11026SOL     OW33421   6.838   5.455   4.852
11026SOL    HW133422   6.922   5.460   4.798
11026SOL    HW233423   6.815   5.359   4.870
11027SOL     OW33424   5.669   4.982   4.746
11027SOL    HW133425   5.664   4.981   4.846
11027SOL    HW233426   5.586   4.941   4.708
11028SOL     OW33427   6.274   5.386   5.440
11028SOL    HW133428   6.218   5.467   5.449
11028SOL    HW233429   6.326   5.390   5.354
11029SOL     OW33430   7.312   3.859   4.247
11029SOL    HW133431   7.385   3.842   4.180
11029SOL    HW233432   7.281   3.772   4.285
11030SOL     OW33433   6.974   5.297   4.201
11030SOL    HW133434   7.041   5.309   4.127
11030SOL    HW233435   6.934   5.386   4.224
11031SOL     OW33436   5.716   5.518   5.575
11031SOL    HW133437   5.675   5.444   5.628
11031SOL    HW233438   5.780   5.569   5.633
11032SOL     OW33439   6.866   4.651   4.396
11032SOL    HW133440   6.926   4.570   4.398
11032SOL    HW233441   6.906   4.720   4.336
11033SOL     OW33442   6.416   4.997   5.146
11033SOL    HW133443   6.411   5.030   5.241
11033SOL    HW233444   6.330   5.016   5.100
11034SOL     OW33445   6.258   5.340   3.878
11034SOL    HW133446   6.267   5.350   3.779
11034SOL    HW233447   6.218   5.251   3.899
11035SOL     OW33448   7.236   5.444   5.118
11035SOL    HW133449   7.289   5.454   5.034
11035SOL    HW233450   7.209   5.534   5.152
11036SOL     OW33451   7.427   3.899   4.687
11036SOL    HW133452   7.466   3.814   4.651
11036SOL    HW233453   7.329   3.901   4.668
11037SOL     OW33454   5.849   4.050   4.444
11037SOL    HW133455   5.770   4.101   4.410
11037SOL    HW233456   5.840   4.035   4.542
11038SOL     OW33457   6.780   5.336   3.755
11038SOL    HW133458   6.786   5.243   3.792
11038SOL    HW233459   6.721   5.336   3.675
11039SOL     OW33460   6.408   4.726   5.096
11039SOL    HW133461   6.448   4.725   5.004
11039SOL    HW233462   6.418   4.818   5.136
11040SOL     OW33463   6.502   4.634   4.015
11040SOL    HW133464   6.565   4.672   3.947
11040SOL    HW233465   6.542   4.551   4.054
11041SOL     OW33466   7.090   5.331   3.768
11041SOL    HW133467   6.998   5.368   3.775
11041SOL    HW233468   7.128   5.351   3.678
11042SOL     OW33469   5.958   5.012   5.214
11042SOL    HW133470   5.945   5.105   5.180
11042SOL    HW233471   5.874   4.960   5.201
11043SOL     OW33472   7.200   5.016   5.013
11043SOL    HW133473   7.260   5.019   5.093
11043SOL    HW233474   7.125   5.080   5.026
11044SOL     OW33475   6.625   4.822   4.420
11044SOL    HW133476   6.555   4.775   4.474
11044SOL    HW233477   6.684   4.754   4.377
11045SOL     OW33478   6.600   3.960   4.695
11045SOL    HW133479   6.592   3.924   4.602
11045SOL    HW233480   6.598   3.884   4.760
11046SOL     OW33481   6.176   5.211   4.215
11046SOL    HW133482   6.218   5.153   4.145
11046SOL    HW233483   6.132   5.290   4.171
11047SOL     OW33484   7.295   4.109   5.105
11047SOL    HW133485   7.368   4.178   5.109
11047SOL    HW233486   7.323   4.034   5.046
11048SOL     OW33487   5.841   5.072   4.014
11048SOL    HW133488   5.745   5.073   3.987
11048SOL    HW233489   5.853   5.125   4.098
11049SOL     OW33490   5.691   4.737   5.450
11049SOL    HW133491   5.614   4.704   5.504
11049SOL    HW233492   5.776   4.707   5.492
11050SOL     OW33493   6.258   3.927   5.213
11050SOL    HW133494   6.348   3.911   5.173
11050SOL    HW233495   6.266   3.932   5.312
11051SOL     OW33496   5.661   4.069   3.757
11051SOL    HW133497   5.569   4.041   3.728
11051SOL    HW233498   5.692   4.146   3.701
11052SOL     OW33499   7.026   4.580   5.122
11052SOL    HW133500   6.969   4.632   5.059
11052SOL    HW233501   7.122   4.592   5.098
11053SOL     OW33502   5.658   3.890   4.042
11053SOL    HW133503   5.641   3.973   3.988
11053SOL    HW233504   5.748   3.853   4.020
11054SOL     OW33505   6.769   5.059   3.843
11054SOL    HW133506   6.670   5.048   3.845
11054SOL    HW233507   6.803   5.074   3.936
11055SOL     OW33508   6.199   4.566   5.155
11055SOL    HW133509   6.255   4.647   5.138
11055SOL    HW233510   6.258   4.486   5.158
11056SOL     OW33511   7.079   5.491   4.683
11056SOL    HW133512   7.112   5.555   4.614
11056SOL    HW233513   7.145   5.485   4.758
11057SOL     OW33514   6.302   4.289   5.432
11057SOL    HW133515   6.321   4.354   5.506
11057SOL    HW233516   6.362   4.209   5.441
11058SOL     OW33517   7.036   4.944   5.357
11058SOL    HW133518   7.027   4.934   5.456
11058SOL    HW233519   7.132   4.937   5.331
11059SOL     OW33520   5.976   5.465   5.284
11059SOL    HW133521   5.885   5.506   5.282
11059SOL    HW233522   5.969   5.371   5.316
11060SOL     OW33523   7.260   4.607   4.978
11060SOL    HW133524   7.233   4.518   4.941
11060SOL    HW233525   7.261   4.675   4.905
11061SOL     OW33526   6.811   4.049   4.173
11061SOL    HW133527   6.876   3.975   4.162
11061SOL    HW233528   6.831   4.099   4.257
11062SOL     OW33529   6.180   4.469   4.376
11062SOL    HW133530   6.230   4.554   4.357
11062SOL    HW233531   6.092   4.471   4.328
11063SOL     OW33532   7.363   4.066   5.366
11063SOL    HW133533   7.346   4.097   5.272
11063SOL    HW233534   7.279   4.029   5.404
11064SOL     OW33535   7.316   4.658   5.241
11064SOL    HW133536   7.354   4.749   5.256
11064SOL    HW233537   7.308   4.641   5.142
11065SOL     OW33538   6.445   5.098   3.740
11065SOL    HW133539   6.399   5.113   3.828
11065SOL    HW233540   6.489   5.183   3.710
11066SOL     OW33541   6.247   5.514   4.677
11066SOL    HW133542   6.201   5.602   4.664
11066SOL    HW233543   6.346   5.526   4.670
11067SOL     OW33544   6.445   4.680   4.585
11067SOL    HW133545   6.499   4.611   4.633
11067SOL    HW233546   6.413   4.749   4.651
11068SOL     OW33547   6.669   4.708   3.811
11068SOL    HW133548   6.646   4.761   3.729
11068SOL    HW233549   6.750   4.652   3.792
11069SOL     OW33550   7.447   5.293   4.575
11069SOL    HW133551   7.376   5.281   4.505
11069SOL    HW233552   7.448   5.214   4.635
11070SOL     OW33553   5.807   5.038   5.568
11070SOL    HW133554   5.742   4.965   5.547
11070SOL    HW233555   5.811   5.052   5.666
11071SOL     OW33556   5.665   4.964   4.377
11071SOL    HW133557   5.664   4.917   4.465
11071SOL    HW233558   5.747   4.936   4.326
11072SOL     OW33559   6.258   5.115   5.348
11072SOL    HW133560   6.180   5.065   5.386
11072SOL    HW233561   6.255   5.210   5.379
11073SOL     OW33562   7.410   3.916   4.951
11073SOL    HW133563   7.406   3.826   4.995
11073SOL    HW233564   7.413   3.905   4.852
11074SOL     OW33565   6.014   4.148   4.244
11074SOL    HW133566   6.044   4.076   4.182
11074SOL    HW233567   5.975   4.108   4.327
11075SOL     OW33568   7.291   5.211   4.828
11075SOL    HW133569   7.198   5.186   4.801
11075SOL    HW233570   7.317   5.161   4.910
11076SOL     OW33571   5.903   4.271   5.004
11076SOL    HW133572   5.941   4.212   5.076
11076SOL    HW233573   5.943   4.245   4.916
11077SOL     OW33574   6.398   5.310   4.411
11077SOL    HW133575   6.430   5.320   4.317
11077SOL    HW233576   6.319   5.248   4.413
11078SOL     OW33577   7.010   3.938   4.836
11078SOL    HW133578   7.062   3.873   4.891
11078SOL    HW233579   6.961   4.001   4.897
11079SOL     OW33580   6.587   3.758   4.878
11079SOL    HW133581   6.524   3.686   4.847
11079SOL    HW233582   6.680   3.722   4.878
11080SOL     OW33583   6.356   5.054   4.025
11080SOL    HW133584   6.310   4.967   4.042
11080SOL    HW233585   6.447   5.051   4.066
11081SOL     OW33586   6.204   5.291   5.008
11081SOL    HW133587   6.199   5.373   5.065
11081SOL    HW233588   6.293   5.288   4.963
11082SOL     OW33589   6.938   3.776   3.892
11082SOL    HW133590   6.973   3.735   3.808
11082SOL    HW233591   6.848   3.738   3.912
11083SOL     OW33592   6.886   4.177   4.415
11083SOL    HW133593   6.827   4.257   4.419
11083SOL    HW233594   6.901   4.142   4.508
11084SOL     OW33595   7.179   3.945   4.606
11084SOL    HW133596   7.095   3.944   4.660
11084SOL    HW233597   7.181   4.028   4.550
11085SOL     OW33598   5.625   4.801   4.024
11085SOL    HW133599   5.724   4.790   4.015
11085SOL    HW233600   5.585   4.715   4.056
11086SOL     OW33601   6.461   5.370   4.061
11086SOL    HW133602   6.384   5.335   4.007
11086SOL    HW233603   6.429   5.441   4.123
11087SOL     OW33604   5.816   4.352   5.699
11087SOL    HW133605   5.723   4.350   5.736
11087SOL    HW233606   5.817   4.313   5.607
11088SOL     OW33607   5.605   4.092   6.233
11088SOL    HW133608   5.523   4.135   6.272
11088SOL    HW233609   5.577   4.019   6.170
11089SOL     OW33610   7.141   5.235   6.289
11089SOL    HW133611   7.084   5.219   6.370
11089SOL    HW233612   7.082   5.245   6.209
11090SOL     OW33613   6.721   4.427   6.303
11090SOL    HW133614   6.778   4.505   6.278
11090SOL    HW233615   6.661   4.453   6.379
11091SOL     OW33616   7.341   4.331   5.817
11091SOL    HW133617   7.329   4.318   5.718
11091SOL    HW233618   7.311   4.250   5.866
11092SOL     OW33619   6.271   4.736   6.251
11092SOL    HW133620   6.340   4.720   6.321
11092SOL    HW233621   6.198   4.793   6.289
11093SOL     OW33622   7.189   4.171   6.323
11093SOL    HW133623   7.115   4.217   6.273
11093SOL    HW233624   7.240   4.239   6.376
11094SOL     OW33625   5.817   5.437   6.069
11094SOL    HW133626   5.851   5.514   6.123
11094SOL    HW233627   5.861   5.437   5.979
11095SOL     OW33628   5.816   5.158   6.124
11095SOL    HW133629   5.790   5.254   6.124
11095SOL    HW233630   5.745   5.104   6.169
11096SOL     OW33631   6.192   4.688   5.709
11096SOL    HW133632   6.199   4.772   5.655
11096SOL    HW233633   6.238   4.701   5.797
11097SOL     OW33634   5.708   4.367   6.149
11097SOL    HW133635   5.663   4.279   6.166
11097SOL    HW233636   5.707   4.421   6.233
11098SOL     OW33637   7.428   5.491   5.945
11098SOL    HW133638   7.482   5.462   6.025
11098SOL    HW233639   7.458   5.581   5.916
11099SOL     OW33640   5.613   5.320   5.703
11099SOL    HW133641   5.594   5.224   5.724
11099SOL    HW233642   5.580   5.378   5.778
11100SOL     OW33643   7.275   4.646   6.198
11100SOL    HW133644   7.370   4.617   6.206
11100SOL    HW233645   7.267   4.711   6.123
11101SOL     OW33646   7.227   4.832   6.018
11101SOL    HW133647   7.313   4.834   5.966
11101SOL    HW233648   7.241   4.879   6.106
11102SOL     OW33649   6.199   5.089   6.312
11102SOL    HW133650   6.150   5.002   6.321
11102SOL    HW233651   6.176   5.132   6.225
11103SOL     OW33652   6.395   3.728   6.088
11103SOL    HW133653   6.435   3.819   6.079
11103SOL    HW233654   6.295   3.736   6.094
11104SOL     OW33655   7.111   4.723   5.776
11104SOL    HW133656   7.048   4.647   5.789
11104SOL    HW233657   7.159   4.741   5.862
11105SOL     OW33658   7.253   5.438   6.158
11105SOL    HW133659   7.212   5.415   6.070
11105SOL    HW233660   7.235   5.364   6.223
11106SOL     OW33661   6.184   4.453   5.856
11106SOL    HW133662   6.208   4.522   5.788
11106SOL    HW233663   6.106   4.486   5.910
11107SOL     OW33664   7.162   5.386   5.893
11107SOL    HW133665   7.251   5.432   5.896
11107SOL    HW233666   7.141   5.362   5.798
11108SOL     OW33667   6.627   4.425   6.015
11108SOL    HW133668   6.653   4.421   6.111
11108SOL    HW233669   6.542   4.374   6.001
11109SOL     OW33670   5.662   4.535   6.375
11109SOL    HW133671   5.761   4.523   6.384
11109SOL    HW233672   5.638   4.630   6.396
11110SOL     OW33673   6.451   4.072   5.781
11110SOL    HW133674   6.510   4.135   5.732
11110SOL    HW233675   6.470   3.978   5.752
11111SOL     OW33676   6.948   4.868   6.131
11111SOL    HW133677   7.031   4.839   6.083
11111SOL    HW233678   6.899   4.935   6.075
11112SOL     OW33679   6.594   5.180   6.063
11112SOL    HW133680   6.548   5.252   6.011
11112SOL    HW233681   6.590   5.200   6.161
11113SOL     OW33682   5.937   5.525   6.439
11113SOL    HW133683   5.987   5.439   6.445
11113SOL    HW233684   6.002   5.602   6.436
11114SOL     OW33685   7.381   4.790   6.459
11114SOL    HW133686   7.319   4.775   6.383
11114SOL    HW233687   7.329   4.801   6.544
11115SOL     OW33688   5.907   4.667   5.828
11115SOL    HW133689   5.989   4.706   5.786
11115SOL    HW233690   5.880   4.585   5.779
11116SOL     OW33691   7.044   4.459   6.314
11116SOL    HW133692   7.039   4.394   6.389
11116SOL    HW233693   7.124   4.518   6.327
11117SOL     OW33694   6.697   5.500   5.823
11117SOL    HW133695   6.637   5.438   5.873
11117SOL    HW233696   6.728   5.456   5.738
11118SOL     OW33697   7.218   5.101   5.667
11118SOL    HW133698   7.186   5.195   5.657
11118SOL    HW233699   7.142   5.038   5.655
11119SOL     OW33700   6.050   5.467   5.909
11119SOL    HW133701   6.083   5.506   5.995
11119SOL    HW233702   6.126   5.460   5.844
11120SOL     OW33703   6.986   3.831   6.012
11120SOL    HW133704   6.962   3.794   5.922
11120SOL    HW233705   7.085   3.847   6.016
11121SOL     OW33706   5.968   4.424   6.066
11121SOL    HW133707   6.013   4.334   6.063
11121SOL    HW233708   5.874   4.413   6.099
11122SOL     OW33709   6.200   3.846   5.703
11122SOL    HW133710   6.298   3.824   5.710
11122SOL    HW233711   6.169   3.829   5.610
11123SOL     OW33712   6.125   3.788   6.098
11123SOL    HW133713   6.044   3.789   6.156
11123SOL    HW233714   6.128   3.871   6.043
11124SOL     OW33715   7.020   4.912   5.627
11124SOL    HW133716   7.052   4.836   5.684
11124SOL    HW233717   6.928   4.939   5.657
11125SOL     OW33718   5.883   3.759   5.757
11125SOL    HW133719   5.932   3.843   5.736
11125SOL    HW233720   5.945   3.694   5.802
11126SOL     OW33721   6.521   3.960   6.066
11126SOL    HW133722   6.473   4.001   5.988
11126SOL    HW233723   6.620   3.958   6.047
11127SOL     OW33724   6.045   4.876   6.327
11127SOL    HW133725   5.974   4.849   6.392
11127SOL    HW233726   6.019   4.848   6.234
11128SOL     OW33727   6.857   5.521   6.177
11128SOL    HW133728   6.901   5.585   6.113
11128SOL    HW233729   6.807   5.573   6.247
11129SOL     OW33730   6.618   4.273   5.602
11129SOL    HW133731   6.577   4.355   5.563
11129SOL    HW233732   6.682   4.299   5.675
11130SOL     OW33733   6.452   4.178   6.228
11130SOL    HW133734   6.420   4.250   6.166
11130SOL    HW233735   6.476   4.097   6.175
11131SOL     OW33736   6.603   3.763   6.339
11131SOL    HW133737   6.531   3.768   6.270
11131SOL    HW233738   6.579   3.694   6.408
11132SOL     OW33739   7.015   4.897   6.453
11132SOL    HW133740   6.960   4.813   6.446
11132SOL    HW233741   7.041   4.926   6.361
11133SOL     OW33742   7.443   4.557   5.963
11133SOL    HW133743   7.485   4.493   6.027
11133SOL    HW233744   7.405   4.506   5.885
11134SOL     OW33745   6.074   5.109   5.760
11134SOL    HW133746   5.987   5.094   5.807
11134SOL    HW233747   6.057   5.135   5.665
11135SOL     OW33748   7.250   5.004   6.243
11135SOL    HW133749   7.349   5.012   6.257
11135SOL    HW233750   7.205   5.088   6.274
11136SOL     OW33751   6.976   4.299   5.664
11136SOL    HW133752   6.922   4.278   5.745
11136SOL    HW233753   7.067   4.258   5.673
11137SOL     OW33754   6.113   3.980   5.914
11137SOL    HW133755   6.140   3.921   5.839
11137SOL    HW233756   6.113   4.075   5.883
11138SOL     OW33757   6.291   4.774   5.954
11138SOL    HW133758   6.277   4.781   6.053
11138SOL    HW233759   6.375   4.723   5.936
11139SOL     OW33760   5.953   4.824   6.087
11139SOL    HW133761   5.946   4.907   6.031
11139SOL    HW233762   5.957   4.744   6.027
11140SOL     OW33763   6.152   4.261   6.451
11140SOL    HW133764   6.164   4.327   6.377
11140SOL    HW233765   6.198   4.295   6.534
11141SOL     OW33766   6.838   5.072   5.974
11141SOL    HW133767   6.888   5.149   6.014
11141SOL    HW233768   6.743   5.074   6.006
11142SOL     OW33769   7.168   4.363   6.058
11142SOL    HW133770   7.137   4.424   6.131
11142SOL    HW233771   7.218   4.415   5.989
11143SOL     OW33772   6.159   4.594   6.615
11143SOL    HW133773   6.203   4.683   6.606
11143SOL    HW233774   6.096   4.594   6.692
11144SOL     OW33775   6.946   4.586   6.631
11144SOL    HW133776   6.871   4.586   6.565
11144SOL    HW233777   6.983   4.494   6.640
11145SOL     OW33778   6.795   4.249   5.861
11145SOL    HW133779   6.808   4.165   5.915
11145SOL    HW233780   6.766   4.323   5.921
11146SOL     OW33781   5.893   3.787   6.204
11146SOL    HW133782   5.882   3.881   6.237
11146SOL    HW233783   5.888   3.724   6.281
11147SOL     OW33784   7.208   4.091   5.960
11147SOL    HW133785   7.210   4.015   6.024
11147SOL    HW233786   7.160   4.168   6.000
11148SOL     OW33787   7.126   3.998   5.711
11148SOL    HW133788   7.065   3.923   5.734
11148SOL    HW233789   7.148   4.050   5.794
11149SOL     OW33790   6.889   4.562   5.628
11149SOL    HW133791   6.923   4.469   5.643
11149SOL    HW233792   6.907   4.589   5.533
11150SOL     OW33793   6.654   5.057   6.435
11150SOL    HW133794   6.661   4.973   6.380
11150SOL    HW233795   6.716   5.126   6.399
11151SOL     OW33796   5.905   4.534   6.535
11151SOL    HW133797   5.998   4.570   6.540
11151SOL    HW233798   5.899   4.449   6.587
11152SOL     OW33799   5.925   4.233   6.592
11152SOL    HW133800   5.873   4.150   6.575
11152SOL    HW233801   6.002   4.238   6.528
11153SOL     OW33802   5.594   5.050   5.786
11153SOL    HW133803   5.501   5.071   5.755
11153SOL    HW233804   5.604   4.951   5.799
11154SOL     OW33805   5.674   5.525   6.513
11154SOL    HW133806   5.632   5.439   6.486
11154SOL    HW233807   5.768   5.528   6.479
11155SOL     OW33808   6.401   4.296   5.911
11155SOL    HW133809   6.408   4.207   5.865
11155SOL    HW233810   6.307   4.330   5.903
11156SOL     OW33811   6.059   4.224   5.777
11156SOL    HW133812   6.120   4.304   5.781
11156SOL    HW233813   5.964   4.255   5.784
11157SOL     OW33814   6.888   4.579   5.895
11157SOL    HW133815   6.802   4.548   5.937
11157SOL    HW233816   6.884   4.565   5.796
11158SOL     OW33817   5.669   4.982   6.608
11158SOL    HW133818   5.664   4.981   6.708
11158SOL    HW233819   5.586   4.941   6.570
11159SOL     OW33820   7.312   3.859   6.109
11159SOL    HW133821   7.385   3.842   6.042
11159SOL    HW233822   7.281   3.772   6.147
11160SOL     OW33823   6.974   5.297   6.063
11160SOL    HW133824   7.041   5.309   5.989
11160SOL    HW233825   6.934   5.386   6.086
11161SOL     OW33826   6.866   4.651   6.258
11161SOL    HW133827   6.926   4.570   6.260
11161SOL    HW233828   6.906   4.720   6.198
11162SOL     OW33829   6.258   5.340   5.740
11162SOL    HW133830   6.267   5.350   5.641
11162SOL    HW233831   6.218   5.251   5.761
11163SOL     OW33832   7.427   3.899   6.549
11163SOL    HW133833   7.466   3.814   6.513
11163SOL    HW233834   7.329   3.901   6.530
11164SOL     OW33835   5.849   4.050   6.306
11164SOL    HW133836   5.770   4.101   6.272
11164SOL    HW233837   5.840   4.035   6.404
11165SOL     OW33838   6.780   5.336   5.617
11165SOL    HW133839   6.786   5.243   5.654
11165SOL    HW233840   6.721   5.336   5.537
11166SOL     OW33841   6.502   4.634   5.877
11166SOL    HW133842   6.565   4.672   5.809
11166SOL    HW233843   6.542   4.551   5.916
11167SOL     OW33844   7.090   5.331   5.630
11167SOL    HW133845   6.998   5.368   5.637
11167SOL    HW233846   7.128   5.351   5.540
11168SOL     OW33847   6.625   4.822   6.282
11168SOL    HW133848   6.555   4.775   6.336
11168SOL    HW233849   6.684   4.754   6.239
11169SOL     OW33850   6.176   5.211   6.077
11169SOL    HW133851   6.218   5.153   6.007
11169SOL    HW233852   6.132   5.290   6.033
11170SOL     OW33853   5.841   5.072   5.876
11170SOL    HW133854   5.745   5.073   5.849
11170SOL    HW233855   5.853   5.125   5.960
11171SOL     OW33856   5.661   4.069   5.619
11171SOL    HW133857   5.569   4.041   5.590
11171SOL    HW233858   5.692   4.146   5.563
11172SOL     OW33859   5.658   3.890   5.904
11172SOL    HW133860   5.641   3.973   5.850
11172SOL    HW233861   5.748   3.853   5.882
11173SOL     OW33862   6.769   5.059   5.705
11173SOL    HW133863   6.670   5.048   5.707
11173SOL    HW233864   6.803   5.074   5.798
11174SOL     OW33865   6.811   4.049   6.035
11174SOL    HW133866   6.876   3.975   6.024
11174SOL    HW233867   6.831   4.099   6.119
11175SOL     OW33868   6.180   4.469   6.238
11175SOL    HW133869   6.230   4.554   6.219
11175SOL    HW233870   6.092   4.471   6.190
11176SOL     OW33871   6.445   5.098   5.602
11176SOL    HW133872   6.399   5.113   5.690
11176SOL    HW233873   6.489   5.183   5.572
11177SOL     OW33874   6.247   5.514   6.539
11177SOL    HW133875   6.201   5.602   6.526
11177SOL    HW233876   6.346   5.526   6.532
11178SOL     OW33877   6.669   4.708   5.673
11178SOL    HW133878   6.646   4.761   5.591
11178SOL    HW233879   6.750   4.652   5.654
11179SOL     OW33880   7.447   5.293   6.437
11179SOL    HW133881   7.376   5.281   6.367
11179SOL    HW233882   7.448   5.214   6.497
11180SOL     OW33883   5.665   4.964   6.239
11180SOL    HW133884   5.664   4.917   6.327
11180SOL    HW233885   5.747   4.936   6.188
11181SOL     OW33886   6.014   4.148   6.106
11181SOL    HW133887   6.044   4.076   6.044
11181SOL    HW233888   5.975   4.108   6.189
11182SOL     OW33889   5.903   4.271   6.866
11182SOL    HW133890   5.941   4.212   6.938
11182SOL    HW233891   5.943   4.245   6.778
11183SOL     OW33892   6.398   5.310   6.273
11183SOL    HW133893   6.430   5.320   6.179
11183SOL    HW233894   6.319   5.248   6.275
11184SOL     OW33895   6.356   5.054   5.887
11184SOL    HW133896   6.310   4.967   5.904
11184SOL    HW233897   6.447   5.051   5.928
11185SOL     OW33898   6.938   3.776   5.754
11185SOL    HW133899   6.973   3.735   5.670
11185SOL    HW233900   6.848   3.738   5.774
11186SOL     OW33901   6.886   4.177   6.277
11186SOL    HW133902   6.827   4.257   6.281
11186SOL    HW233903   6.901   4.142   6.370
11187SOL     OW33904   5.625   4.801   5.886
11187SOL    HW133905   5.724   4.790   5.877
11187SOL    HW233906   5.585   4.715   5.918
11188SOL     OW33907   6.461   5.370   5.923
11188SOL    HW133908   6.384   5.335   5.869
11188SOL    HW233909   6.429   5.441   5.985
11189SOL     OW33910   5.811   5.861   0.996
11189SOL    HW133911   5.846   5.844   1.088
11189SOL    HW233912   5.723   5.816   0.984
11190SOL     OW33913   5.605   5.954   0.647
11190SOL    HW133914   5.523   5.997   0.686
11190SOL    HW233915   5.577   5.881   0.584
11191SOL     OW33916   6.155   6.861   1.165
11191SOL    HW133917   6.062   6.854   1.128
11191SOL    HW233918   6.166   6.950   1.209
11192SOL     OW33919   7.141   7.097   0.703
11192SOL    HW133920   7.084   7.081   0.784
11192SOL    HW233921   7.082   7.107   0.623
11193SOL     OW33922   6.721   6.289   0.717
11193SOL    HW133923   6.778   6.367   0.692
11193SOL    HW233924   6.661   6.315   0.793
11194SOL     OW33925   6.354   6.730   1.023
11194SOL    HW133926   6.276   6.747   1.083
11194SOL    HW233927   6.388   6.817   0.987
11195SOL     OW33928   6.436   6.384   1.823
11195SOL    HW133929   6.432   6.460   1.888
11195SOL    HW233930   6.458   6.420   1.732
11196SOL     OW33931   6.271   6.598   0.665
11196SOL    HW133932   6.340   6.582   0.735
11196SOL    HW233933   6.198   6.655   0.703
11197SOL     OW33934   6.272   6.747   1.803
11197SOL    HW133935   6.332   6.826   1.817
11197SOL    HW233936   6.186   6.778   1.762
11198SOL     OW33937   5.921   7.021   1.061
11198SOL    HW133938   5.843   6.990   1.008
11198SOL    HW233939   5.979   7.079   1.004
11199SOL     OW33940   7.046   7.091   1.339
11199SOL    HW133941   7.070   7.185   1.365
11199SOL    HW233942   7.030   7.037   1.421
11200SOL     OW33943   6.024   5.978   1.499
11200SOL    HW133944   6.106   5.922   1.508
11200SOL    HW233945   5.943   5.920   1.503
11201SOL     OW33946   7.189   6.033   0.737
11201SOL    HW133947   7.115   6.079   0.687
11201SOL    HW233948   7.240   6.101   0.790
11202SOL     OW33949   5.817   7.299   0.483
11202SOL    HW133950   5.851   7.376   0.537
11202SOL    HW233951   5.861   7.299   0.393
11203SOL     OW33952   6.713   6.927   1.690
11203SOL    HW133953   6.760   6.927   1.778
11203SOL    HW233954   6.665   6.840   1.679
11204SOL     OW33955   5.816   7.020   0.538
11204SOL    HW133956   5.790   7.116   0.538
11204SOL    HW233957   5.745   6.966   0.583
11205SOL     OW33958   5.826   6.677   0.886
11205SOL    HW133959   5.840   6.593   0.938
11205SOL    HW233960   5.771   6.741   0.941
11206SOL     OW33961   6.206   7.372   1.439
11206SOL    HW133962   6.114   7.355   1.474
11206SOL    HW233963   6.234   7.464   1.465
11207SOL     OW33964   7.180   5.700   1.480
11207SOL    HW133965   7.162   5.767   1.408
11207SOL    HW233966   7.177   5.746   1.569
11208SOL     OW33967   5.708   6.229   0.563
11208SOL    HW133968   5.663   6.141   0.580
11208SOL    HW233969   5.707   6.283   0.647
11209SOL     OW33970   7.275   6.508   0.612
11209SOL    HW133971   7.370   6.479   0.620
11209SOL    HW233972   7.267   6.573   0.537
11210SOL     OW33973   7.227   6.694   0.432
11210SOL    HW133974   7.313   6.696   0.380
11210SOL    HW233975   7.241   6.741   0.520
11211SOL     OW33976   5.699   6.323   1.597
11211SOL    HW133977   5.787   6.310   1.642
11211SOL    HW233978   5.686   6.420   1.575
11212SOL     OW33979   6.199   6.951   0.726
11212SOL    HW133980   6.150   6.864   0.735
11212SOL    HW233981   6.176   6.994   0.639
11213SOL     OW33982   6.879   6.814   1.423
11213SOL    HW133983   6.916   6.741   1.365
11213SOL    HW233984   6.931   6.819   1.508
11214SOL     OW33985   6.395   5.590   0.502
11214SOL    HW133986   6.435   5.681   0.493
11214SOL    HW233987   6.295   5.598   0.508
11215SOL     OW33988   5.783   6.562   1.264
11215SOL    HW133989   5.872   6.517   1.250
11215SOL    HW233990   5.710   6.497   1.245
11216SOL     OW33991   6.773   7.378   1.616
11216SOL    HW133992   6.797   7.438   1.540
11216SOL    HW233993   6.780   7.283   1.586
11217SOL     OW33994   5.903   5.837   1.801
11217SOL    HW133995   5.974   5.908   1.807
11217SOL    HW233996   5.815   5.876   1.829
11218SOL     OW33997   7.052   7.003   0.953
11218SOL    HW133998   6.993   7.009   1.033
11218SOL    HW233999   7.037   6.915   0.907
11219SOL     OW34000   7.253   7.300   0.572
11219SOL    HW134001   7.212   7.277   0.484
11219SOL    HW234002   7.235   7.226   0.637
11220SOL     OW34003   6.184   6.315   0.270
11220SOL    HW134004   6.208   6.384   0.202
11220SOL    HW234005   6.106   6.348   0.324
11221SOL     OW34006   6.867   5.931   0.944
11221SOL    HW134007   6.781   5.881   0.931
11221SOL    HW234008   6.929   5.877   1.000
11222SOL     OW34009   6.393   6.191   1.465
11222SOL    HW134010   6.346   6.188   1.554
11222SOL    HW234011   6.342   6.136   1.399
11223SOL     OW34012   6.980   6.055   1.674
11223SOL    HW134013   6.960   6.098   1.762
11223SOL    HW234014   7.058   5.993   1.683
11224SOL     OW34015   6.559   6.476   1.572
11224SOL    HW134016   6.605   6.392   1.543
11224SOL    HW234017   6.503   6.510   1.497
11225SOL     OW34018   6.577   5.996   1.242
11225SOL    HW134019   6.500   6.030   1.296
11225SOL    HW234020   6.543   5.945   1.163
11226SOL     OW34021   6.627   6.287   0.429
11226SOL    HW134022   6.653   6.283   0.525
11226SOL    HW234023   6.542   6.236   0.415
11227SOL     OW34024   5.662   6.397   0.789
11227SOL    HW134025   5.761   6.385   0.798
11227SOL    HW234026   5.638   6.492   0.810
11228SOL     OW34027   5.716   7.407   1.571
11228SOL    HW134028   5.706   7.392   1.670
11228SOL    HW234029   5.630   7.443   1.535
11229SOL     OW34030   6.451   5.934   0.195
11229SOL    HW134031   6.510   5.997   0.146
11229SOL    HW234032   6.470   5.840   0.166
11230SOL     OW34033   7.305   6.171   1.831
11230SOL    HW134034   7.279   6.260   1.795
11230SOL    HW234035   7.303   6.103   1.758
11231SOL     OW34036   6.948   6.730   0.545
11231SOL    HW134037   7.031   6.701   0.497
11231SOL    HW234038   6.899   6.797   0.489
11232SOL     OW34039   6.136   5.782   0.885
11232SOL    HW134040   6.131   5.777   0.985
11232SOL    HW234041   6.138   5.878   0.856
11233SOL     OW34042   6.594   7.042   0.477
11233SOL    HW134043   6.548   7.114   0.425
11233SOL    HW234044   6.590   7.062   0.575
11234SOL     OW34045   5.937   7.387   0.853
11234SOL    HW134046   5.987   7.301   0.859
11234SOL    HW234047   6.002   7.464   0.850
11235SOL     OW34048   7.381   6.652   0.873
11235SOL    HW134049   7.319   6.637   0.797
11235SOL    HW234050   7.329   6.663   0.958
11236SOL     OW34051   6.813   7.136   1.506
11236SOL    HW134052   6.819   7.059   1.570
11236SOL    HW234053   6.761   7.110   1.426
11237SOL     OW34054   7.044   6.321   0.728
11237SOL    HW134055   7.039   6.256   0.803
11237SOL    HW234056   7.124   6.380   0.741
11238SOL     OW34057   6.047   6.852   1.727
11238SOL    HW134058   5.997   6.853   1.641
11238SOL    HW234059   5.984   6.834   1.803
11239SOL     OW34060   5.788   5.871   1.498
11239SOL    HW134061   5.708   5.931   1.485
11239SOL    HW234062   5.778   5.822   1.584
11240SOL     OW34063   6.050   7.329   0.323
11240SOL    HW134064   6.083   7.368   0.409
11240SOL    HW234065   6.126   7.322   0.258
11241SOL     OW34066   5.835   7.371   1.241
11241SOL    HW134067   5.892   7.306   1.291
11241SOL    HW234068   5.819   7.338   1.148
11242SOL     OW34069   6.526   7.284   0.904
11242SOL    HW134070   6.606   7.227   0.925
11242SOL    HW234071   6.477   7.244   0.827
11243SOL     OW34072   5.968   6.286   0.480
11243SOL    HW134073   6.013   6.196   0.477
11243SOL    HW234074   5.874   6.275   0.513
11244SOL     OW34075   7.133   5.808   1.729
11244SOL    HW134076   7.128   5.845   1.821
11244SOL    HW234077   7.061   5.739   1.717
11245SOL     OW34078   6.367   5.850   1.749
11245SOL    HW134079   6.434   5.789   1.792
11245SOL    HW234080   6.294   5.869   1.814
11246SOL     OW34081   6.474   7.100   1.195
11246SOL    HW134082   6.451   7.075   1.101
11246SOL    HW234083   6.535   7.031   1.234
11247SOL     OW34084   6.937   6.176   1.433
11247SOL    HW134085   6.965   6.133   1.518
11247SOL    HW234086   6.962   6.272   1.434
11248SOL     OW34087   6.389   6.988   0.924
11248SOL    HW134088   6.479   7.002   0.882
11248SOL    HW234089   6.318   6.990   0.853
11249SOL     OW34090   6.508   6.089   0.899
11249SOL    HW134091   6.483   6.080   0.803
11249SOL    HW234092   6.556   6.007   0.930
11250SOL     OW34093   6.125   5.650   0.512
11250SOL    HW134094   6.044   5.651   0.570
11250SOL    HW234095   6.128   5.733   0.457
11251SOL     OW34096   6.521   5.822   0.480
11251SOL    HW134097   6.473   5.863   0.402
11251SOL    HW234098   6.620   5.820   0.461
11252SOL     OW34099   6.662   6.269   1.464
11252SOL    HW134100   6.582   6.208   1.467
11252SOL    HW234101   6.743   6.216   1.440
11253SOL     OW34102   6.813   7.156   0.793
11253SOL    HW134103   6.834   7.230   0.728
11253SOL    HW234104   6.881   7.156   0.866
11254SOL     OW34105   6.045   6.738   0.741
11254SOL    HW134106   5.974   6.711   0.806
11254SOL    HW234107   6.019   6.710   0.648
11255SOL     OW34108   5.664   6.142   1.386
11255SOL    HW134109   5.756   6.141   1.345
11255SOL    HW234110   5.658   6.216   1.453
11256SOL     OW34111   6.147   5.808   1.147
11256SOL    HW134112   6.185   5.724   1.184
11256SOL    HW234113   6.059   5.827   1.191
11257SOL     OW34114   6.452   6.040   0.642
11257SOL    HW134115   6.420   6.112   0.580
11257SOL    HW234116   6.476   5.959   0.589
11258SOL     OW34117   6.603   5.625   0.753
11258SOL    HW134118   6.531   5.630   0.684
11258SOL    HW234119   6.579   5.556   0.822
11259SOL     OW34120   7.015   6.759   0.867
11259SOL    HW134121   6.960   6.675   0.860
11259SOL    HW234122   7.041   6.788   0.775
11260SOL     OW34123   7.052   6.176   0.992
11260SOL    HW134124   7.022   6.081   0.999
11260SOL    HW234125   7.125   6.192   1.058
11261SOL     OW34126   7.443   6.419   0.377
11261SOL    HW134127   7.485   6.355   0.441
11261SOL    HW234128   7.405   6.368   0.299
11262SOL     OW34129   7.250   6.866   0.657
11262SOL    HW134130   7.349   6.874   0.671
11262SOL    HW234131   7.205   6.950   0.688
11263SOL     OW34132   6.113   5.842   0.328
11263SOL    HW134133   6.140   5.783   0.253
11263SOL    HW234134   6.113   5.937   0.297
11264SOL     OW34135   7.340   6.809   1.588
11264SOL    HW134136   7.431   6.770   1.575
11264SOL    HW234137   7.348   6.905   1.612
11265SOL     OW34138   6.650   6.933   1.340
11265SOL    HW134139   6.570   6.910   1.395
11265SOL    HW234140   6.733   6.907   1.389
11266SOL     OW34141   7.178   7.215   1.625
11266SOL    HW134142   7.205   7.249   1.535
11266SOL    HW234143   7.257   7.177   1.671
11267SOL     OW34144   6.697   6.781   1.100
11267SOL    HW134145   6.657   6.825   1.181
11267SOL    HW234146   6.656   6.818   1.017
11268SOL     OW34147   7.224   6.685   1.079
11268SOL    HW134148   7.229   6.766   1.138
11268SOL    HW234149   7.138   6.687   1.028
11269SOL     OW34150   6.501   5.675   1.402
11269SOL    HW134151   6.526   5.655   1.307
11269SOL    HW234152   6.573   5.731   1.444
11270SOL     OW34153   6.566   6.702   1.719
11270SOL    HW134154   6.467   6.708   1.729
11270SOL    HW234155   6.589   6.622   1.663
11271SOL     OW34156   6.291   6.636   0.368
11271SOL    HW134157   6.277   6.643   0.467
11271SOL    HW234158   6.375   6.585   0.350
11272SOL     OW34159   5.996   6.399   1.251
11272SOL    HW134160   6.082   6.411   1.301
11272SOL    HW234161   5.954   6.312   1.278
11273SOL     OW34162   6.860   5.972   1.262
11273SOL    HW134163   6.881   6.046   1.326
11273SOL    HW234164   6.771   5.989   1.219
11274SOL     OW34165   5.650   7.150   1.331
11274SOL    HW134166   5.604   7.232   1.297
11274SOL    HW234167   5.748   7.169   1.340
11275SOL     OW34168   5.953   6.686   0.501
11275SOL    HW134169   5.946   6.769   0.445
11275SOL    HW234170   5.957   6.606   0.441
11276SOL     OW34171   6.152   6.123   0.865
11276SOL    HW134172   6.164   6.189   0.791
11276SOL    HW234173   6.198   6.157   0.948
11277SOL     OW34174   6.838   6.934   0.388
11277SOL    HW134175   6.888   7.011   0.428
11277SOL    HW234176   6.743   6.936   0.420
11278SOL     OW34177   6.858   7.031   1.142
11278SOL    HW134178   6.905   7.044   1.229
11278SOL    HW234179   6.792   6.957   1.151
11279SOL     OW34180   7.168   6.225   0.472
11279SOL    HW134181   7.137   6.286   0.545
11279SOL    HW234182   7.218   6.277   0.403
11280SOL     OW34183   5.940   7.096   1.329
11280SOL    HW134184   5.919   7.052   1.242
11280SOL    HW234185   6.037   7.122   1.332
11281SOL     OW34186   5.988   6.337   1.598
11281SOL    HW134187   6.056   6.392   1.551
11281SOL    HW234188   6.028   6.249   1.625
11282SOL     OW34189   7.173   6.365   1.670
11282SOL    HW134190   7.081   6.403   1.665
11282SOL    HW234191   7.233   6.412   1.605
11283SOL     OW34192   6.599   5.691   1.770
11283SOL    HW134193   6.605   5.776   1.718
11283SOL    HW234194   6.631   5.615   1.713
11284SOL     OW34195   6.090   5.636   1.740
11284SOL    HW134196   6.048   5.579   1.670
11284SOL    HW234197   6.024   5.705   1.772
11285SOL     OW34198   6.159   6.456   1.029
11285SOL    HW134199   6.203   6.545   1.020
11285SOL    HW234200   6.096   6.456   1.106
11286SOL     OW34201   6.946   6.448   1.045
11286SOL    HW134202   6.871   6.448   0.979
11286SOL    HW234203   6.983   6.356   1.054
11287SOL     OW34204   6.795   6.111   0.275
11287SOL    HW134205   6.808   6.027   0.329
11287SOL    HW234206   6.766   6.185   0.335
11288SOL     OW34207   5.893   5.799   1.231
11288SOL    HW134208   5.870   5.836   1.321
11288SOL    HW234209   5.863   5.704   1.225
11289SOL     OW34210   5.623   6.896   1.282
11289SOL    HW134211   5.676   6.847   1.350
11289SOL    HW234212   5.645   6.994   1.287
11290SOL     OW34213   6.318   6.220   1.064
11290SOL    HW134214   6.377   6.194   0.988
11290SOL    HW234215   6.290   6.316   1.053
11291SOL     OW34216   7.314   6.521   1.854
11291SOL    HW134217   7.268   6.514   1.765
11291SOL    HW234218   7.252   6.565   1.920
11292SOL     OW34219   5.893   5.649   0.618
11292SOL    HW134220   5.882   5.743   0.651
11292SOL    HW234221   5.888   5.586   0.695
11293SOL     OW34222   6.609   6.352   0.966
11293SOL    HW134223   6.624   6.373   1.062
11293SOL    HW234224   6.579   6.257   0.957
11294SOL     OW34225   6.566   7.159   1.700
11294SOL    HW134226   6.546   7.203   1.612
11294SOL    HW234227   6.605   7.068   1.684
11295SOL     OW34228   7.445   7.104   1.605
11295SOL    HW134229   7.459   7.131   1.510
11295SOL    HW234230   7.528   7.126   1.658
11296SOL     OW34231   5.936   6.484   1.804
11296SOL    HW134232   6.012   6.528   1.852
11296SOL    HW234233   5.971   6.437   1.722
11297SOL     OW34234   6.654   6.919   0.849
11297SOL    HW134235   6.661   6.835   0.794
11297SOL    HW234236   6.716   6.988   0.813
11298SOL     OW34237   5.905   6.396   0.949
11298SOL    HW134238   5.998   6.432   0.954
11298SOL    HW234239   5.899   6.311   1.001
11299SOL     OW34240   5.925   6.095   1.006
11299SOL    HW134241   5.873   6.012   0.989
11299SOL    HW234242   6.002   6.100   0.942
11300SOL     OW34243   6.724   5.966   1.678
11300SOL    HW134244   6.679   6.029   1.742
11300SOL    HW234245   6.817   5.997   1.661
11301SOL     OW34246   6.746   5.793   1.477
11301SOL    HW134247   6.746   5.857   1.554
11301SOL    HW234248   6.774   5.841   1.394
11302SOL     OW34249   5.674   7.387   0.927
11302SOL    HW134250   5.632   7.301   0.900
11302SOL    HW234251   5.768   7.390   0.893
11303SOL     OW34252   6.090   7.154   0.910
11303SOL    HW134253   6.156   7.228   0.919
11303SOL    HW234254   6.134   7.075   0.868
11304SOL     OW34255   6.588   6.382   1.238
11304SOL    HW134256   6.629   6.350   1.324
11304SOL    HW234257   6.492   6.355   1.235
11305SOL     OW34258   5.626   6.130   1.114
11305SOL    HW134259   5.711   6.097   1.073
11305SOL    HW234260   5.639   6.145   1.212
11306SOL     OW34261   5.775   6.106   1.722
11306SOL    HW134262   5.834   6.066   1.652
11306SOL    HW234263   5.717   6.177   1.681
11307SOL     OW34264   6.955   6.536   1.660
11307SOL    HW134265   6.994   6.625   1.680
11307SOL    HW234266   6.965   6.516   1.563
11308SOL     OW34267   7.243   6.190   1.206
11308SOL    HW134268   7.205   6.121   1.268
11308SOL    HW234269   7.325   6.154   1.162
11309SOL     OW34270   5.838   7.150   1.744
11309SOL    HW134271   5.808   7.207   1.820
11309SOL    HW234272   5.831   7.053   1.770
11310SOL     OW34273   6.257   6.050   1.269
11310SOL    HW134274   6.223   5.961   1.239
11310SOL    HW234275   6.283   6.104   1.189
11311SOL     OW34276   6.516   7.264   1.465
11311SOL    HW134277   6.492   7.246   1.370
11311SOL    HW234278   6.546   7.358   1.475
11312SOL     OW34279   5.745   6.723   1.466
11312SOL    HW134280   5.767   6.662   1.542
11312SOL    HW234281   5.755   6.674   1.380
11313SOL     OW34282   6.933   6.645   1.234
11313SOL    HW134283   6.957   6.582   1.160
11313SOL    HW234284   6.843   6.685   1.216
11314SOL     OW34285   7.345   7.333   1.154
11314SOL    HW134286   7.406   7.363   1.081
11314SOL    HW234287   7.307   7.244   1.132
11315SOL     OW34288   6.838   7.317   1.128
11315SOL    HW134289   6.922   7.322   1.074
11315SOL    HW234290   6.815   7.221   1.146
11316SOL     OW34291   5.669   6.844   1.022
11316SOL    HW134292   5.664   6.843   1.122
11316SOL    HW234293   5.586   6.803   0.984
11317SOL     OW34294   6.274   7.248   1.716
11317SOL    HW134295   6.218   7.329   1.725
11317SOL    HW234296   6.326   7.252   1.630
11318SOL     OW34297   7.312   5.721   0.523
11318SOL    HW134298   7.385   5.704   0.456
11318SOL    HW234299   7.281   5.634   0.561
11319SOL     OW34300   6.974   7.159   0.477
11319SOL    HW134301   7.041   7.171   0.403
11319SOL    HW234302   6.934   7.248   0.500
11320SOL     OW34303   5.716   7.380   1.851
11320SOL    HW134304   5.675   7.306   1.904
11320SOL    HW234305   5.780   7.431   1.909
11321SOL     OW34306   6.866   6.513   0.672
11321SOL    HW134307   6.926   6.432   0.674
11321SOL    HW234308   6.906   6.582   0.612
11322SOL     OW34309   6.416   6.859   1.422
11322SOL    HW134310   6.411   6.892   1.517
11322SOL    HW234311   6.330   6.878   1.376
11323SOL     OW34312   7.236   7.306   1.394
11323SOL    HW134313   7.289   7.316   1.310
11323SOL    HW234314   7.209   7.396   1.428
11324SOL     OW34315   7.427   5.761   0.963
11324SOL    HW134316   7.466   5.676   0.927
11324SOL    HW234317   7.329   5.763   0.944
11325SOL     OW34318   5.849   5.912   0.720
11325SOL    HW134319   5.770   5.963   0.686
11325SOL    HW234320   5.840   5.897   0.818
11326SOL     OW34321   6.408   6.588   1.372
11326SOL    HW134322   6.448   6.587   1.280
11326SOL    HW234323   6.418   6.680   1.412
11327SOL     OW34324   6.502   6.496   0.291
11327SOL    HW134325   6.565   6.534   0.223
11327SOL    HW234326   6.542   6.413   0.330
11328SOL     OW34327   5.958   6.874   1.490
11328SOL    HW134328   5.945   6.967   1.456
11328SOL    HW234329   5.874   6.822   1.477
11329SOL     OW34330   7.200   6.878   1.289
11329SOL    HW134331   7.260   6.881   1.369
11329SOL    HW234332   7.125   6.942   1.302
11330SOL     OW34333   6.625   6.684   0.696
11330SOL    HW134334   6.555   6.637   0.750
11330SOL    HW234335   6.684   6.616   0.653
11331SOL     OW34336   6.600   5.822   0.971
11331SOL    HW134337   6.592   5.786   0.878
11331SOL    HW234338   6.598   5.746   1.036
11332SOL     OW34339   6.176   7.073   0.491
11332SOL    HW134340   6.218   7.015   0.421
11332SOL    HW234341   6.132   7.152   0.447
11333SOL     OW34342   7.295   5.971   1.381
11333SOL    HW134343   7.368   6.040   1.385
11333SOL    HW234344   7.323   5.896   1.322
11334SOL     OW34345   5.691   6.599   1.726
11334SOL    HW134346   5.614   6.566   1.780
11334SOL    HW234347   5.776   6.569   1.768
11335SOL     OW34348   6.258   5.789   1.489
11335SOL    HW134349   6.348   5.773   1.449
11335SOL    HW234350   6.266   5.794   1.588
11336SOL     OW34351   7.026   6.442   1.398
11336SOL    HW134352   6.969   6.494   1.335
11336SOL    HW234353   7.122   6.454   1.374
11337SOL     OW34354   6.199   6.428   1.431
11337SOL    HW134355   6.255   6.509   1.414
11337SOL    HW234356   6.258   6.348   1.434
11338SOL     OW34357   7.079   7.353   0.959
11338SOL    HW134358   7.112   7.417   0.890
11338SOL    HW234359   7.145   7.347   1.034
11339SOL     OW34360   6.302   6.151   1.708
11339SOL    HW134361   6.321   6.216   1.782
11339SOL    HW234362   6.362   6.071   1.717
11340SOL     OW34363   7.036   6.806   1.633
11340SOL    HW134364   7.027   6.796   1.732
11340SOL    HW234365   7.132   6.799   1.607
11341SOL     OW34366   5.976   7.327   1.560
11341SOL    HW134367   5.885   7.368   1.558
11341SOL    HW234368   5.969   7.233   1.592
11342SOL     OW34369   7.260   6.469   1.254
11342SOL    HW134370   7.233   6.380   1.217
11342SOL    HW234371   7.261   6.537   1.181
11343SOL     OW34372   6.811   5.911   0.449
11343SOL    HW134373   6.876   5.837   0.438
11343SOL    HW234374   6.831   5.961   0.533
11344SOL     OW34375   6.180   6.331   0.652
11344SOL    HW134376   6.230   6.416   0.633
11344SOL    HW234377   6.092   6.333   0.604
11345SOL     OW34378   7.363   5.928   1.642
11345SOL    HW134379   7.346   5.959   1.548
11345SOL    HW234380   7.279   5.891   1.680
11346SOL     OW34381   7.316   6.520   1.517
11346SOL    HW134382   7.354   6.611   1.532
11346SOL    HW234383   7.308   6.503   1.418
11347SOL     OW34384   6.247   7.376   0.953
11347SOL    HW134385   6.201   7.464   0.940
11347SOL    HW234386   6.346   7.388   0.946
11348SOL     OW34387   6.445   6.542   0.861
11348SOL    HW134388   6.499   6.473   0.909
11348SOL    HW234389   6.413   6.611   0.927
11349SOL     OW34390   7.447   7.155   0.851
11349SOL    HW134391   7.376   7.143   0.781
11349SOL    HW234392   7.448   7.076   0.911
11350SOL     OW34393   5.807   6.900   1.844
11350SOL    HW134394   5.742   6.827   1.823
11350SOL    HW234395   5.811   6.914   1.942
11351SOL     OW34396   5.665   6.826   0.653
11351SOL    HW134397   5.664   6.779   0.741
11351SOL    HW234398   5.747   6.798   0.602
11352SOL     OW34399   6.258   6.977   1.624
11352SOL    HW134400   6.180   6.927   1.662
11352SOL    HW234401   6.255   7.072   1.655
11353SOL     OW34402   7.410   5.778   1.227
11353SOL    HW134403   7.406   5.688   1.271
11353SOL    HW234404   7.413   5.767   1.128
11354SOL     OW34405   6.014   6.010   0.520
11354SOL    HW134406   6.044   5.938   0.458
11354SOL    HW234407   5.975   5.970   0.603
11355SOL     OW34408   7.291   7.073   1.104
11355SOL    HW134409   7.198   7.048   1.077
11355SOL    HW234410   7.317   7.023   1.186
11356SOL     OW34411   5.903   6.133   1.280
11356SOL    HW134412   5.941   6.074   1.352
11356SOL    HW234413   5.943   6.107   1.192
11357SOL     OW34414   6.398   7.172   0.687
11357SOL    HW134415   6.430   7.182   0.593
11357SOL    HW234416   6.319   7.110   0.689
11358SOL     OW34417   7.010   5.800   1.112
11358SOL    HW134418   7.062   5.735   1.167
11358SOL    HW234419   6.961   5.863   1.173
11359SOL     OW34420   6.587   5.620   1.154
11359SOL    HW134421   6.524   5.548   1.123
11359SOL    HW234422   6.680   5.584   1.154
11360SOL     OW34423   6.204   7.153   1.284
11360SOL    HW134424   6.199   7.235   1.341
11360SOL    HW234425   6.293   7.150   1.239
11361SOL     OW34426   6.886   6.039   0.691
11361SOL    HW134427   6.827   6.119   0.695
11361SOL    HW234428   6.901   6.004   0.784
11362SOL     OW34429   7.179   5.807   0.882
11362SOL    HW134430   7.095   5.806   0.936
11362SOL    HW234431   7.181   5.890   0.826
11363SOL     OW34432   5.625   6.663   0.300
11363SOL    HW134433   5.724   6.652   0.291
11363SOL    HW234434   5.585   6.577   0.332
11364SOL     OW34435   6.461   7.232   0.337
11364SOL    HW134436   6.384   7.197   0.283
11364SOL    HW234437   6.429   7.303   0.399
11365SOL     OW34438   5.816   6.214   1.975
11365SOL    HW134439   5.723   6.212   2.012
11365SOL    HW234440   5.817   6.175   1.883
11366SOL     OW34441   5.811   5.861   2.858
11366SOL    HW134442   5.846   5.844   2.950
11366SOL    HW234443   5.723   5.816   2.846
11367SOL     OW34444   5.605   5.954   2.509
11367SOL    HW134445   5.523   5.997   2.548
11367SOL    HW234446   5.577   5.881   2.446
11368SOL     OW34447   6.155   6.861   3.027
11368SOL    HW134448   6.062   6.854   2.990
11368SOL    HW234449   6.166   6.950   3.071
11369SOL     OW34450   7.141   7.097   2.565
11369SOL    HW134451   7.084   7.081   2.646
11369SOL    HW234452   7.082   7.107   2.485
11370SOL     OW34453   6.721   6.289   2.579
11370SOL    HW134454   6.778   6.367   2.554
11370SOL    HW234455   6.661   6.315   2.655
11371SOL     OW34456   7.341   6.193   2.093
11371SOL    HW134457   7.329   6.180   1.994
11371SOL    HW234458   7.311   6.112   2.142
11372SOL     OW34459   6.354   6.730   2.885
11372SOL    HW134460   6.276   6.747   2.945
11372SOL    HW234461   6.388   6.817   2.849
11373SOL     OW34462   6.436   6.384   3.685
11373SOL    HW134463   6.432   6.460   3.750
11373SOL    HW234464   6.458   6.420   3.594
11374SOL     OW34465   6.271   6.598   2.527
11374SOL    HW134466   6.340   6.582   2.597
11374SOL    HW234467   6.198   6.655   2.565
11375SOL     OW34468   6.272   6.747   3.665
11375SOL    HW134469   6.332   6.826   3.679
11375SOL    HW234470   6.186   6.778   3.624
11376SOL     OW34471   5.921   7.021   2.923
11376SOL    HW134472   5.843   6.990   2.870
11376SOL    HW234473   5.979   7.079   2.866
11377SOL     OW34474   7.046   7.091   3.201
11377SOL    HW134475   7.070   7.185   3.227
11377SOL    HW234476   7.030   7.037   3.283
11378SOL     OW34477   6.024   5.978   3.361
11378SOL    HW134478   6.106   5.922   3.370
11378SOL    HW234479   5.943   5.920   3.365
11379SOL     OW34480   7.189   6.033   2.599
11379SOL    HW134481   7.115   6.079   2.549
11379SOL    HW234482   7.240   6.101   2.652
11380SOL     OW34483   5.817   7.299   2.345
11380SOL    HW134484   5.851   7.376   2.399
11380SOL    HW234485   5.861   7.299   2.255
11381SOL     OW34486   6.713   6.927   3.552
11381SOL    HW134487   6.760   6.927   3.640
11381SOL    HW234488   6.665   6.840   3.541
11382SOL     OW34489   5.816   7.020   2.400
11382SOL    HW134490   5.790   7.116   2.400
11382SOL    HW234491   5.745   6.966   2.445
11383SOL     OW34492   5.826   6.677   2.748
11383SOL    HW134493   5.840   6.593   2.800
11383SOL    HW234494   5.771   6.741   2.803
11384SOL     OW34495   6.206   7.372   3.301
11384SOL    HW134496   6.114   7.355   3.336
11384SOL    HW234497   6.234   7.464   3.327
11385SOL     OW34498   6.192   6.550   1.985
11385SOL    HW134499   6.199   6.634   1.931
11385SOL    HW234500   6.238   6.563   2.073
11386SOL     OW34501   7.180   5.700   3.342
11386SOL    HW134502   7.162   5.767   3.270
11386SOL    HW234503   7.177   5.746   3.431
11387SOL     OW34504   5.708   6.229   2.425
11387SOL    HW134505   5.663   6.141   2.442
11387SOL    HW234506   5.707   6.283   2.509
11388SOL     OW34507   7.428   7.353   2.221
11388SOL    HW134508   7.482   7.324   2.301
11388SOL    HW234509   7.458   7.443   2.192
11389SOL     OW34510   5.613   7.182   1.979
11389SOL    HW134511   5.594   7.086   2.000
11389SOL    HW234512   5.580   7.240   2.054
11390SOL     OW34513   7.275   6.508   2.474
11390SOL    HW134514   7.370   6.479   2.482
11390SOL    HW234515   7.267   6.573   2.399
11391SOL     OW34516   7.227   6.694   2.294
11391SOL    HW134517   7.313   6.696   2.242
11391SOL    HW234518   7.241   6.741   2.382
11392SOL     OW34519   5.699   6.323   3.459
11392SOL    HW134520   5.787   6.310   3.504
11392SOL    HW234521   5.686   6.420   3.437
11393SOL     OW34522   6.199   6.951   2.588
11393SOL    HW134523   6.150   6.864   2.597
11393SOL    HW234524   6.176   6.994   2.501
11394SOL     OW34525   6.879   6.814   3.285
11394SOL    HW134526   6.916   6.741   3.227
11394SOL    HW234527   6.931   6.819   3.370
11395SOL     OW34528   6.395   5.590   2.364
11395SOL    HW134529   6.435   5.681   2.355
11395SOL    HW234530   6.295   5.598   2.370
11396SOL     OW34531   5.783   6.562   3.126
11396SOL    HW134532   5.872   6.517   3.112
11396SOL    HW234533   5.710   6.497   3.107
11397SOL     OW34534   7.111   6.585   2.052
11397SOL    HW134535   7.048   6.509   2.065
11397SOL    HW234536   7.159   6.603   2.138
11398SOL     OW34537   6.773   7.378   3.478
11398SOL    HW134538   6.797   7.438   3.402
11398SOL    HW234539   6.780   7.283   3.448
11399SOL     OW34540   5.903   5.837   3.663
11399SOL    HW134541   5.974   5.908   3.669
11399SOL    HW234542   5.815   5.876   3.691
11400SOL     OW34543   7.052   7.003   2.815
11400SOL    HW134544   6.993   7.009   2.895
11400SOL    HW234545   7.037   6.915   2.769
11401SOL     OW34546   7.253   7.300   2.434
11401SOL    HW134547   7.212   7.277   2.346
11401SOL    HW234548   7.235   7.226   2.499
11402SOL     OW34549   6.184   6.315   2.132
11402SOL    HW134550   6.208   6.384   2.064
11402SOL    HW234551   6.106   6.348   2.186
11403SOL     OW34552   6.867   5.931   2.806
11403SOL    HW134553   6.781   5.881   2.793
11403SOL    HW234554   6.929   5.877   2.862
11404SOL     OW34555   7.162   7.248   2.169
11404SOL    HW134556   7.251   7.294   2.172
11404SOL    HW234557   7.141   7.224   2.074
11405SOL     OW34558   6.393   6.191   3.327
11405SOL    HW134559   6.346   6.188   3.416
11405SOL    HW234560   6.342   6.136   3.261
11406SOL     OW34561   6.980   6.055   3.536
11406SOL    HW134562   6.960   6.098   3.624
11406SOL    HW234563   7.058   5.993   3.545
11407SOL     OW34564   6.559   6.476   3.434
11407SOL    HW134565   6.605   6.392   3.405
11407SOL    HW234566   6.503   6.510   3.359
11408SOL     OW34567   6.577   5.996   3.104
11408SOL    HW134568   6.500   6.030   3.158
11408SOL    HW234569   6.543   5.945   3.025
11409SOL     OW34570   6.627   6.287   2.291
11409SOL    HW134571   6.653   6.283   2.387
11409SOL    HW234572   6.542   6.236   2.277
11410SOL     OW34573   5.662   6.397   2.651
11410SOL    HW134574   5.761   6.385   2.660
11410SOL    HW234575   5.638   6.492   2.672
11411SOL     OW34576   5.716   7.407   3.433
11411SOL    HW134577   5.706   7.392   3.532
11411SOL    HW234578   5.630   7.443   3.397
11412SOL     OW34579   6.451   5.934   2.057
11412SOL    HW134580   6.510   5.997   2.008
11412SOL    HW234581   6.470   5.840   2.028
11413SOL     OW34582   7.305   6.171   3.693
11413SOL    HW134583   7.279   6.260   3.657
11413SOL    HW234584   7.303   6.103   3.620
11414SOL     OW34585   6.948   6.730   2.407
11414SOL    HW134586   7.031   6.701   2.359
11414SOL    HW234587   6.899   6.797   2.351
11415SOL     OW34588   6.136   5.782   2.747
11415SOL    HW134589   6.131   5.777   2.847
11415SOL    HW234590   6.138   5.878   2.718
11416SOL     OW34591   6.594   7.042   2.339
11416SOL    HW134592   6.548   7.114   2.287
11416SOL    HW234593   6.590   7.062   2.437
11417SOL     OW34594   5.937   7.387   2.715
11417SOL    HW134595   5.987   7.301   2.721
11417SOL    HW234596   6.002   7.464   2.712
11418SOL     OW34597   7.381   6.652   2.735
11418SOL    HW134598   7.319   6.637   2.659
11418SOL    HW234599   7.329   6.663   2.820
11419SOL     OW34600   6.813   7.136   3.368
11419SOL    HW134601   6.819   7.059   3.432
11419SOL    HW234602   6.761   7.110   3.288
11420SOL     OW34603   5.907   6.529   2.104
11420SOL    HW134604   5.989   6.568   2.062
11420SOL    HW234605   5.880   6.447   2.055
11421SOL     OW34606   7.044   6.321   2.590
11421SOL    HW134607   7.039   6.256   2.665
11421SOL    HW234608   7.124   6.380   2.603
11422SOL     OW34609   6.047   6.852   3.589
11422SOL    HW134610   5.997   6.853   3.503
11422SOL    HW234611   5.984   6.834   3.665
11423SOL     OW34612   5.788   5.871   3.360
11423SOL    HW134613   5.708   5.931   3.347
11423SOL    HW234614   5.778   5.822   3.446
11424SOL     OW34615   7.218   6.963   1.943
11424SOL    HW134616   7.186   7.057   1.933
11424SOL    HW234617   7.142   6.900   1.931
11425SOL     OW34618   6.050   7.329   2.185
11425SOL    HW134619   6.083   7.368   2.271
11425SOL    HW234620   6.126   7.322   2.120
11426SOL     OW34621   6.986   5.693   2.288
11426SOL    HW134622   6.962   5.656   2.198
11426SOL    HW234623   7.085   5.709   2.292
11427SOL     OW34624   5.835   7.371   3.103
11427SOL    HW134625   5.892   7.306   3.153
11427SOL    HW234626   5.819   7.338   3.010
11428SOL     OW34627   6.526   7.284   2.766
11428SOL    HW134628   6.606   7.227   2.787
11428SOL    HW234629   6.477   7.244   2.689
11429SOL     OW34630   5.968   6.286   2.342
11429SOL    HW134631   6.013   6.196   2.339
11429SOL    HW234632   5.874   6.275   2.375
11430SOL     OW34633   7.133   5.808   3.591
11430SOL    HW134634   7.128   5.845   3.683
11430SOL    HW234635   7.061   5.739   3.579
11431SOL     OW34636   6.200   5.708   1.979
11431SOL    HW134637   6.298   5.686   1.986
11431SOL    HW234638   6.169   5.691   1.886
11432SOL     OW34639   6.367   5.850   3.611
11432SOL    HW134640   6.434   5.789   3.654
11432SOL    HW234641   6.294   5.869   3.676
11433SOL     OW34642   6.474   7.100   3.057
11433SOL    HW134643   6.451   7.075   2.963
11433SOL    HW234644   6.535   7.031   3.096
11434SOL     OW34645   6.937   6.176   3.295
11434SOL    HW134646   6.965   6.133   3.380
11434SOL    HW234647   6.962   6.272   3.296
11435SOL     OW34648   6.389   6.988   2.786
11435SOL    HW134649   6.479   7.002   2.744
11435SOL    HW234650   6.318   6.990   2.715
11436SOL     OW34651   6.508   6.089   2.761
11436SOL    HW134652   6.483   6.080   2.665
11436SOL    HW234653   6.556   6.007   2.792
11437SOL     OW34654   6.125   5.650   2.374
11437SOL    HW134655   6.044   5.651   2.432
11437SOL    HW234656   6.128   5.733   2.319
11438SOL     OW34657   7.020   6.774   1.903
11438SOL    HW134658   7.052   6.698   1.960
11438SOL    HW234659   6.928   6.801   1.933
11439SOL     OW34660   5.883   5.621   2.033
11439SOL    HW134661   5.932   5.705   2.012
11439SOL    HW234662   5.945   5.556   2.078
11440SOL     OW34663   6.521   5.822   2.342
11440SOL    HW134664   6.473   5.863   2.264
11440SOL    HW234665   6.620   5.820   2.323
11441SOL     OW34666   6.662   6.269   3.326
11441SOL    HW134667   6.582   6.208   3.329
11441SOL    HW234668   6.743   6.216   3.302
11442SOL     OW34669   6.813   7.156   2.655
11442SOL    HW134670   6.834   7.230   2.590
11442SOL    HW234671   6.881   7.156   2.728
11443SOL     OW34672   6.045   6.738   2.603
11443SOL    HW134673   5.974   6.711   2.668
11443SOL    HW234674   6.019   6.710   2.510
11444SOL     OW34675   6.618   6.135   1.878
11444SOL    HW134676   6.577   6.217   1.839
11444SOL    HW234677   6.682   6.161   1.951
11445SOL     OW34678   5.664   6.142   3.248
11445SOL    HW134679   5.756   6.141   3.207
11445SOL    HW234680   5.658   6.216   3.315
11446SOL     OW34681   6.147   5.808   3.009
11446SOL    HW134682   6.185   5.724   3.046
11446SOL    HW234683   6.059   5.827   3.053
11447SOL     OW34684   6.452   6.040   2.504
11447SOL    HW134685   6.420   6.112   2.442
11447SOL    HW234686   6.476   5.959   2.451
11448SOL     OW34687   6.603   5.625   2.615
11448SOL    HW134688   6.531   5.630   2.546
11448SOL    HW234689   6.579   5.556   2.684
11449SOL     OW34690   7.015   6.759   2.729
11449SOL    HW134691   6.960   6.675   2.722
11449SOL    HW234692   7.041   6.788   2.637
11450SOL     OW34693   7.052   6.176   2.854
11450SOL    HW134694   7.022   6.081   2.861
11450SOL    HW234695   7.125   6.192   2.920
11451SOL     OW34696   7.443   6.419   2.239
11451SOL    HW134697   7.485   6.355   2.303
11451SOL    HW234698   7.405   6.368   2.161
11452SOL     OW34699   6.074   6.971   2.036
11452SOL    HW134700   5.987   6.956   2.083
11452SOL    HW234701   6.057   6.997   1.941
11453SOL     OW34702   7.250   6.866   2.519
11453SOL    HW134703   7.349   6.874   2.533
11453SOL    HW234704   7.205   6.950   2.550
11454SOL     OW34705   6.976   6.161   1.940
11454SOL    HW134706   6.922   6.140   2.021
11454SOL    HW234707   7.067   6.120   1.949
11455SOL     OW34708   6.113   5.842   2.190
11455SOL    HW134709   6.140   5.783   2.115
11455SOL    HW234710   6.113   5.937   2.159
11456SOL     OW34711   7.340   6.809   3.450
11456SOL    HW134712   7.431   6.770   3.437
11456SOL    HW234713   7.348   6.905   3.474
11457SOL     OW34714   6.650   6.933   3.202
11457SOL    HW134715   6.570   6.910   3.257
11457SOL    HW234716   6.733   6.907   3.251
11458SOL     OW34717   7.178   7.215   3.487
11458SOL    HW134718   7.205   7.249   3.397
11458SOL    HW234719   7.257   7.177   3.533
11459SOL     OW34720   6.697   6.781   2.962
11459SOL    HW134721   6.657   6.825   3.043
11459SOL    HW234722   6.656   6.818   2.879
11460SOL     OW34723   7.224   6.685   2.941
11460SOL    HW134724   7.229   6.766   3.000
11460SOL    HW234725   7.138   6.687   2.890
11461SOL     OW34726   6.501   5.675   3.264
11461SOL    HW134727   6.526   5.655   3.169
11461SOL    HW234728   6.573   5.731   3.306
11462SOL     OW34729   6.566   6.702   3.581
11462SOL    HW134730   6.467   6.708   3.591
11462SOL    HW234731   6.589   6.622   3.525
11463SOL     OW34732   6.291   6.636   2.230
11463SOL    HW134733   6.277   6.643   2.329
11463SOL    HW234734   6.375   6.585   2.212
11464SOL     OW34735   5.996   6.399   3.113
11464SOL    HW134736   6.082   6.411   3.163
11464SOL    HW234737   5.954   6.312   3.140
11465SOL     OW34738   6.860   5.972   3.124
11465SOL    HW134739   6.881   6.046   3.188
11465SOL    HW234740   6.771   5.989   3.081
11466SOL     OW34741   5.650   7.150   3.193
11466SOL    HW134742   5.604   7.232   3.159
11466SOL    HW234743   5.748   7.169   3.202
11467SOL     OW34744   5.953   6.686   2.363
11467SOL    HW134745   5.946   6.769   2.307
11467SOL    HW234746   5.957   6.606   2.303
11468SOL     OW34747   6.152   6.123   2.727
11468SOL    HW134748   6.164   6.189   2.653
11468SOL    HW234749   6.198   6.157   2.810
11469SOL     OW34750   6.838   6.934   2.250
11469SOL    HW134751   6.888   7.011   2.290
11469SOL    HW234752   6.743   6.936   2.282
11470SOL     OW34753   6.858   7.031   3.004
11470SOL    HW134754   6.905   7.044   3.091
11470SOL    HW234755   6.792   6.957   3.013
11471SOL     OW34756   7.168   6.225   2.334
11471SOL    HW134757   7.137   6.286   2.407
11471SOL    HW234758   7.218   6.277   2.265
11472SOL     OW34759   5.940   7.096   3.191
11472SOL    HW134760   5.919   7.052   3.104
11472SOL    HW234761   6.037   7.122   3.194
11473SOL     OW34762   5.988   6.337   3.460
11473SOL    HW134763   6.056   6.392   3.413
11473SOL    HW234764   6.028   6.249   3.487
11474SOL     OW34765   7.173   6.365   3.532
11474SOL    HW134766   7.081   6.403   3.527
11474SOL    HW234767   7.233   6.412   3.467
11475SOL     OW34768   6.599   5.691   3.632
11475SOL    HW134769   6.605   5.776   3.580
11475SOL    HW234770   6.631   5.615   3.575
11476SOL     OW34771   6.090   5.636   3.602
11476SOL    HW134772   6.048   5.579   3.532
11476SOL    HW234773   6.024   5.705   3.634
11477SOL     OW34774   6.159   6.456   2.891
11477SOL    HW134775   6.203   6.545   2.882
11477SOL    HW234776   6.096   6.456   2.968
11478SOL     OW34777   6.946   6.448   2.907
11478SOL    HW134778   6.871   6.448   2.841
11478SOL    HW234779   6.983   6.356   2.916
11479SOL     OW34780   6.795   6.111   2.137
11479SOL    HW134781   6.808   6.027   2.191
11479SOL    HW234782   6.766   6.185   2.197
11480SOL     OW34783   5.893   5.799   3.093
11480SOL    HW134784   5.870   5.836   3.183
11480SOL    HW234785   5.863   5.704   3.087
11481SOL     OW34786   5.623   6.896   3.144
11481SOL    HW134787   5.676   6.847   3.212
11481SOL    HW234788   5.645   6.994   3.149
11482SOL     OW34789   6.318   6.220   2.926
11482SOL    HW134790   6.377   6.194   2.850
11482SOL    HW234791   6.290   6.316   2.915
11483SOL     OW34792   7.314   6.521   3.716
11483SOL    HW134793   7.268   6.514   3.627
11483SOL    HW234794   7.252   6.565   3.782
11484SOL     OW34795   5.893   5.649   2.480
11484SOL    HW134796   5.882   5.743   2.513
11484SOL    HW234797   5.888   5.586   2.557
11485SOL     OW34798   7.208   5.953   2.236
11485SOL    HW134799   7.210   5.877   2.300
11485SOL    HW234800   7.160   6.030   2.276
11486SOL     OW34801   6.609   6.352   2.828
11486SOL    HW134802   6.624   6.373   2.924
11486SOL    HW234803   6.579   6.257   2.819
11487SOL     OW34804   6.566   7.159   3.562
11487SOL    HW134805   6.546   7.203   3.474
11487SOL    HW234806   6.605   7.068   3.546
11488SOL     OW34807   7.445   7.104   3.467
11488SOL    HW134808   7.459   7.131   3.372
11488SOL    HW234809   7.528   7.126   3.520
11489SOL     OW34810   5.936   6.484   3.666
11489SOL    HW134811   6.012   6.528   3.714
11489SOL    HW234812   5.971   6.437   3.584
11490SOL     OW34813   7.126   5.860   1.987
11490SOL    HW134814   7.065   5.785   2.010
11490SOL    HW234815   7.148   5.912   2.070
11491SOL     OW34816   6.889   6.424   1.904
11491SOL    HW134817   6.923   6.331   1.919
11491SOL    HW234818   6.907   6.451   1.809
11492SOL     OW34819   6.654   6.919   2.711
11492SOL    HW134820   6.661   6.835   2.656
11492SOL    HW234821   6.716   6.988   2.675
11493SOL     OW34822   5.905   6.396   2.811
11493SOL    HW134823   5.998   6.432   2.816
11493SOL    HW234824   5.899   6.311   2.863
11494SOL     OW34825   5.925   6.095   2.868
11494SOL    HW134826   5.873   6.012   2.851
11494SOL    HW234827   6.002   6.100   2.804
11495SOL     OW34828   6.724   5.966   3.540
11495SOL    HW134829   6.679   6.029   3.604
11495SOL    HW234830   6.817   5.997   3.523
11496SOL     OW34831   6.746   5.793   3.339
11496SOL    HW134832   6.746   5.857   3.416
11496SOL    HW234833   6.774   5.841   3.256
11497SOL     OW34834   5.594   6.912   2.062
11497SOL    HW134835   5.501   6.933   2.031
11497SOL    HW234836   5.604   6.813   2.075
11498SOL     OW34837   5.674   7.387   2.789
11498SOL    HW134838   5.632   7.301   2.762
11498SOL    HW234839   5.768   7.390   2.755
11499SOL     OW34840   6.090   7.154   2.772
11499SOL    HW134841   6.156   7.228   2.781
11499SOL    HW234842   6.134   7.075   2.730
11500SOL     OW34843   6.588   6.382   3.100
11500SOL    HW134844   6.629   6.350   3.186
11500SOL    HW234845   6.492   6.355   3.097
11501SOL     OW34846   5.626   6.130   2.976
11501SOL    HW134847   5.711   6.097   2.935
11501SOL    HW234848   5.639   6.145   3.074
11502SOL     OW34849   5.775   6.106   3.584
11502SOL    HW134850   5.834   6.066   3.514
11502SOL    HW234851   5.717   6.177   3.543
11503SOL     OW34852   6.955   6.536   3.522
11503SOL    HW134853   6.994   6.625   3.542
11503SOL    HW234854   6.965   6.516   3.425
11504SOL     OW34855   6.401   6.158   2.187
11504SOL    HW134856   6.408   6.069   2.141
11504SOL    HW234857   6.307   6.192   2.179
11505SOL     OW34858   7.243   6.190   3.068
11505SOL    HW134859   7.205   6.121   3.130
11505SOL    HW234860   7.325   6.154   3.024
11506SOL     OW34861   5.838   7.150   3.606
11506SOL    HW134862   5.808   7.207   3.682
11506SOL    HW234863   5.831   7.053   3.632
11507SOL     OW34864   6.257   6.050   3.131
11507SOL    HW134865   6.223   5.961   3.101
11507SOL    HW234866   6.283   6.104   3.051
11508SOL     OW34867   6.516   7.264   3.327
11508SOL    HW134868   6.492   7.246   3.232
11508SOL    HW234869   6.546   7.358   3.337
11509SOL     OW34870   6.059   6.086   2.053
11509SOL    HW134871   6.120   6.166   2.057
11509SOL    HW234872   5.964   6.117   2.060
11510SOL     OW34873   5.745   6.723   3.328
11510SOL    HW134874   5.767   6.662   3.404
11510SOL    HW234875   5.755   6.674   3.242
11511SOL     OW34876   6.933   6.645   3.096
11511SOL    HW134877   6.957   6.582   3.022
11511SOL    HW234878   6.843   6.685   3.078
11512SOL     OW34879   6.888   6.441   2.171
11512SOL    HW134880   6.802   6.410   2.213
11512SOL    HW234881   6.884   6.427   2.072
11513SOL     OW34882   7.345   7.333   3.016
11513SOL    HW134883   7.406   7.363   2.943
11513SOL    HW234884   7.307   7.244   2.994
11514SOL     OW34885   6.838   7.317   2.990
11514SOL    HW134886   6.922   7.322   2.936
11514SOL    HW234887   6.815   7.221   3.008
11515SOL     OW34888   5.669   6.844   2.884
11515SOL    HW134889   5.664   6.843   2.984
11515SOL    HW234890   5.586   6.803   2.846
11516SOL     OW34891   6.274   7.248   3.578
11516SOL    HW134892   6.218   7.329   3.587
11516SOL    HW234893   6.326   7.252   3.492
11517SOL     OW34894   7.312   5.721   2.385
11517SOL    HW134895   7.385   5.704   2.318
11517SOL    HW234896   7.281   5.634   2.423
11518SOL     OW34897   6.974   7.159   2.339
11518SOL    HW134898   7.041   7.171   2.265
11518SOL    HW234899   6.934   7.248   2.362
11519SOL     OW34900   5.716   7.380   3.713
11519SOL    HW134901   5.675   7.306   3.766
11519SOL    HW234902   5.780   7.431   3.771
11520SOL     OW34903   6.866   6.513   2.534
11520SOL    HW134904   6.926   6.432   2.536
11520SOL    HW234905   6.906   6.582   2.474
11521SOL     OW34906   6.416   6.859   3.284
11521SOL    HW134907   6.411   6.892   3.379
11521SOL    HW234908   6.330   6.878   3.238
11522SOL     OW34909   6.258   7.202   2.016
11522SOL    HW134910   6.267   7.212   1.917
11522SOL    HW234911   6.218   7.113   2.037
11523SOL     OW34912   7.236   7.306   3.256
11523SOL    HW134913   7.289   7.316   3.172
11523SOL    HW234914   7.209   7.396   3.290
11524SOL     OW34915   7.427   5.761   2.825
11524SOL    HW134916   7.466   5.676   2.789
11524SOL    HW234917   7.329   5.763   2.806
11525SOL     OW34918   5.849   5.912   2.582
11525SOL    HW134919   5.770   5.963   2.548
11525SOL    HW234920   5.840   5.897   2.680
11526SOL     OW34921   6.780   7.198   1.893
11526SOL    HW134922   6.786   7.105   1.930
11526SOL    HW234923   6.721   7.198   1.813
11527SOL     OW34924   6.408   6.588   3.234
11527SOL    HW134925   6.448   6.587   3.142
11527SOL    HW234926   6.418   6.680   3.274
11528SOL     OW34927   6.502   6.496   2.153
11528SOL    HW134928   6.565   6.534   2.085
11528SOL    HW234929   6.542   6.413   2.192
11529SOL     OW34930   7.090   7.193   1.906
11529SOL    HW134931   6.998   7.230   1.913
11529SOL    HW234932   7.128   7.213   1.816
11530SOL     OW34933   5.958   6.874   3.352
11530SOL    HW134934   5.945   6.967   3.318
11530SOL    HW234935   5.874   6.822   3.339
11531SOL     OW34936   7.200   6.878   3.151
11531SOL    HW134937   7.260   6.881   3.231
11531SOL    HW234938   7.125   6.942   3.164
11532SOL     OW34939   6.625   6.684   2.558
11532SOL    HW134940   6.555   6.637   2.612
11532SOL    HW234941   6.684   6.616   2.515
11533SOL     OW34942   6.600   5.822   2.833
11533SOL    HW134943   6.592   5.786   2.740
11533SOL    HW234944   6.598   5.746   2.898
11534SOL     OW34945   6.176   7.073   2.353
11534SOL    HW134946   6.218   7.015   2.283
11534SOL    HW234947   6.132   7.152   2.309
11535SOL     OW34948   7.295   5.971   3.243
11535SOL    HW134949   7.368   6.040   3.247
11535SOL    HW234950   7.323   5.896   3.184
11536SOL     OW34951   5.841   6.934   2.152
11536SOL    HW134952   5.745   6.935   2.125
11536SOL    HW234953   5.853   6.987   2.236
11537SOL     OW34954   5.691   6.599   3.588
11537SOL    HW134955   5.614   6.566   3.642
11537SOL    HW234956   5.776   6.569   3.630
11538SOL     OW34957   6.258   5.789   3.351
11538SOL    HW134958   6.348   5.773   3.311
11538SOL    HW234959   6.266   5.794   3.450
11539SOL     OW34960   5.661   5.931   1.895
11539SOL    HW134961   5.569   5.903   1.866
11539SOL    HW234962   5.692   6.008   1.839
11540SOL     OW34963   7.026   6.442   3.260
11540SOL    HW134964   6.969   6.494   3.197
11540SOL    HW234965   7.122   6.454   3.236
11541SOL     OW34966   5.658   5.752   2.180
11541SOL    HW134967   5.641   5.835   2.126
11541SOL    HW234968   5.748   5.715   2.158
11542SOL     OW34969   6.769   6.921   1.981
11542SOL    HW134970   6.670   6.910   1.983
11542SOL    HW234971   6.803   6.936   2.074
11543SOL     OW34972   6.199   6.428   3.293
11543SOL    HW134973   6.255   6.509   3.276
11543SOL    HW234974   6.258   6.348   3.296
11544SOL     OW34975   7.079   7.353   2.821
11544SOL    HW134976   7.112   7.417   2.752
11544SOL    HW234977   7.145   7.347   2.896
11545SOL     OW34978   6.302   6.151   3.570
11545SOL    HW134979   6.321   6.216   3.644
11545SOL    HW234980   6.362   6.071   3.579
11546SOL     OW34981   7.036   6.806   3.495
11546SOL    HW134982   7.027   6.796   3.594
11546SOL    HW234983   7.132   6.799   3.469
11547SOL     OW34984   5.976   7.327   3.422
11547SOL    HW134985   5.885   7.368   3.420
11547SOL    HW234986   5.969   7.233   3.454
11548SOL     OW34987   7.260   6.469   3.116
11548SOL    HW134988   7.233   6.380   3.079
11548SOL    HW234989   7.261   6.537   3.043
11549SOL     OW34990   6.811   5.911   2.311
11549SOL    HW134991   6.876   5.837   2.300
11549SOL    HW234992   6.831   5.961   2.395
11550SOL     OW34993   6.180   6.331   2.514
11550SOL    HW134994   6.230   6.416   2.495
11550SOL    HW234995   6.092   6.333   2.466
11551SOL     OW34996   7.363   5.928   3.504
11551SOL    HW134997   7.346   5.959   3.410
11551SOL    HW234998   7.279   5.891   3.542
11552SOL     OW34999   7.316   6.520   3.379
11552SOL    HW135000   7.354   6.611   3.394
11552SOL    HW235001   7.308   6.503   3.280
11553SOL     OW35002   6.445   6.960   1.878
11553SOL    HW135003   6.399   6.975   1.966
11553SOL    HW235004   6.489   7.045   1.848
11554SOL     OW35005   6.247   7.376   2.815
11554SOL    HW135006   6.201   7.464   2.802
11554SOL    HW235007   6.346   7.388   2.808
11555SOL     OW35008   6.445   6.542   2.723
11555SOL    HW135009   6.499   6.473   2.771
11555SOL    HW235010   6.413   6.611   2.789
11556SOL     OW35011   6.669   6.570   1.949
11556SOL    HW135012   6.646   6.623   1.867
11556SOL    HW235013   6.750   6.514   1.930
11557SOL     OW35014   7.447   7.155   2.713
11557SOL    HW135015   7.376   7.143   2.643
11557SOL    HW235016   7.448   7.076   2.773
11558SOL     OW35017   5.807   6.900   3.706
11558SOL    HW135018   5.742   6.827   3.685
11558SOL    HW235019   5.811   6.914   3.804
11559SOL     OW35020   5.665   6.826   2.515
11559SOL    HW135021   5.664   6.779   2.603
11559SOL    HW235022   5.747   6.798   2.464
11560SOL     OW35023   6.258   6.977   3.486
11560SOL    HW135024   6.180   6.927   3.524
11560SOL    HW235025   6.255   7.072   3.517
11561SOL     OW35026   7.410   5.778   3.089
11561SOL    HW135027   7.406   5.688   3.133
11561SOL    HW235028   7.413   5.767   2.990
11562SOL     OW35029   6.014   6.010   2.382
11562SOL    HW135030   6.044   5.938   2.320
11562SOL    HW235031   5.975   5.970   2.465
11563SOL     OW35032   7.291   7.073   2.966
11563SOL    HW135033   7.198   7.048   2.939
11563SOL    HW235034   7.317   7.023   3.048
11564SOL     OW35035   5.903   6.133   3.142
11564SOL    HW135036   5.941   6.074   3.214
11564SOL    HW235037   5.943   6.107   3.054
11565SOL     OW35038   6.398   7.172   2.549
11565SOL    HW135039   6.430   7.182   2.455
11565SOL    HW235040   6.319   7.110   2.551
11566SOL     OW35041   7.010   5.800   2.974
11566SOL    HW135042   7.062   5.735   3.029
11566SOL    HW235043   6.961   5.863   3.035
11567SOL     OW35044   6.587   5.620   3.016
11567SOL    HW135045   6.524   5.548   2.985
11567SOL    HW235046   6.680   5.584   3.016
11568SOL     OW35047   6.356   6.916   2.163
11568SOL    HW135048   6.310   6.829   2.180
11568SOL    HW235049   6.447   6.913   2.204
11569SOL     OW35050   6.204   7.153   3.146
11569SOL    HW135051   6.199   7.235   3.203
11569SOL    HW235052   6.293   7.150   3.101
11570SOL     OW35053   6.938   5.638   2.030
11570SOL    HW135054   6.973   5.597   1.946
11570SOL    HW235055   6.848   5.600   2.050
11571SOL     OW35056   6.886   6.039   2.553
11571SOL    HW135057   6.827   6.119   2.557
11571SOL    HW235058   6.901   6.004   2.646
11572SOL     OW35059   7.179   5.807   2.744
11572SOL    HW135060   7.095   5.806   2.798
11572SOL    HW235061   7.181   5.890   2.688
11573SOL     OW35062   5.625   6.663   2.162
11573SOL    HW135063   5.724   6.652   2.153
11573SOL    HW235064   5.585   6.577   2.194
11574SOL     OW35065   6.461   7.232   2.199
11574SOL    HW135066   6.384   7.197   2.145
11574SOL    HW235067   6.429   7.303   2.261
11575SOL     OW35068   5.816   6.214   3.837
11575SOL    HW135069   5.723   6.212   3.874
11575SOL    HW235070   5.817   6.175   3.745
11576SOL     OW35071   5.811   5.861   4.720
11576SOL    HW135072   5.846   5.844   4.812
11576SOL    HW235073   5.723   5.816   4.708
11577SOL     OW35074   5.605   5.954   4.371
11577SOL    HW135075   5.523   5.997   4.410
11577SOL    HW235076   5.577   5.881   4.308
11578SOL     OW35077   6.155   6.861   4.889
11578SOL    HW135078   6.062   6.854   4.852
11578SOL    HW235079   6.166   6.950   4.933
11579SOL     OW35080   7.141   7.097   4.427
11579SOL    HW135081   7.084   7.081   4.508
11579SOL    HW235082   7.082   7.107   4.347
11580SOL     OW35083   6.721   6.289   4.441
11580SOL    HW135084   6.778   6.367   4.416
11580SOL    HW235085   6.661   6.315   4.517
11581SOL     OW35086   7.341   6.193   3.955
11581SOL    HW135087   7.329   6.180   3.856
11581SOL    HW235088   7.311   6.112   4.004
11582SOL     OW35089   6.354   6.730   4.747
11582SOL    HW135090   6.276   6.747   4.807
11582SOL    HW235091   6.388   6.817   4.711
11583SOL     OW35092   6.436   6.384   5.547
11583SOL    HW135093   6.432   6.460   5.612
11583SOL    HW235094   6.458   6.420   5.456
11584SOL     OW35095   6.271   6.598   4.389
11584SOL    HW135096   6.340   6.582   4.459
11584SOL    HW235097   6.198   6.655   4.427
11585SOL     OW35098   6.272   6.747   5.527
11585SOL    HW135099   6.332   6.826   5.541
11585SOL    HW235100   6.186   6.778   5.486
11586SOL     OW35101   5.921   7.021   4.785
11586SOL    HW135102   5.843   6.990   4.732
11586SOL    HW235103   5.979   7.079   4.728
11587SOL     OW35104   7.046   7.091   5.063
11587SOL    HW135105   7.070   7.185   5.089
11587SOL    HW235106   7.030   7.037   5.145
11588SOL     OW35107   6.024   5.978   5.223
11588SOL    HW135108   6.106   5.922   5.232
11588SOL    HW235109   5.943   5.920   5.227
11589SOL     OW35110   7.189   6.033   4.461
11589SOL    HW135111   7.115   6.079   4.411
11589SOL    HW235112   7.240   6.101   4.514
11590SOL     OW35113   5.817   7.299   4.207
11590SOL    HW135114   5.851   7.376   4.261
11590SOL    HW235115   5.861   7.299   4.117
11591SOL     OW35116   6.713   6.927   5.414
11591SOL    HW135117   6.760   6.927   5.502
11591SOL    HW235118   6.665   6.840   5.403
11592SOL     OW35119   5.816   7.020   4.262
11592SOL    HW135120   5.790   7.116   4.262
11592SOL    HW235121   5.745   6.966   4.307
11593SOL     OW35122   5.826   6.677   4.610
11593SOL    HW135123   5.840   6.593   4.662
11593SOL    HW235124   5.771   6.741   4.665
11594SOL     OW35125   6.206   7.372   5.163
11594SOL    HW135126   6.114   7.355   5.198
11594SOL    HW235127   6.234   7.464   5.189
11595SOL     OW35128   6.192   6.550   3.847
11595SOL    HW135129   6.199   6.634   3.793
11595SOL    HW235130   6.238   6.563   3.935
11596SOL     OW35131   7.180   5.700   5.204
11596SOL    HW135132   7.162   5.767   5.132
11596SOL    HW235133   7.177   5.746   5.293
11597SOL     OW35134   5.708   6.229   4.287
11597SOL    HW135135   5.663   6.141   4.304
11597SOL    HW235136   5.707   6.283   4.371
11598SOL     OW35137   7.428   7.353   4.083
11598SOL    HW135138   7.482   7.324   4.163
11598SOL    HW235139   7.458   7.443   4.054
11599SOL     OW35140   5.613   7.182   3.841
11599SOL    HW135141   5.594   7.086   3.862
11599SOL    HW235142   5.580   7.240   3.916
11600SOL     OW35143   7.275   6.508   4.336
11600SOL    HW135144   7.370   6.479   4.344
11600SOL    HW235145   7.267   6.573   4.261
11601SOL     OW35146   7.227   6.694   4.156
11601SOL    HW135147   7.313   6.696   4.104
11601SOL    HW235148   7.241   6.741   4.244
11602SOL     OW35149   5.699   6.323   5.321
11602SOL    HW135150   5.787   6.310   5.366
11602SOL    HW235151   5.686   6.420   5.299
11603SOL     OW35152   6.199   6.951   4.450
11603SOL    HW135153   6.150   6.864   4.459
11603SOL    HW235154   6.176   6.994   4.363
11604SOL     OW35155   6.879   6.814   5.147
11604SOL    HW135156   6.916   6.741   5.089
11604SOL    HW235157   6.931   6.819   5.232
11605SOL     OW35158   6.395   5.590   4.226
11605SOL    HW135159   6.435   5.681   4.217
11605SOL    HW235160   6.295   5.598   4.232
11606SOL     OW35161   5.783   6.562   4.988
11606SOL    HW135162   5.872   6.517   4.974
11606SOL    HW235163   5.710   6.497   4.969
11607SOL     OW35164   7.111   6.585   3.914
11607SOL    HW135165   7.048   6.509   3.927
11607SOL    HW235166   7.159   6.603   4.000
11608SOL     OW35167   6.773   7.378   5.340
11608SOL    HW135168   6.797   7.438   5.264
11608SOL    HW235169   6.780   7.283   5.310
11609SOL     OW35170   5.903   5.837   5.525
11609SOL    HW135171   5.974   5.908   5.531
11609SOL    HW235172   5.815   5.876   5.553
11610SOL     OW35173   7.052   7.003   4.677
11610SOL    HW135174   6.993   7.009   4.757
11610SOL    HW235175   7.037   6.915   4.631
11611SOL     OW35176   7.253   7.300   4.296
11611SOL    HW135177   7.212   7.277   4.208
11611SOL    HW235178   7.235   7.226   4.361
11612SOL     OW35179   6.184   6.315   3.994
11612SOL    HW135180   6.208   6.384   3.926
11612SOL    HW235181   6.106   6.348   4.048
11613SOL     OW35182   6.867   5.931   4.668
11613SOL    HW135183   6.781   5.881   4.655
11613SOL    HW235184   6.929   5.877   4.724
11614SOL     OW35185   7.162   7.248   4.031
11614SOL    HW135186   7.251   7.294   4.034
11614SOL    HW235187   7.141   7.224   3.936
11615SOL     OW35188   6.393   6.191   5.189
11615SOL    HW135189   6.346   6.188   5.278
11615SOL    HW235190   6.342   6.136   5.123
11616SOL     OW35191   6.980   6.055   5.398
11616SOL    HW135192   6.960   6.098   5.486
11616SOL    HW235193   7.058   5.993   5.407
11617SOL     OW35194   6.559   6.476   5.296
11617SOL    HW135195   6.605   6.392   5.267
11617SOL    HW235196   6.503   6.510   5.221
11618SOL     OW35197   6.577   5.996   4.966
11618SOL    HW135198   6.500   6.030   5.020
11618SOL    HW235199   6.543   5.945   4.887
11619SOL     OW35200   6.627   6.287   4.153
11619SOL    HW135201   6.653   6.283   4.249
11619SOL    HW235202   6.542   6.236   4.139
11620SOL     OW35203   5.662   6.397   4.513
11620SOL    HW135204   5.761   6.385   4.522
11620SOL    HW235205   5.638   6.492   4.534
11621SOL     OW35206   5.716   7.407   5.295
11621SOL    HW135207   5.706   7.392   5.394
11621SOL    HW235208   5.630   7.443   5.259
11622SOL     OW35209   6.451   5.934   3.919
11622SOL    HW135210   6.510   5.997   3.870
11622SOL    HW235211   6.470   5.840   3.890
11623SOL     OW35212   7.305   6.171   5.555
11623SOL    HW135213   7.279   6.260   5.519
11623SOL    HW235214   7.303   6.103   5.482
11624SOL     OW35215   6.948   6.730   4.269
11624SOL    HW135216   7.031   6.701   4.221
11624SOL    HW235217   6.899   6.797   4.213
11625SOL     OW35218   6.136   5.782   4.609
11625SOL    HW135219   6.131   5.777   4.709
11625SOL    HW235220   6.138   5.878   4.580
11626SOL     OW35221   6.594   7.042   4.201
11626SOL    HW135222   6.548   7.114   4.149
11626SOL    HW235223   6.590   7.062   4.299
11627SOL     OW35224   5.937   7.387   4.577
11627SOL    HW135225   5.987   7.301   4.583
11627SOL    HW235226   6.002   7.464   4.574
11628SOL     OW35227   7.381   6.652   4.597
11628SOL    HW135228   7.319   6.637   4.521
11628SOL    HW235229   7.329   6.663   4.682
11629SOL     OW35230   6.813   7.136   5.230
11629SOL    HW135231   6.819   7.059   5.294
11629SOL    HW235232   6.761   7.110   5.150
11630SOL     OW35233   5.907   6.529   3.966
11630SOL    HW135234   5.989   6.568   3.924
11630SOL    HW235235   5.880   6.447   3.917
11631SOL     OW35236   7.044   6.321   4.452
11631SOL    HW135237   7.039   6.256   4.527
11631SOL    HW235238   7.124   6.380   4.465
11632SOL     OW35239   6.047   6.852   5.451
11632SOL    HW135240   5.997   6.853   5.365
11632SOL    HW235241   5.984   6.834   5.527
11633SOL     OW35242   5.788   5.871   5.222
11633SOL    HW135243   5.708   5.931   5.209
11633SOL    HW235244   5.778   5.822   5.308
11634SOL     OW35245   7.218   6.963   3.805
11634SOL    HW135246   7.186   7.057   3.795
11634SOL    HW235247   7.142   6.900   3.793
11635SOL     OW35248   6.050   7.329   4.047
11635SOL    HW135249   6.083   7.368   4.133
11635SOL    HW235250   6.126   7.322   3.982
11636SOL     OW35251   6.986   5.693   4.150
11636SOL    HW135252   6.962   5.656   4.060
11636SOL    HW235253   7.085   5.709   4.154
11637SOL     OW35254   5.835   7.371   4.965
11637SOL    HW135255   5.892   7.306   5.015
11637SOL    HW235256   5.819   7.338   4.872
11638SOL     OW35257   6.526   7.284   4.628
11638SOL    HW135258   6.606   7.227   4.649
11638SOL    HW235259   6.477   7.244   4.551
11639SOL     OW35260   5.968   6.286   4.204
11639SOL    HW135261   6.013   6.196   4.201
11639SOL    HW235262   5.874   6.275   4.237
11640SOL     OW35263   7.133   5.808   5.453
11640SOL    HW135264   7.128   5.845   5.545
11640SOL    HW235265   7.061   5.739   5.441
11641SOL     OW35266   6.200   5.708   3.841
11641SOL    HW135267   6.298   5.686   3.848
11641SOL    HW235268   6.169   5.691   3.748
11642SOL     OW35269   6.367   5.850   5.473
11642SOL    HW135270   6.434   5.789   5.516
11642SOL    HW235271   6.294   5.869   5.538
11643SOL     OW35272   6.474   7.100   4.919
11643SOL    HW135273   6.451   7.075   4.825
11643SOL    HW235274   6.535   7.031   4.958
11644SOL     OW35275   6.937   6.176   5.157
11644SOL    HW135276   6.965   6.133   5.242
11644SOL    HW235277   6.962   6.272   5.158
11645SOL     OW35278   6.389   6.988   4.648
11645SOL    HW135279   6.479   7.002   4.606
11645SOL    HW235280   6.318   6.990   4.577
11646SOL     OW35281   6.508   6.089   4.623
11646SOL    HW135282   6.483   6.080   4.527
11646SOL    HW235283   6.556   6.007   4.654
11647SOL     OW35284   6.125   5.650   4.236
11647SOL    HW135285   6.044   5.651   4.294
11647SOL    HW235286   6.128   5.733   4.181
11648SOL     OW35287   7.020   6.774   3.765
11648SOL    HW135288   7.052   6.698   3.822
11648SOL    HW235289   6.928   6.801   3.795
11649SOL     OW35290   5.883   5.621   3.895
11649SOL    HW135291   5.932   5.705   3.874
11649SOL    HW235292   5.945   5.556   3.940
11650SOL     OW35293   6.521   5.822   4.204
11650SOL    HW135294   6.473   5.863   4.126
11650SOL    HW235295   6.620   5.820   4.185
11651SOL     OW35296   6.662   6.269   5.188
11651SOL    HW135297   6.582   6.208   5.191
11651SOL    HW235298   6.743   6.216   5.164
11652SOL     OW35299   6.813   7.156   4.517
11652SOL    HW135300   6.834   7.230   4.452
11652SOL    HW235301   6.881   7.156   4.590
11653SOL     OW35302   6.045   6.738   4.465
11653SOL    HW135303   5.974   6.711   4.530
11653SOL    HW235304   6.019   6.710   4.372
11654SOL     OW35305   6.618   6.135   3.740
11654SOL    HW135306   6.577   6.217   3.701
11654SOL    HW235307   6.682   6.161   3.813
11655SOL     OW35308   5.664   6.142   5.110
11655SOL    HW135309   5.756   6.141   5.069
11655SOL    HW235310   5.658   6.216   5.177
11656SOL     OW35311   6.147   5.808   4.871
11656SOL    HW135312   6.185   5.724   4.908
11656SOL    HW235313   6.059   5.827   4.915
11657SOL     OW35314   6.452   6.040   4.366
11657SOL    HW135315   6.420   6.112   4.304
11657SOL    HW235316   6.476   5.959   4.313
11658SOL     OW35317   6.603   5.625   4.477
11658SOL    HW135318   6.531   5.630   4.408
11658SOL    HW235319   6.579   5.556   4.546
11659SOL     OW35320   7.015   6.759   4.591
11659SOL    HW135321   6.960   6.675   4.584
11659SOL    HW235322   7.041   6.788   4.499
11660SOL     OW35323   7.052   6.176   4.716
11660SOL    HW135324   7.022   6.081   4.723
11660SOL    HW235325   7.125   6.192   4.782
11661SOL     OW35326   7.443   6.419   4.101
11661SOL    HW135327   7.485   6.355   4.165
11661SOL    HW235328   7.405   6.368   4.023
11662SOL     OW35329   6.074   6.971   3.898
11662SOL    HW135330   5.987   6.956   3.945
11662SOL    HW235331   6.057   6.997   3.803
11663SOL     OW35332   7.250   6.866   4.381
11663SOL    HW135333   7.349   6.874   4.395
11663SOL    HW235334   7.205   6.950   4.412
11664SOL     OW35335   6.976   6.161   3.802
11664SOL    HW135336   6.922   6.140   3.883
11664SOL    HW235337   7.067   6.120   3.811
11665SOL     OW35338   6.113   5.842   4.052
11665SOL    HW135339   6.140   5.783   3.977
11665SOL    HW235340   6.113   5.937   4.021
11666SOL     OW35341   7.340   6.809   5.312
11666SOL    HW135342   7.431   6.770   5.299
11666SOL    HW235343   7.348   6.905   5.336
11667SOL     OW35344   6.650   6.933   5.064
11667SOL    HW135345   6.570   6.910   5.119
11667SOL    HW235346   6.733   6.907   5.113
11668SOL     OW35347   7.178   7.215   5.349
11668SOL    HW135348   7.205   7.249   5.259
11668SOL    HW235349   7.257   7.177   5.395
11669SOL     OW35350   6.697   6.781   4.824
11669SOL    HW135351   6.657   6.825   4.905
11669SOL    HW235352   6.656   6.818   4.741
11670SOL     OW35353   7.224   6.685   4.803
11670SOL    HW135354   7.229   6.766   4.862
11670SOL    HW235355   7.138   6.687   4.752
11671SOL     OW35356   6.501   5.675   5.126
11671SOL    HW135357   6.526   5.655   5.031
11671SOL    HW235358   6.573   5.731   5.168
11672SOL     OW35359   6.566   6.702   5.443
11672SOL    HW135360   6.467   6.708   5.453
11672SOL    HW235361   6.589   6.622   5.387
11673SOL     OW35362   6.291   6.636   4.092
11673SOL    HW135363   6.277   6.643   4.191
11673SOL    HW235364   6.375   6.585   4.074
11674SOL     OW35365   5.996   6.399   4.975
11674SOL    HW135366   6.082   6.411   5.025
11674SOL    HW235367   5.954   6.312   5.002
11675SOL     OW35368   6.860   5.972   4.986
11675SOL    HW135369   6.881   6.046   5.050
11675SOL    HW235370   6.771   5.989   4.943
11676SOL     OW35371   5.650   7.150   5.055
11676SOL    HW135372   5.604   7.232   5.021
11676SOL    HW235373   5.748   7.169   5.064
11677SOL     OW35374   5.953   6.686   4.225
11677SOL    HW135375   5.946   6.769   4.169
11677SOL    HW235376   5.957   6.606   4.165
11678SOL     OW35377   6.152   6.123   4.589
11678SOL    HW135378   6.164   6.189   4.515
11678SOL    HW235379   6.198   6.157   4.672
11679SOL     OW35380   6.838   6.934   4.112
11679SOL    HW135381   6.888   7.011   4.152
11679SOL    HW235382   6.743   6.936   4.144
11680SOL     OW35383   6.858   7.031   4.866
11680SOL    HW135384   6.905   7.044   4.953
11680SOL    HW235385   6.792   6.957   4.875
11681SOL     OW35386   7.168   6.225   4.196
11681SOL    HW135387   7.137   6.286   4.269
11681SOL    HW235388   7.218   6.277   4.127
11682SOL     OW35389   5.940   7.096   5.053
11682SOL    HW135390   5.919   7.052   4.966
11682SOL    HW235391   6.037   7.122   5.056
11683SOL     OW35392   5.988   6.337   5.322
11683SOL    HW135393   6.056   6.392   5.275
11683SOL    HW235394   6.028   6.249   5.349
11684SOL     OW35395   7.173   6.365   5.394
11684SOL    HW135396   7.081   6.403   5.389
11684SOL    HW235397   7.233   6.412   5.329
11685SOL     OW35398   6.599   5.691   5.494
11685SOL    HW135399   6.605   5.776   5.442
11685SOL    HW235400   6.631   5.615   5.437
11686SOL     OW35401   6.090   5.636   5.464
11686SOL    HW135402   6.048   5.579   5.394
11686SOL    HW235403   6.024   5.705   5.496
11687SOL     OW35404   6.159   6.456   4.753
11687SOL    HW135405   6.203   6.545   4.744
11687SOL    HW235406   6.096   6.456   4.830
11688SOL     OW35407   6.946   6.448   4.769
11688SOL    HW135408   6.871   6.448   4.703
11688SOL    HW235409   6.983   6.356   4.778
11689SOL     OW35410   6.795   6.111   3.999
11689SOL    HW135411   6.808   6.027   4.053
11689SOL    HW235412   6.766   6.185   4.059
11690SOL     OW35413   5.893   5.799   4.955
11690SOL    HW135414   5.870   5.836   5.045
11690SOL    HW235415   5.863   5.704   4.949
11691SOL     OW35416   5.623   6.896   5.006
11691SOL    HW135417   5.676   6.847   5.074
11691SOL    HW235418   5.645   6.994   5.011
11692SOL     OW35419   6.318   6.220   4.788
11692SOL    HW135420   6.377   6.194   4.712
11692SOL    HW235421   6.290   6.316   4.777
11693SOL     OW35422   7.314   6.521   5.578
11693SOL    HW135423   7.268   6.514   5.489
11693SOL    HW235424   7.252   6.565   5.644
11694SOL     OW35425   5.893   5.649   4.342
11694SOL    HW135426   5.882   5.743   4.375
11694SOL    HW235427   5.888   5.586   4.419
11695SOL     OW35428   7.208   5.953   4.098
11695SOL    HW135429   7.210   5.877   4.162
11695SOL    HW235430   7.160   6.030   4.138
11696SOL     OW35431   6.609   6.352   4.690
11696SOL    HW135432   6.624   6.373   4.786
11696SOL    HW235433   6.579   6.257   4.681
11697SOL     OW35434   6.566   7.159   5.424
11697SOL    HW135435   6.546   7.203   5.336
11697SOL    HW235436   6.605   7.068   5.408
11698SOL     OW35437   7.445   7.104   5.329
11698SOL    HW135438   7.459   7.131   5.234
11698SOL    HW235439   7.528   7.126   5.382
11699SOL     OW35440   5.936   6.484   5.528
11699SOL    HW135441   6.012   6.528   5.576
11699SOL    HW235442   5.971   6.437   5.446
11700SOL     OW35443   7.126   5.860   3.849
11700SOL    HW135444   7.065   5.785   3.872
11700SOL    HW235445   7.148   5.912   3.932
11701SOL     OW35446   6.889   6.424   3.766
11701SOL    HW135447   6.923   6.331   3.781
11701SOL    HW235448   6.907   6.451   3.671
11702SOL     OW35449   6.654   6.919   4.573
11702SOL    HW135450   6.661   6.835   4.518
11702SOL    HW235451   6.716   6.988   4.537
11703SOL     OW35452   5.905   6.396   4.673
11703SOL    HW135453   5.998   6.432   4.678
11703SOL    HW235454   5.899   6.311   4.725
11704SOL     OW35455   5.925   6.095   4.730
11704SOL    HW135456   5.873   6.012   4.713
11704SOL    HW235457   6.002   6.100   4.666
11705SOL     OW35458   6.724   5.966   5.402
11705SOL    HW135459   6.679   6.029   5.466
11705SOL    HW235460   6.817   5.997   5.385
11706SOL     OW35461   6.746   5.793   5.201
11706SOL    HW135462   6.746   5.857   5.278
11706SOL    HW235463   6.774   5.841   5.118
11707SOL     OW35464   5.594   6.912   3.924
11707SOL    HW135465   5.501   6.933   3.893
11707SOL    HW235466   5.604   6.813   3.937
11708SOL     OW35467   5.674   7.387   4.651
11708SOL    HW135468   5.632   7.301   4.624
11708SOL    HW235469   5.768   7.390   4.617
11709SOL     OW35470   6.090   7.154   4.634
11709SOL    HW135471   6.156   7.228   4.643
11709SOL    HW235472   6.134   7.075   4.592
11710SOL     OW35473   6.588   6.382   4.962
11710SOL    HW135474   6.629   6.350   5.048
11710SOL    HW235475   6.492   6.355   4.959
11711SOL     OW35476   5.626   6.130   4.838
11711SOL    HW135477   5.711   6.097   4.797
11711SOL    HW235478   5.639   6.145   4.936
11712SOL     OW35479   5.775   6.106   5.446
11712SOL    HW135480   5.834   6.066   5.376
11712SOL    HW235481   5.717   6.177   5.405
11713SOL     OW35482   6.955   6.536   5.384
11713SOL    HW135483   6.994   6.625   5.404
11713SOL    HW235484   6.965   6.516   5.287
11714SOL     OW35485   6.401   6.158   4.049
11714SOL    HW135486   6.408   6.069   4.003
11714SOL    HW235487   6.307   6.192   4.041
11715SOL     OW35488   7.243   6.190   4.930
11715SOL    HW135489   7.205   6.121   4.992
11715SOL    HW235490   7.325   6.154   4.886
11716SOL     OW35491   5.838   7.150   5.468
11716SOL    HW135492   5.808   7.207   5.544
11716SOL    HW235493   5.831   7.053   5.494
11717SOL     OW35494   6.257   6.050   4.993
11717SOL    HW135495   6.223   5.961   4.963
11717SOL    HW235496   6.283   6.104   4.913
11718SOL     OW35497   6.516   7.264   5.189
11718SOL    HW135498   6.492   7.246   5.094
11718SOL    HW235499   6.546   7.358   5.199
11719SOL     OW35500   6.059   6.086   3.915
11719SOL    HW135501   6.120   6.166   3.919
11719SOL    HW235502   5.964   6.117   3.922
11720SOL     OW35503   5.745   6.723   5.190
11720SOL    HW135504   5.767   6.662   5.266
11720SOL    HW235505   5.755   6.674   5.104
11721SOL     OW35506   6.933   6.645   4.958
11721SOL    HW135507   6.957   6.582   4.884
11721SOL    HW235508   6.843   6.685   4.940
11722SOL     OW35509   6.888   6.441   4.033
11722SOL    HW135510   6.802   6.410   4.075
11722SOL    HW235511   6.884   6.427   3.934
11723SOL     OW35512   7.345   7.333   4.878
11723SOL    HW135513   7.406   7.363   4.805
11723SOL    HW235514   7.307   7.244   4.856
11724SOL     OW35515   6.838   7.317   4.852
11724SOL    HW135516   6.922   7.322   4.798
11724SOL    HW235517   6.815   7.221   4.870
11725SOL     OW35518   5.669   6.844   4.746
11725SOL    HW135519   5.664   6.843   4.846
11725SOL    HW235520   5.586   6.803   4.708
11726SOL     OW35521   6.274   7.248   5.440
11726SOL    HW135522   6.218   7.329   5.449
11726SOL    HW235523   6.326   7.252   5.354
11727SOL     OW35524   7.312   5.721   4.247
11727SOL    HW135525   7.385   5.704   4.180
11727SOL    HW235526   7.281   5.634   4.285
11728SOL     OW35527   6.974   7.159   4.201
11728SOL    HW135528   7.041   7.171   4.127
11728SOL    HW235529   6.934   7.248   4.224
11729SOL     OW35530   5.716   7.380   5.575
11729SOL    HW135531   5.675   7.306   5.628
11729SOL    HW235532   5.780   7.431   5.633
11730SOL     OW35533   6.866   6.513   4.396
11730SOL    HW135534   6.926   6.432   4.398
11730SOL    HW235535   6.906   6.582   4.336
11731SOL     OW35536   6.416   6.859   5.146
11731SOL    HW135537   6.411   6.892   5.241
11731SOL    HW235538   6.330   6.878   5.100
11732SOL     OW35539   6.258   7.202   3.878
11732SOL    HW135540   6.267   7.212   3.779
11732SOL    HW235541   6.218   7.113   3.899
11733SOL     OW35542   7.236   7.306   5.118
11733SOL    HW135543   7.289   7.316   5.034
11733SOL    HW235544   7.209   7.396   5.152
11734SOL     OW35545   7.427   5.761   4.687
11734SOL    HW135546   7.466   5.676   4.651
11734SOL    HW235547   7.329   5.763   4.668
11735SOL     OW35548   5.849   5.912   4.444
11735SOL    HW135549   5.770   5.963   4.410
11735SOL    HW235550   5.840   5.897   4.542
11736SOL     OW35551   6.780   7.198   3.755
11736SOL    HW135552   6.786   7.105   3.792
11736SOL    HW235553   6.721   7.198   3.675
11737SOL     OW35554   6.408   6.588   5.096
11737SOL    HW135555   6.448   6.587   5.004
11737SOL    HW235556   6.418   6.680   5.136
11738SOL     OW35557   6.502   6.496   4.015
11738SOL    HW135558   6.565   6.534   3.947
11738SOL    HW235559   6.542   6.413   4.054
11739SOL     OW35560   7.090   7.193   3.768
11739SOL    HW135561   6.998   7.230   3.775
11739SOL    HW235562   7.128   7.213   3.678
11740SOL     OW35563   5.958   6.874   5.214
11740SOL    HW135564   5.945   6.967   5.180
11740SOL    HW235565   5.874   6.822   5.201
11741SOL     OW35566   7.200   6.878   5.013
11741SOL    HW135567   7.260   6.881   5.093
11741SOL    HW235568   7.125   6.942   5.026
11742SOL     OW35569   6.625   6.684   4.420
11742SOL    HW135570   6.555   6.637   4.474
11742SOL    HW235571   6.684   6.616   4.377
11743SOL     OW35572   6.600   5.822   4.695
11743SOL    HW135573   6.592   5.786   4.602
11743SOL    HW235574   6.598   5.746   4.760
11744SOL     OW35575   6.176   7.073   4.215
11744SOL    HW135576   6.218   7.015   4.145
11744SOL    HW235577   6.132   7.152   4.171
11745SOL     OW35578   7.295   5.971   5.105
11745SOL    HW135579   7.368   6.040   5.109
11745SOL    HW235580   7.323   5.896   5.046
11746SOL     OW35581   5.841   6.934   4.014
11746SOL    HW135582   5.745   6.935   3.987
11746SOL    HW235583   5.853   6.987   4.098
11747SOL     OW35584   5.691   6.599   5.450
11747SOL    HW135585   5.614   6.566   5.504
11747SOL    HW235586   5.776   6.569   5.492
11748SOL     OW35587   6.258   5.789   5.213
11748SOL    HW135588   6.348   5.773   5.173
11748SOL    HW235589   6.266   5.794   5.312
11749SOL     OW35590   5.661   5.931   3.757
11749SOL    HW135591   5.569   5.903   3.728
11749SOL    HW235592   5.692   6.008   3.701
11750SOL     OW35593   7.026   6.442   5.122
11750SOL    HW135594   6.969   6.494   5.059
11750SOL    HW235595   7.122   6.454   5.098
11751SOL     OW35596   5.658   5.752   4.042
11751SOL    HW135597   5.641   5.835   3.988
11751SOL    HW235598   5.748   5.715   4.020
11752SOL     OW35599   6.769   6.921   3.843
11752SOL    HW135600   6.670   6.910   3.845
11752SOL    HW235601   6.803   6.936   3.936
11753SOL     OW35602   6.199   6.428   5.155
11753SOL    HW135603   6.255   6.509   5.138
11753SOL    HW235604   6.258   6.348   5.158
11754SOL     OW35605   7.079   7.353   4.683
11754SOL    HW135606   7.112   7.417   4.614
11754SOL    HW235607   7.145   7.347   4.758
11755SOL     OW35608   6.302   6.151   5.432
11755SOL    HW135609   6.321   6.216   5.506
11755SOL    HW235610   6.362   6.071   5.441
11756SOL     OW35611   7.036   6.806   5.357
11756SOL    HW135612   7.027   6.796   5.456
11756SOL    HW235613   7.132   6.799   5.331
11757SOL     OW35614   5.976   7.327   5.284
11757SOL    HW135615   5.885   7.368   5.282
11757SOL    HW235616   5.969   7.233   5.316
11758SOL     OW35617   7.260   6.469   4.978
11758SOL    HW135618   7.233   6.380   4.941
11758SOL    HW235619   7.261   6.537   4.905
11759SOL     OW35620   6.811   5.911   4.173
11759SOL    HW135621   6.876   5.837   4.162
11759SOL    HW235622   6.831   5.961   4.257
11760SOL     OW35623   6.180   6.331   4.376
11760SOL    HW135624   6.230   6.416   4.357
11760SOL    HW235625   6.092   6.333   4.328
11761SOL     OW35626   7.363   5.928   5.366
11761SOL    HW135627   7.346   5.959   5.272
11761SOL    HW235628   7.279   5.891   5.404
11762SOL     OW35629   7.316   6.520   5.241
11762SOL    HW135630   7.354   6.611   5.256
11762SOL    HW235631   7.308   6.503   5.142
11763SOL     OW35632   6.445   6.960   3.740
11763SOL    HW135633   6.399   6.975   3.828
11763SOL    HW235634   6.489   7.045   3.710
11764SOL     OW35635   6.247   7.376   4.677
11764SOL    HW135636   6.201   7.464   4.664
11764SOL    HW235637   6.346   7.388   4.670
11765SOL     OW35638   6.445   6.542   4.585
11765SOL    HW135639   6.499   6.473   4.633
11765SOL    HW235640   6.413   6.611   4.651
11766SOL     OW35641   6.669   6.570   3.811
11766SOL    HW135642   6.646   6.623   3.729
11766SOL    HW235643   6.750   6.514   3.792
11767SOL     OW35644   7.447   7.155   4.575
11767SOL    HW135645   7.376   7.143   4.505
11767SOL    HW235646   7.448   7.076   4.635
11768SOL     OW35647   5.807   6.900   5.568
11768SOL    HW135648   5.742   6.827   5.547
11768SOL    HW235649   5.811   6.914   5.666
11769SOL     OW35650   5.665   6.826   4.377
11769SOL    HW135651   5.664   6.779   4.465
11769SOL    HW235652   5.747   6.798   4.326
11770SOL     OW35653   6.258   6.977   5.348
11770SOL    HW135654   6.180   6.927   5.386
11770SOL    HW235655   6.255   7.072   5.379
11771SOL     OW35656   7.410   5.778   4.951
11771SOL    HW135657   7.406   5.688   4.995
11771SOL    HW235658   7.413   5.767   4.852
11772SOL     OW35659   6.014   6.010   4.244
11772SOL    HW135660   6.044   5.938   4.182
11772SOL    HW235661   5.975   5.970   4.327
11773SOL     OW35662   7.291   7.073   4.828
11773SOL    HW135663   7.198   7.048   4.801
11773SOL    HW235664   7.317   7.023   4.910
11774SOL     OW35665   5.903   6.133   5.004
11774SOL    HW135666   5.941   6.074   5.076
11774SOL    HW235667   5.943   6.107   4.916
11775SOL     OW35668   6.398   7.172   4.411
11775SOL    HW135669   6.430   7.182   4.317
11775SOL    HW235670   6.319   7.110   4.413
11776SOL     OW35671   7.010   5.800   4.836
11776SOL    HW135672   7.062   5.735   4.891
11776SOL    HW235673   6.961   5.863   4.897
11777SOL     OW35674   6.587   5.620   4.878
11777SOL    HW135675   6.524   5.548   4.847
11777SOL    HW235676   6.680   5.584   4.878
11778SOL     OW35677   6.356   6.916   4.025
11778SOL    HW135678   6.310   6.829   4.042
11778SOL    HW235679   6.447   6.913   4.066
11779SOL     OW35680   6.204   7.153   5.008
11779SOL    HW135681   6.199   7.235   5.065
11779SOL    HW235682   6.293   7.150   4.963
11780SOL     OW35683   6.938   5.638   3.892
11780SOL    HW135684   6.973   5.597   3.808
11780SOL    HW235685   6.848   5.600   3.912
11781SOL     OW35686   6.886   6.039   4.415
11781SOL    HW135687   6.827   6.119   4.419
11781SOL    HW235688   6.901   6.004   4.508
11782SOL     OW35689   7.179   5.807   4.606
11782SOL    HW135690   7.095   5.806   4.660
11782SOL    HW235691   7.181   5.890   4.550
11783SOL     OW35692   5.625   6.663   4.024
11783SOL    HW135693   5.724   6.652   4.015
11783SOL    HW235694   5.585   6.577   4.056
11784SOL     OW35695   6.461   7.232   4.061
11784SOL    HW135696   6.384   7.197   4.007
11784SOL    HW235697   6.429   7.303   4.123
11785SOL     OW35698   5.816   6.214   5.699
11785SOL    HW135699   5.723   6.212   5.736
11785SOL    HW235700   5.817   6.175   5.607
11786SOL     OW35701   5.605   5.954   6.233
11786SOL    HW135702   5.523   5.997   6.272
11786SOL    HW235703   5.577   5.881   6.170
11787SOL     OW35704   7.141   7.097   6.289
11787SOL    HW135705   7.084   7.081   6.370
11787SOL    HW235706   7.082   7.107   6.209
11788SOL     OW35707   6.721   6.289   6.303
11788SOL    HW135708   6.778   6.367   6.278
11788SOL    HW235709   6.661   6.315   6.379
11789SOL     OW35710   7.341   6.193   5.817
11789SOL    HW135711   7.329   6.180   5.718
11789SOL    HW235712   7.311   6.112   5.866
11790SOL     OW35713   6.271   6.598   6.251
11790SOL    HW135714   6.340   6.582   6.321
11790SOL    HW235715   6.198   6.655   6.289
11791SOL     OW35716   7.189   6.033   6.323
11791SOL    HW135717   7.115   6.079   6.273
11791SOL    HW235718   7.240   6.101   6.376
11792SOL     OW35719   5.817   7.299   6.069
11792SOL    HW135720   5.851   7.376   6.123
11792SOL    HW235721   5.861   7.299   5.979
11793SOL     OW35722   5.816   7.020   6.124
11793SOL    HW135723   5.790   7.116   6.124
11793SOL    HW235724   5.745   6.966   6.169
11794SOL     OW35725   6.192   6.550   5.709
11794SOL    HW135726   6.199   6.634   5.655
11794SOL    HW235727   6.238   6.563   5.797
11795SOL     OW35728   5.708   6.229   6.149
11795SOL    HW135729   5.663   6.141   6.166
11795SOL    HW235730   5.707   6.283   6.233
11796SOL     OW35731   7.428   7.353   5.945
11796SOL    HW135732   7.482   7.324   6.025
11796SOL    HW235733   7.458   7.443   5.916
11797SOL     OW35734   5.613   7.182   5.703
11797SOL    HW135735   5.594   7.086   5.724
11797SOL    HW235736   5.580   7.240   5.778
11798SOL     OW35737   7.275   6.508   6.198
11798SOL    HW135738   7.370   6.479   6.206
11798SOL    HW235739   7.267   6.573   6.123
11799SOL     OW35740   7.227   6.694   6.018
11799SOL    HW135741   7.313   6.696   5.966
11799SOL    HW235742   7.241   6.741   6.106
11800SOL     OW35743   6.199   6.951   6.312
11800SOL    HW135744   6.150   6.864   6.321
11800SOL    HW235745   6.176   6.994   6.225
11801SOL     OW35746   6.395   5.590   6.088
11801SOL    HW135747   6.435   5.681   6.079
11801SOL    HW235748   6.295   5.598   6.094
11802SOL     OW35749   7.111   6.585   5.776
11802SOL    HW135750   7.048   6.509   5.789
11802SOL    HW235751   7.159   6.603   5.862
11803SOL     OW35752   7.253   7.300   6.158
11803SOL    HW135753   7.212   7.277   6.070
11803SOL    HW235754   7.235   7.226   6.223
11804SOL     OW35755   6.184   6.315   5.856
11804SOL    HW135756   6.208   6.384   5.788
11804SOL    HW235757   6.106   6.348   5.910
11805SOL     OW35758   7.162   7.248   5.893
11805SOL    HW135759   7.251   7.294   5.896
11805SOL    HW235760   7.141   7.224   5.798
11806SOL     OW35761   6.627   6.287   6.015
11806SOL    HW135762   6.653   6.283   6.111
11806SOL    HW235763   6.542   6.236   6.001
11807SOL     OW35764   5.662   6.397   6.375
11807SOL    HW135765   5.761   6.385   6.384
11807SOL    HW235766   5.638   6.492   6.396
11808SOL     OW35767   6.451   5.934   5.781
11808SOL    HW135768   6.510   5.997   5.732
11808SOL    HW235769   6.470   5.840   5.752
11809SOL     OW35770   6.948   6.730   6.131
11809SOL    HW135771   7.031   6.701   6.083
11809SOL    HW235772   6.899   6.797   6.075
11810SOL     OW35773   6.594   7.042   6.063
11810SOL    HW135774   6.548   7.114   6.011
11810SOL    HW235775   6.590   7.062   6.161
11811SOL     OW35776   5.937   7.387   6.439
11811SOL    HW135777   5.987   7.301   6.445
11811SOL    HW235778   6.002   7.464   6.436
11812SOL     OW35779   7.381   6.652   6.459
11812SOL    HW135780   7.319   6.637   6.383
11812SOL    HW235781   7.329   6.663   6.544
11813SOL     OW35782   5.907   6.529   5.828
11813SOL    HW135783   5.989   6.568   5.786
11813SOL    HW235784   5.880   6.447   5.779
11814SOL     OW35785   7.044   6.321   6.314
11814SOL    HW135786   7.039   6.256   6.389
11814SOL    HW235787   7.124   6.380   6.327
11815SOL     OW35788   7.218   6.963   5.667
11815SOL    HW135789   7.186   7.057   5.657
11815SOL    HW235790   7.142   6.900   5.655
11816SOL     OW35791   6.050   7.329   5.909
11816SOL    HW135792   6.083   7.368   5.995
11816SOL    HW235793   6.126   7.322   5.844
11817SOL     OW35794   6.986   5.693   6.012
11817SOL    HW135795   6.962   5.656   5.922
11817SOL    HW235796   7.085   5.709   6.016
11818SOL     OW35797   5.968   6.286   6.066
11818SOL    HW135798   6.013   6.196   6.063
11818SOL    HW235799   5.874   6.275   6.099
11819SOL     OW35800   6.200   5.708   5.703
11819SOL    HW135801   6.298   5.686   5.710
11819SOL    HW235802   6.169   5.691   5.610
11820SOL     OW35803   6.508   6.089   6.485
11820SOL    HW135804   6.483   6.080   6.389
11820SOL    HW235805   6.556   6.007   6.516
11821SOL     OW35806   6.125   5.650   6.098
11821SOL    HW135807   6.044   5.651   6.156
11821SOL    HW235808   6.128   5.733   6.043
11822SOL     OW35809   7.020   6.774   5.627
11822SOL    HW135810   7.052   6.698   5.684
11822SOL    HW235811   6.928   6.801   5.657
11823SOL     OW35812   5.883   5.621   5.757
11823SOL    HW135813   5.932   5.705   5.736
11823SOL    HW235814   5.945   5.556   5.802
11824SOL     OW35815   6.521   5.822   6.066
11824SOL    HW135816   6.473   5.863   5.988
11824SOL    HW235817   6.620   5.820   6.047
11825SOL     OW35818   6.045   6.738   6.327
11825SOL    HW135819   5.974   6.711   6.392
11825SOL    HW235820   6.019   6.710   6.234
11826SOL     OW35821   6.618   6.135   5.602
11826SOL    HW135822   6.577   6.217   5.563
11826SOL    HW235823   6.682   6.161   5.675
11827SOL     OW35824   6.452   6.040   6.228
11827SOL    HW135825   6.420   6.112   6.166
11827SOL    HW235826   6.476   5.959   6.175
11828SOL     OW35827   6.603   5.625   6.339
11828SOL    HW135828   6.531   5.630   6.270
11828SOL    HW235829   6.579   5.556   6.408
11829SOL     OW35830   7.015   6.759   6.453
11829SOL    HW135831   6.960   6.675   6.446
11829SOL    HW235832   7.041   6.788   6.361
11830SOL     OW35833   7.443   6.419   5.963
11830SOL    HW135834   7.485   6.355   6.027
11830SOL    HW235835   7.405   6.368   5.885
11831SOL     OW35836   6.074   6.971   5.760
11831SOL    HW135837   5.987   6.956   5.807
11831SOL    HW235838   6.057   6.997   5.665
11832SOL     OW35839   7.250   6.866   6.243
11832SOL    HW135840   7.349   6.874   6.257
11832SOL    HW235841   7.205   6.950   6.274
11833SOL     OW35842   6.976   6.161   5.664
11833SOL    HW135843   6.922   6.140   5.745
11833SOL    HW235844   7.067   6.120   5.673
11834SOL     OW35845   6.113   5.842   5.914
11834SOL    HW135846   6.140   5.783   5.839
11834SOL    HW235847   6.113   5.937   5.883
11835SOL     OW35848   6.291   6.636   5.954
11835SOL    HW135849   6.277   6.643   6.053
11835SOL    HW235850   6.375   6.585   5.936
11836SOL     OW35851   5.953   6.686   6.087
11836SOL    HW135852   5.946   6.769   6.031
11836SOL    HW235853   5.957   6.606   6.027
11837SOL     OW35854   6.152   6.123   6.451
11837SOL    HW135855   6.164   6.189   6.377
11837SOL    HW235856   6.198   6.157   6.534
11838SOL     OW35857   6.838   6.934   5.974
11838SOL    HW135858   6.888   7.011   6.014
11838SOL    HW235859   6.743   6.936   6.006
11839SOL     OW35860   7.168   6.225   6.058
11839SOL    HW135861   7.137   6.286   6.131
11839SOL    HW235862   7.218   6.277   5.989
11840SOL     OW35863   6.159   6.456   6.615
11840SOL    HW135864   6.203   6.545   6.606
11840SOL    HW235865   6.096   6.456   6.692
11841SOL     OW35866   6.946   6.448   6.631
11841SOL    HW135867   6.871   6.448   6.565
11841SOL    HW235868   6.983   6.356   6.640
11842SOL     OW35869   6.795   6.111   5.861
11842SOL    HW135870   6.808   6.027   5.915
11842SOL    HW235871   6.766   6.185   5.921
11843SOL     OW35872   5.893   5.649   6.204
11843SOL    HW135873   5.882   5.743   6.237
11843SOL    HW235874   5.888   5.586   6.281
11844SOL     OW35875   7.208   5.953   5.960
11844SOL    HW135876   7.210   5.877   6.024
11844SOL    HW235877   7.160   6.030   6.000
11845SOL     OW35878   7.126   5.860   5.711
11845SOL    HW135879   7.065   5.785   5.734
11845SOL    HW235880   7.148   5.912   5.794
11846SOL     OW35881   6.889   6.424   5.628
11846SOL    HW135882   6.923   6.331   5.643
11846SOL    HW235883   6.907   6.451   5.533
11847SOL     OW35884   6.654   6.919   6.435
11847SOL    HW135885   6.661   6.835   6.380
11847SOL    HW235886   6.716   6.988   6.399
11848SOL     OW35887   5.905   6.396   6.535
11848SOL    HW135888   5.998   6.432   6.540
11848SOL    HW235889   5.899   6.311   6.587
11849SOL     OW35890   5.925   6.095   6.592
11849SOL    HW135891   5.873   6.012   6.575
11849SOL    HW235892   6.002   6.100   6.528
11850SOL     OW35893   5.594   6.912   5.786
11850SOL    HW135894   5.501   6.933   5.755
11850SOL    HW235895   5.604   6.813   5.799
11851SOL     OW35896   5.674   7.387   6.513
11851SOL    HW135897   5.632   7.301   6.486
11851SOL    HW235898   5.768   7.390   6.479
11852SOL     OW35899   6.401   6.158   5.911
11852SOL    HW135900   6.408   6.069   5.865
11852SOL    HW235901   6.307   6.192   5.903
11853SOL     OW35902   6.059   6.086   5.777
11853SOL    HW135903   6.120   6.166   5.781
11853SOL    HW235904   5.964   6.117   5.784
11854SOL     OW35905   6.888   6.441   5.895
11854SOL    HW135906   6.802   6.410   5.937
11854SOL    HW235907   6.884   6.427   5.796
11855SOL     OW35908   5.669   6.844   6.608
11855SOL    HW135909   5.664   6.843   6.708
11855SOL    HW235910   5.586   6.803   6.570
11856SOL     OW35911   7.312   5.721   6.109
11856SOL    HW135912   7.385   5.704   6.042
11856SOL    HW235913   7.281   5.634   6.147
11857SOL     OW35914   6.974   7.159   6.063
11857SOL    HW135915   7.041   7.171   5.989
11857SOL    HW235916   6.934   7.248   6.086
11858SOL     OW35917   6.866   6.513   6.258
11858SOL    HW135918   6.926   6.432   6.260
11858SOL    HW235919   6.906   6.582   6.198
11859SOL     OW35920   6.258   7.202   5.740
11859SOL    HW135921   6.267   7.212   5.641
11859SOL    HW235922   6.218   7.113   5.761
11860SOL     OW35923   7.427   5.761   6.549
11860SOL    HW135924   7.466   5.676   6.513
11860SOL    HW235925   7.329   5.763   6.530
11861SOL     OW35926   5.849   5.912   6.306
11861SOL    HW135927   5.770   5.963   6.272
11861SOL    HW235928   5.840   5.897   6.404
11862SOL     OW35929   6.780   7.198   5.617
11862SOL    HW135930   6.786   7.105   5.654
11862SOL    HW235931   6.721   7.198   5.537
11863SOL     OW35932   6.502   6.496   5.877
11863SOL    HW135933   6.565   6.534   5.809
11863SOL    HW235934   6.542   6.413   5.916
11864SOL     OW35935   7.090   7.193   5.630
11864SOL    HW135936   6.998   7.230   5.637
11864SOL    HW235937   7.128   7.213   5.540
11865SOL     OW35938   6.625   6.684   6.282
11865SOL    HW135939   6.555   6.637   6.336
11865SOL    HW235940   6.684   6.616   6.239
11866SOL     OW35941   6.176   7.073   6.077
11866SOL    HW135942   6.218   7.015   6.007
11866SOL    HW235943   6.132   7.152   6.033
11867SOL     OW35944   5.841   6.934   5.876
11867SOL    HW135945   5.745   6.935   5.849
11867SOL    HW235946   5.853   6.987   5.960
11868SOL     OW35947   5.661   5.931   5.619
11868SOL    HW135948   5.569   5.903   5.590
11868SOL    HW235949   5.692   6.008   5.563
11869SOL     OW35950   5.658   5.752   5.904
11869SOL    HW135951   5.641   5.835   5.850
11869SOL    HW235952   5.748   5.715   5.882
11870SOL     OW35953   6.769   6.921   5.705
11870SOL    HW135954   6.670   6.910   5.707
11870SOL    HW235955   6.803   6.936   5.798
11871SOL     OW35956   6.811   5.911   6.035
11871SOL    HW135957   6.876   5.837   6.024
11871SOL    HW235958   6.831   5.961   6.119
11872SOL     OW35959   6.180   6.331   6.238
11872SOL    HW135960   6.230   6.416   6.219
11872SOL    HW235961   6.092   6.333   6.190
11873SOL     OW35962   6.445   6.960   5.602
11873SOL    HW135963   6.399   6.975   5.690
11873SOL    HW235964   6.489   7.045   5.572
11874SOL     OW35965   6.247   7.376   6.539
11874SOL    HW135966   6.201   7.464   6.526
11874SOL    HW235967   6.346   7.388   6.532
11875SOL     OW35968   6.669   6.570   5.673
11875SOL    HW135969   6.646   6.623   5.591
11875SOL    HW235970   6.750   6.514   5.654
11876SOL     OW35971   7.447   7.155   6.437
11876SOL    HW135972   7.376   7.143   6.367
11876SOL    HW235973   7.448   7.076   6.497
11877SOL     OW35974   5.665   6.826   6.239
11877SOL    HW135975   5.664   6.779   6.327
11877SOL    HW235976   5.747   6.798   6.188
11878SOL     OW35977   6.014   6.010   6.106
11878SOL    HW135978   6.044   5.938   6.044
11878SOL    HW235979   5.975   5.970   6.189
11879SOL     OW35980   5.903   6.133   6.866
11879SOL    HW135981   5.941   6.074   6.938
11879SOL    HW235982   5.943   6.107   6.778
11880SOL     OW35983   6.398   7.172   6.273
11880SOL    HW135984   6.430   7.182   6.179
11880SOL    HW235985   6.319   7.110   6.275
11881SOL     OW35986   6.356   6.916   5.887
11881SOL    HW135987   6.310   6.829   5.904
11881SOL    HW235988   6.447   6.913   5.928
11882SOL     OW35989   6.938   5.638   5.754
11882SOL    HW135990   6.973   5.597   5.670
11882SOL    HW235991   6.848   5.600   5.774
11883SOL     OW35992   6.886   6.039   6.277
11883SOL    HW135993   6.827   6.119   6.281
11883SOL    HW235994   6.901   6.004   6.370
11884SOL     OW35995   5.625   6.663   5.886
11884SOL    HW135996   5.724   6.652   5.877
11884SOL    HW235997   5.585   6.577   5.918
11885SOL     OW35998   6.461   7.232   5.923
11885SOL    HW135999   6.384   7.197   5.869
11885SOL    HW236000   6.429   7.303   5.985
11886SOL     OW36001   6.395   7.452   0.502
11886SOL    HW136002   6.435   7.543   0.493
11886SOL    HW236003   6.295   7.460   0.508
11887SOL     OW36004   6.367   7.712   1.749
11887SOL    HW136005   6.434   7.651   1.792
11887SOL    HW236006   6.294   7.731   1.814
11888SOL     OW36007   6.113   7.704   0.328
11888SOL    HW136008   6.140   7.645   0.253
11888SOL    HW236009   6.113   7.799   0.297
11889SOL     OW36010   6.501   7.537   1.402
11889SOL    HW136011   6.526   7.517   1.307
11889SOL    HW236012   6.573   7.593   1.444
11890SOL     OW36013   6.599   7.553   1.770
11890SOL    HW136014   6.605   7.638   1.718
11890SOL    HW236015   6.631   7.477   1.713
11891SOL     OW36016   5.893   7.511   0.618
11891SOL    HW136017   5.882   7.605   0.651
11891SOL    HW236018   5.888   7.448   0.695
11892SOL     OW36019   6.746   7.655   1.477
11892SOL    HW136020   6.746   7.719   1.554
11892SOL    HW236021   6.774   7.703   1.394
11893SOL     OW36022   5.849   7.774   0.720
11893SOL    HW136023   5.770   7.825   0.686
11893SOL    HW236024   5.840   7.759   0.818
11894SOL     OW36025   6.587   7.482   1.154
11894SOL    HW136026   6.524   7.410   1.123
11894SOL    HW236027   6.680   7.446   1.154
11895SOL     OW36028   7.179   7.669   0.882
11895SOL    HW136029   7.095   7.668   0.936
11895SOL    HW236030   7.181   7.752   0.826
11896SOL     OW36031   6.395   7.452   2.364
11896SOL    HW136032   6.435   7.543   2.355
11896SOL    HW236033   6.295   7.460   2.370
11897SOL     OW36034   6.200   7.570   1.979
11897SOL    HW136035   6.298   7.548   1.986
11897SOL    HW236036   6.169   7.553   1.886
11898SOL     OW36037   6.367   7.712   3.611
11898SOL    HW136038   6.434   7.651   3.654
11898SOL    HW236039   6.294   7.731   3.676
11899SOL     OW36040   6.501   7.537   3.264
11899SOL    HW136041   6.526   7.517   3.169
11899SOL    HW236042   6.573   7.593   3.306
11900SOL     OW36043   6.599   7.553   3.632
11900SOL    HW136044   6.605   7.638   3.580
11900SOL    HW236045   6.631   7.477   3.575
11901SOL     OW36046   5.893   7.511   2.480
11901SOL    HW136047   5.882   7.605   2.513
11901SOL    HW236048   5.888   7.448   2.557
11902SOL     OW36049   6.746   7.655   3.339
11902SOL    HW136050   6.746   7.719   3.416
11902SOL    HW236051   6.774   7.703   3.256
11903SOL     OW36052   5.849   7.774   2.582
11903SOL    HW136053   5.770   7.825   2.548
11903SOL    HW236054   5.840   7.759   2.680
11904SOL     OW36055   5.661   7.793   1.895
11904SOL    HW136056   5.569   7.765   1.866
11904SOL    HW236057   5.692   7.870   1.839
11905SOL     OW36058   6.587   7.482   3.016
11905SOL    HW136059   6.524   7.410   2.985
11905SOL    HW236060   6.680   7.446   3.016
11906SOL     OW36061   7.179   7.669   2.744
11906SOL    HW136062   7.095   7.668   2.798
11906SOL    HW236063   7.181   7.752   2.688
11907SOL     OW36064   6.395   7.452   4.226
11907SOL    HW136065   6.435   7.543   4.217
11907SOL    HW236066   6.295   7.460   4.232
11908SOL     OW36067   6.200   7.570   3.841
11908SOL    HW136068   6.298   7.548   3.848
11908SOL    HW236069   6.169   7.553   3.748
11909SOL     OW36070   6.367   7.712   5.473
11909SOL    HW136071   6.434   7.651   5.516
11909SOL    HW236072   6.294   7.731   5.538
11910SOL     OW36073   6.501   7.537   5.126
11910SOL    HW136074   6.526   7.517   5.031
11910SOL    HW236075   6.573   7.593   5.168
11911SOL     OW36076   6.599   7.553   5.494
11911SOL    HW136077   6.605   7.638   5.442
11911SOL    HW236078   6.631   7.477   5.437
11912SOL     OW36079   5.893   7.511   4.342
11912SOL    HW136080   5.882   7.605   4.375
11912SOL    HW236081   5.888   7.448   4.419
11913SOL     OW36082   6.746   7.655   5.201
11913SOL    HW136083   6.746   7.719   5.278
11913SOL    HW236084   6.774   7.703   5.118
11914SOL     OW36085   5.849   7.774   4.444
11914SOL    HW136086   5.770   7.825   4.410
11914SOL    HW236087   5.840   7.759   4.542
11915SOL     OW36088   5.661   7.793   3.757
11915SOL    HW136089   5.569   7.765   3.728
11915SOL    HW236090   5.692   7.870   3.701
11916SOL     OW36091   6.587   7.482   4.878
11916SOL    HW136092   6.524   7.410   4.847
11916SOL    HW236093   6.680   7.446   4.878
11917SOL     OW36094   7.179   7.669   4.606
11917SOL    HW136095   7.095   7.668   4.660
11917SOL    HW236096   7.181   7.752   4.550
11918SOL     OW36097   6.395   7.452   6.088
11918SOL    HW136098   6.435   7.543   6.079
11918SOL    HW236099   6.295   7.460   6.094
11919SOL     OW36100   6.200   7.570   5.703
11919SOL    HW136101   6.298   7.548   5.710
11919SOL    HW236102   6.169   7.553   5.610
11920SOL     OW36103   5.893   7.511   6.204
11920SOL    HW136104   5.882   7.605   6.237
11920SOL    HW236105   5.888   7.448   6.281
11921SOL     OW36106   7.427   7.623   6.549
11921SOL    HW136107   7.466   7.538   6.513
11921SOL    HW236108   7.329   7.625   6.530
11922SOL     OW36109   5.849   7.774   6.306
11922SOL    HW136110   5.770   7.825   6.272
11922SOL    HW236111   5.840   7.759   6.404
11923SOL     OW36112   5.661   7.793   5.619
11923SOL    HW136113   5.569   7.765   5.590
11923SOL    HW236114   5.692   7.870   5.563
11924SOL     OW36115   7.783   1.435   1.061
11924SOL    HW136116   7.705   1.404   1.008
11924SOL    HW236117   7.841   1.493   1.004
11925SOL     OW36118   7.679   1.713   0.483
11925SOL    HW136119   7.713   1.790   0.537
11925SOL    HW236120   7.723   1.713   0.393
11926SOL     OW36121   7.678   1.434   0.538
11926SOL    HW136122   7.652   1.530   0.538
11926SOL    HW236123   7.607   1.380   0.583
11927SOL     OW36124   7.688   1.091   0.886
11927SOL    HW136125   7.702   1.007   0.938
11927SOL    HW236126   7.633   1.155   0.941
11928SOL     OW36127   7.570   0.643   0.563
11928SOL    HW136128   7.525   0.555   0.580
11928SOL    HW236129   7.569   0.697   0.647
11929SOL     OW36130   7.561   0.737   1.597
11929SOL    HW136131   7.649   0.724   1.642
11929SOL    HW236132   7.548   0.834   1.575
11930SOL     OW36133   7.645   0.976   1.264
11930SOL    HW136134   7.734   0.931   1.250
11930SOL    HW236135   7.572   0.911   1.245
11931SOL     OW36136   7.524   0.811   0.789
11931SOL    HW136137   7.623   0.799   0.798
11931SOL    HW236138   7.500   0.906   0.810
11932SOL     OW36139   7.578   1.821   1.571
11932SOL    HW136140   7.568   1.806   1.670
11932SOL    HW236141   7.492   1.857   1.535
11933SOL     OW36142   7.998   0.196   0.885
11933SOL    HW136143   7.993   0.191   0.985
11933SOL    HW236144   8.000   0.292   0.856
11934SOL     OW36145   7.799   1.801   0.853
11934SOL    HW136146   7.849   1.715   0.859
11934SOL    HW236147   7.864   1.878   0.850
11935SOL     OW36148   7.909   1.266   1.727
11935SOL    HW136149   7.859   1.267   1.641
11935SOL    HW236150   7.846   1.248   1.803
11936SOL     OW36151   7.697   1.785   1.241
11936SOL    HW136152   7.754   1.720   1.291
11936SOL    HW236153   7.681   1.752   1.148
11937SOL     OW36154   7.830   0.700   0.480
11937SOL    HW136155   7.875   0.610   0.477
11937SOL    HW236156   7.736   0.689   0.513
11938SOL     OW36157   7.907   1.152   0.741
11938SOL    HW136158   7.836   1.125   0.806
11938SOL    HW236159   7.881   1.124   0.648
11939SOL     OW36160   7.526   0.556   1.386
11939SOL    HW136161   7.618   0.555   1.345
11939SOL    HW236162   7.520   0.630   1.453
11940SOL     OW36163   8.009   0.222   1.147
11940SOL    HW136164   8.047   0.138   1.184
11940SOL    HW236165   7.921   0.241   1.191
11941SOL     OW36166   7.858   0.813   1.251
11941SOL    HW136167   7.944   0.825   1.301
11941SOL    HW236168   7.816   0.726   1.278
11942SOL     OW36169   7.512   1.564   1.331
11942SOL    HW136170   7.466   1.646   1.297
11942SOL    HW236171   7.610   1.583   1.340
11943SOL     OW36172   7.815   1.100   0.501
11943SOL    HW136173   7.808   1.183   0.445
11943SOL    HW236174   7.819   1.020   0.441
11944SOL     OW36175   8.014   0.537   0.865
11944SOL    HW136176   8.026   0.603   0.791
11944SOL    HW236177   8.060   0.571   0.948
11945SOL     OW36178   7.802   1.510   1.329
11945SOL    HW136179   7.781   1.466   1.242
11945SOL    HW236180   7.899   1.536   1.332
11946SOL     OW36181   7.850   0.751   1.598
11946SOL    HW136182   7.918   0.806   1.551
11946SOL    HW236183   7.890   0.663   1.625
11947SOL     OW36184   8.021   0.870   1.029
11947SOL    HW136185   8.065   0.959   1.020
11947SOL    HW236186   7.958   0.870   1.106
11948SOL     OW36187   7.485   1.310   1.282
11948SOL    HW136188   7.538   1.261   1.350
11948SOL    HW236189   7.507   1.408   1.287
11949SOL     OW36190   7.798   0.898   1.804
11949SOL    HW136191   7.874   0.942   1.852
11949SOL    HW236192   7.833   0.851   1.722
11950SOL     OW36193   7.767   0.810   0.949
11950SOL    HW136194   7.860   0.846   0.954
11950SOL    HW236195   7.761   0.725   1.001
11951SOL     OW36196   7.787   0.509   1.006
11951SOL    HW136197   7.735   0.426   0.989
11951SOL    HW236198   7.864   0.514   0.942
11952SOL     OW36199   7.536   1.801   0.927
11952SOL    HW136200   7.494   1.715   0.900
11952SOL    HW236201   7.630   1.804   0.893
11953SOL     OW36202   7.488   0.544   1.114
11953SOL    HW136203   7.573   0.511   1.073
11953SOL    HW236204   7.501   0.559   1.212
11954SOL     OW36205   7.637   0.520   1.722
11954SOL    HW136206   7.696   0.480   1.652
11954SOL    HW236207   7.579   0.591   1.681
11955SOL     OW36208   7.700   1.564   1.744
11955SOL    HW136209   7.670   1.621   1.820
11955SOL    HW236210   7.693   1.467   1.770
11956SOL     OW36211   7.607   1.137   1.466
11956SOL    HW136212   7.629   1.076   1.542
11956SOL    HW236213   7.617   1.088   1.380
11957SOL     OW36214   7.531   1.258   1.022
11957SOL    HW136215   7.526   1.257   1.122
11957SOL    HW236216   7.448   1.217   0.984
11958SOL     OW36217   7.578   1.794   1.851
11958SOL    HW136218   7.537   1.720   1.904
11958SOL    HW236219   7.642   1.845   1.909
11959SOL     OW36220   7.820   1.288   1.490
11959SOL    HW136221   7.807   1.381   1.456
11959SOL    HW236222   7.736   1.236   1.477
11960SOL     OW36223   8.038   1.487   0.491
11960SOL    HW136224   8.080   1.429   0.421
11960SOL    HW236225   7.994   1.566   0.447
11961SOL     OW36226   7.553   1.013   1.726
11961SOL    HW136227   7.476   0.980   1.780
11961SOL    HW236228   7.638   0.983   1.768
11962SOL     OW36229   7.838   1.741   1.560
11962SOL    HW136230   7.747   1.782   1.558
11962SOL    HW236231   7.831   1.647   1.592
11963SOL     OW36232   7.669   1.314   1.844
11963SOL    HW136233   7.604   1.241   1.823
11963SOL    HW236234   7.673   1.328   1.942
11964SOL     OW36235   7.527   1.240   0.653
11964SOL    HW136236   7.526   1.193   0.741
11964SOL    HW236237   7.609   1.212   0.602
11965SOL     OW36238   8.120   1.391   1.624
11965SOL    HW136239   8.042   1.341   1.662
11965SOL    HW236240   8.117   1.486   1.655
11966SOL     OW36241   7.765   0.547   1.280
11966SOL    HW136242   7.803   0.488   1.352
11966SOL    HW236243   7.805   0.521   1.192
11967SOL     OW36244   7.678   0.628   1.975
11967SOL    HW136245   7.585   0.626   2.012
11967SOL    HW236246   7.679   0.589   1.883
11968SOL     OW36247   7.783   1.435   2.923
11968SOL    HW136248   7.705   1.404   2.870
11968SOL    HW236249   7.841   1.493   2.866
11969SOL     OW36250   7.679   1.713   2.345
11969SOL    HW136251   7.713   1.790   2.399
11969SOL    HW236252   7.723   1.713   2.255
11970SOL     OW36253   7.678   1.434   2.400
11970SOL    HW136254   7.652   1.530   2.400
11970SOL    HW236255   7.607   1.380   2.445
11971SOL     OW36256   7.688   1.091   2.748
11971SOL    HW136257   7.702   1.007   2.800
11971SOL    HW236258   7.633   1.155   2.803
11972SOL     OW36259   7.570   0.643   2.425
11972SOL    HW136260   7.525   0.555   2.442
11972SOL    HW236261   7.569   0.697   2.509
11973SOL     OW36262   7.475   1.596   1.979
11973SOL    HW136263   7.456   1.500   2.000
11973SOL    HW236264   7.442   1.654   2.054
11974SOL     OW36265   7.561   0.737   3.459
11974SOL    HW136266   7.649   0.724   3.504
11974SOL    HW236267   7.548   0.834   3.437
11975SOL     OW36268   7.645   0.976   3.126
11975SOL    HW136269   7.734   0.931   3.112
11975SOL    HW236270   7.572   0.911   3.107
11976SOL     OW36271   8.046   0.729   2.132
11976SOL    HW136272   8.070   0.798   2.064
11976SOL    HW236273   7.968   0.762   2.186
11977SOL     OW36274   7.524   0.811   2.651
11977SOL    HW136275   7.623   0.799   2.660
11977SOL    HW236276   7.500   0.906   2.672
11978SOL     OW36277   7.578   1.821   3.433
11978SOL    HW136278   7.568   1.806   3.532
11978SOL    HW236279   7.492   1.857   3.397
11979SOL     OW36280   7.998   0.196   2.747
11979SOL    HW136281   7.993   0.191   2.847
11979SOL    HW236282   8.000   0.292   2.718
11980SOL     OW36283   7.799   1.801   2.715
11980SOL    HW136284   7.849   1.715   2.721
11980SOL    HW236285   7.864   1.878   2.712
11981SOL     OW36286   7.769   0.943   2.104
11981SOL    HW136287   7.851   0.982   2.062
11981SOL    HW236288   7.742   0.861   2.055
11982SOL     OW36289   7.909   1.266   3.589
11982SOL    HW136290   7.859   1.267   3.503
11982SOL    HW236291   7.846   1.248   3.665
11983SOL     OW36292   7.697   1.785   3.103
11983SOL    HW136293   7.754   1.720   3.153
11983SOL    HW236294   7.681   1.752   3.010
11984SOL     OW36295   7.830   0.700   2.342
11984SOL    HW136296   7.875   0.610   2.339
11984SOL    HW236297   7.736   0.689   2.375
11985SOL     OW36298   7.907   1.152   2.603
11985SOL    HW136299   7.836   1.125   2.668
11985SOL    HW236300   7.881   1.124   2.510
11986SOL     OW36301   7.526   0.556   3.248
11986SOL    HW136302   7.618   0.555   3.207
11986SOL    HW236303   7.520   0.630   3.315
11987SOL     OW36304   8.009   0.222   3.009
11987SOL    HW136305   8.047   0.138   3.046
11987SOL    HW236306   7.921   0.241   3.053
11988SOL     OW36307   7.858   0.813   3.113
11988SOL    HW136308   7.944   0.825   3.163
11988SOL    HW236309   7.816   0.726   3.140
11989SOL     OW36310   7.512   1.564   3.193
11989SOL    HW136311   7.466   1.646   3.159
11989SOL    HW236312   7.610   1.583   3.202
11990SOL     OW36313   7.815   1.100   2.363
11990SOL    HW136314   7.808   1.183   2.307
11990SOL    HW236315   7.819   1.020   2.303
11991SOL     OW36316   8.014   0.537   2.727
11991SOL    HW136317   8.026   0.603   2.653
11991SOL    HW236318   8.060   0.571   2.810
11992SOL     OW36319   7.802   1.510   3.191
11992SOL    HW136320   7.781   1.466   3.104
11992SOL    HW236321   7.899   1.536   3.194
11993SOL     OW36322   7.850   0.751   3.460
11993SOL    HW136323   7.918   0.806   3.413
11993SOL    HW236324   7.890   0.663   3.487
11994SOL     OW36325   8.021   0.870   2.891
11994SOL    HW136326   8.065   0.959   2.882
11994SOL    HW236327   7.958   0.870   2.968
11995SOL     OW36328   7.485   1.310   3.144
11995SOL    HW136329   7.538   1.261   3.212
11995SOL    HW236330   7.507   1.408   3.149
11996SOL     OW36331   7.798   0.898   3.666
11996SOL    HW136332   7.874   0.942   3.714
11996SOL    HW236333   7.833   0.851   3.584
11997SOL     OW36334   7.767   0.810   2.811
11997SOL    HW136335   7.860   0.846   2.816
11997SOL    HW236336   7.761   0.725   2.863
11998SOL     OW36337   7.787   0.509   2.868
11998SOL    HW136338   7.735   0.426   2.851
11998SOL    HW236339   7.864   0.514   2.804
11999SOL     OW36340   7.456   1.326   2.062
11999SOL    HW136341   7.363   1.347   2.031
11999SOL    HW236342   7.466   1.227   2.075
12000SOL     OW36343   7.536   1.801   2.789
12000SOL    HW136344   7.494   1.715   2.762
12000SOL    HW236345   7.630   1.804   2.755
12001SOL     OW36346   7.488   0.544   2.976
12001SOL    HW136347   7.573   0.511   2.935
12001SOL    HW236348   7.501   0.559   3.074
12002SOL     OW36349   7.637   0.520   3.584
12002SOL    HW136350   7.696   0.480   3.514
12002SOL    HW236351   7.579   0.591   3.543
12003SOL     OW36352   7.700   1.564   3.606
12003SOL    HW136353   7.670   1.621   3.682
12003SOL    HW236354   7.693   1.467   3.632
12004SOL     OW36355   7.921   0.500   2.053
12004SOL    HW136356   7.982   0.580   2.057
12004SOL    HW236357   7.826   0.531   2.060
12005SOL     OW36358   7.607   1.137   3.328
12005SOL    HW136359   7.629   1.076   3.404
12005SOL    HW236360   7.617   1.088   3.242
12006SOL     OW36361   7.531   1.258   2.884
12006SOL    HW136362   7.526   1.257   2.984
12006SOL    HW236363   7.448   1.217   2.846
12007SOL     OW36364   7.578   1.794   3.713
12007SOL    HW136365   7.537   1.720   3.766
12007SOL    HW236366   7.642   1.845   3.771
12008SOL     OW36367   7.820   1.288   3.352
12008SOL    HW136368   7.807   1.381   3.318
12008SOL    HW236369   7.736   1.236   3.339
12009SOL     OW36370   8.038   1.487   2.353
12009SOL    HW136371   8.080   1.429   2.283
12009SOL    HW236372   7.994   1.566   2.309
12010SOL     OW36373   7.703   1.348   2.152
12010SOL    HW136374   7.607   1.349   2.125
12010SOL    HW236375   7.715   1.401   2.236
12011SOL     OW36376   7.553   1.013   3.588
12011SOL    HW136377   7.476   0.980   3.642
12011SOL    HW236378   7.638   0.983   3.630
12012SOL     OW36379   7.838   1.741   3.422
12012SOL    HW136380   7.747   1.782   3.420
12012SOL    HW236381   7.831   1.647   3.454
12013SOL     OW36382   7.669   1.314   3.706
12013SOL    HW136383   7.604   1.241   3.685
12013SOL    HW236384   7.673   1.328   3.804
12014SOL     OW36385   7.527   1.240   2.515
12014SOL    HW136386   7.526   1.193   2.603
12014SOL    HW236387   7.609   1.212   2.464
12015SOL     OW36388   8.120   1.391   3.486
12015SOL    HW136389   8.042   1.341   3.524
12015SOL    HW236390   8.117   1.486   3.517
12016SOL     OW36391   7.765   0.547   3.142
12016SOL    HW136392   7.803   0.488   3.214
12016SOL    HW236393   7.805   0.521   3.054
12017SOL     OW36394   7.487   1.077   2.162
12017SOL    HW136395   7.586   1.066   2.153
12017SOL    HW236396   7.447   0.991   2.194
12018SOL     OW36397   7.678   0.628   3.837
12018SOL    HW136398   7.585   0.626   3.874
12018SOL    HW236399   7.679   0.589   3.745
12019SOL     OW36400   7.783   1.435   4.785
12019SOL    HW136401   7.705   1.404   4.732
12019SOL    HW236402   7.841   1.493   4.728
12020SOL     OW36403   7.679   1.713   4.207
12020SOL    HW136404   7.713   1.790   4.261
12020SOL    HW236405   7.723   1.713   4.117
12021SOL     OW36406   7.678   1.434   4.262
12021SOL    HW136407   7.652   1.530   4.262
12021SOL    HW236408   7.607   1.380   4.307
12022SOL     OW36409   7.688   1.091   4.610
12022SOL    HW136410   7.702   1.007   4.662
12022SOL    HW236411   7.633   1.155   4.665
12023SOL     OW36412   7.570   0.643   4.287
12023SOL    HW136413   7.525   0.555   4.304
12023SOL    HW236414   7.569   0.697   4.371
12024SOL     OW36415   7.475   1.596   3.841
12024SOL    HW136416   7.456   1.500   3.862
12024SOL    HW236417   7.442   1.654   3.916
12025SOL     OW36418   7.561   0.737   5.321
12025SOL    HW136419   7.649   0.724   5.366
12025SOL    HW236420   7.548   0.834   5.299
12026SOL     OW36421   7.645   0.976   4.988
12026SOL    HW136422   7.734   0.931   4.974
12026SOL    HW236423   7.572   0.911   4.969
12027SOL     OW36424   8.046   0.729   3.994
12027SOL    HW136425   8.070   0.798   3.926
12027SOL    HW236426   7.968   0.762   4.048
12028SOL     OW36427   7.524   0.811   4.513
12028SOL    HW136428   7.623   0.799   4.522
12028SOL    HW236429   7.500   0.906   4.534
12029SOL     OW36430   7.578   1.821   5.295
12029SOL    HW136431   7.568   1.806   5.394
12029SOL    HW236432   7.492   1.857   5.259
12030SOL     OW36433   7.998   0.196   4.609
12030SOL    HW136434   7.993   0.191   4.709
12030SOL    HW236435   8.000   0.292   4.580
12031SOL     OW36436   7.799   1.801   4.577
12031SOL    HW136437   7.849   1.715   4.583
12031SOL    HW236438   7.864   1.878   4.574
12032SOL     OW36439   7.769   0.943   3.966
12032SOL    HW136440   7.851   0.982   3.924
12032SOL    HW236441   7.742   0.861   3.917
12033SOL     OW36442   7.909   1.266   5.451
12033SOL    HW136443   7.859   1.267   5.365
12033SOL    HW236444   7.846   1.248   5.527
12034SOL     OW36445   7.697   1.785   4.965
12034SOL    HW136446   7.754   1.720   5.015
12034SOL    HW236447   7.681   1.752   4.872
12035SOL     OW36448   7.830   0.700   4.204
12035SOL    HW136449   7.875   0.610   4.201
12035SOL    HW236450   7.736   0.689   4.237
12036SOL     OW36451   7.907   1.152   4.465
12036SOL    HW136452   7.836   1.125   4.530
12036SOL    HW236453   7.881   1.124   4.372
12037SOL     OW36454   7.526   0.556   5.110
12037SOL    HW136455   7.618   0.555   5.069
12037SOL    HW236456   7.520   0.630   5.177
12038SOL     OW36457   8.009   0.222   4.871
12038SOL    HW136458   8.047   0.138   4.908
12038SOL    HW236459   7.921   0.241   4.915
12039SOL     OW36460   7.858   0.813   4.975
12039SOL    HW136461   7.944   0.825   5.025
12039SOL    HW236462   7.816   0.726   5.002
12040SOL     OW36463   7.512   1.564   5.055
12040SOL    HW136464   7.466   1.646   5.021
12040SOL    HW236465   7.610   1.583   5.064
12041SOL     OW36466   7.815   1.100   4.225
12041SOL    HW136467   7.808   1.183   4.169
12041SOL    HW236468   7.819   1.020   4.165
12042SOL     OW36469   8.014   0.537   4.589
12042SOL    HW136470   8.026   0.603   4.515
12042SOL    HW236471   8.060   0.571   4.672
12043SOL     OW36472   7.802   1.510   5.053
12043SOL    HW136473   7.781   1.466   4.966
12043SOL    HW236474   7.899   1.536   5.056
12044SOL     OW36475   7.850   0.751   5.322
12044SOL    HW136476   7.918   0.806   5.275
12044SOL    HW236477   7.890   0.663   5.349
12045SOL     OW36478   8.021   0.870   4.753
12045SOL    HW136479   8.065   0.959   4.744
12045SOL    HW236480   7.958   0.870   4.830
12046SOL     OW36481   7.485   1.310   5.006
12046SOL    HW136482   7.538   1.261   5.074
12046SOL    HW236483   7.507   1.408   5.011
12047SOL     OW36484   7.798   0.898   5.528
12047SOL    HW136485   7.874   0.942   5.576
12047SOL    HW236486   7.833   0.851   5.446
12048SOL     OW36487   7.767   0.810   4.673
12048SOL    HW136488   7.860   0.846   4.678
12048SOL    HW236489   7.761   0.725   4.725
12049SOL     OW36490   7.787   0.509   4.730
12049SOL    HW136491   7.735   0.426   4.713
12049SOL    HW236492   7.864   0.514   4.666
12050SOL     OW36493   7.456   1.326   3.924
12050SOL    HW136494   7.363   1.347   3.893
12050SOL    HW236495   7.466   1.227   3.937
12051SOL     OW36496   7.536   1.801   4.651
12051SOL    HW136497   7.494   1.715   4.624
12051SOL    HW236498   7.630   1.804   4.617
12052SOL     OW36499   7.488   0.544   4.838
12052SOL    HW136500   7.573   0.511   4.797
12052SOL    HW236501   7.501   0.559   4.936
12053SOL     OW36502   7.637   0.520   5.446
12053SOL    HW136503   7.696   0.480   5.376
12053SOL    HW236504   7.579   0.591   5.405
12054SOL     OW36505   7.700   1.564   5.468
12054SOL    HW136506   7.670   1.621   5.544
12054SOL    HW236507   7.693   1.467   5.494
12055SOL     OW36508   7.921   0.500   3.915
12055SOL    HW136509   7.982   0.580   3.919
12055SOL    HW236510   7.826   0.531   3.922
12056SOL     OW36511   7.607   1.137   5.190
12056SOL    HW136512   7.629   1.076   5.266
12056SOL    HW236513   7.617   1.088   5.104
12057SOL     OW36514   7.531   1.258   4.746
12057SOL    HW136515   7.526   1.257   4.846
12057SOL    HW236516   7.448   1.217   4.708
12058SOL     OW36517   7.578   1.794   5.575
12058SOL    HW136518   7.537   1.720   5.628
12058SOL    HW236519   7.642   1.845   5.633
12059SOL     OW36520   7.820   1.288   5.214
12059SOL    HW136521   7.807   1.381   5.180
12059SOL    HW236522   7.736   1.236   5.201
12060SOL     OW36523   8.038   1.487   4.215
12060SOL    HW136524   8.080   1.429   4.145
12060SOL    HW236525   7.994   1.566   4.171
12061SOL     OW36526   7.703   1.348   4.014
12061SOL    HW136527   7.607   1.349   3.987
12061SOL    HW236528   7.715   1.401   4.098
12062SOL     OW36529   7.553   1.013   5.450
12062SOL    HW136530   7.476   0.980   5.504
12062SOL    HW236531   7.638   0.983   5.492
12063SOL     OW36532   7.838   1.741   5.284
12063SOL    HW136533   7.747   1.782   5.282
12063SOL    HW236534   7.831   1.647   5.316
12064SOL     OW36535   7.669   1.314   5.568
12064SOL    HW136536   7.604   1.241   5.547
12064SOL    HW236537   7.673   1.328   5.666
12065SOL     OW36538   7.527   1.240   4.377
12065SOL    HW136539   7.526   1.193   4.465
12065SOL    HW236540   7.609   1.212   4.326
12066SOL     OW36541   8.120   1.391   5.348
12066SOL    HW136542   8.042   1.341   5.386
12066SOL    HW236543   8.117   1.486   5.379
12067SOL     OW36544   7.765   0.547   5.004
12067SOL    HW136545   7.803   0.488   5.076
12067SOL    HW236546   7.805   0.521   4.916
12068SOL     OW36547   7.487   1.077   4.024
12068SOL    HW136548   7.586   1.066   4.015
12068SOL    HW236549   7.447   0.991   4.056
12069SOL     OW36550   7.678   0.628   5.699
12069SOL    HW136551   7.585   0.626   5.736
12069SOL    HW236552   7.679   0.589   5.607
12070SOL     OW36553   7.679   1.713   6.069
12070SOL    HW136554   7.713   1.790   6.123
12070SOL    HW236555   7.723   1.713   5.979
12071SOL     OW36556   7.678   1.434   6.124
12071SOL    HW136557   7.652   1.530   6.124
12071SOL    HW236558   7.607   1.380   6.169
12072SOL     OW36559   7.570   0.643   6.149
12072SOL    HW136560   7.525   0.555   6.166
12072SOL    HW236561   7.569   0.697   6.233
12073SOL     OW36562   7.475   1.596   5.703
12073SOL    HW136563   7.456   1.500   5.724
12073SOL    HW236564   7.442   1.654   5.778
12074SOL     OW36565   8.046   0.729   5.856
12074SOL    HW136566   8.070   0.798   5.788
12074SOL    HW236567   7.968   0.762   5.910
12075SOL     OW36568   7.998   0.196   6.471
12075SOL    HW136569   7.993   0.191   6.571
12075SOL    HW236570   8.000   0.292   6.442
12076SOL     OW36571   7.799   1.801   6.439
12076SOL    HW136572   7.849   1.715   6.445
12076SOL    HW236573   7.864   1.878   6.436
12077SOL     OW36574   7.769   0.943   5.828
12077SOL    HW136575   7.851   0.982   5.786
12077SOL    HW236576   7.742   0.861   5.779
12078SOL     OW36577   7.830   0.700   6.066
12078SOL    HW136578   7.875   0.610   6.063
12078SOL    HW236579   7.736   0.689   6.099
12079SOL     OW36580   7.907   1.152   6.327
12079SOL    HW136581   7.836   1.125   6.392
12079SOL    HW236582   7.881   1.124   6.234
12080SOL     OW36583   8.009   0.222   6.733
12080SOL    HW136584   8.047   0.138   6.770
12080SOL    HW236585   7.921   0.241   6.777
12081SOL     OW36586   7.815   1.100   6.087
12081SOL    HW136587   7.808   1.183   6.031
12081SOL    HW236588   7.819   1.020   6.027
12082SOL     OW36589   8.014   0.537   6.451
12082SOL    HW136590   8.026   0.603   6.377
12082SOL    HW236591   8.060   0.571   6.534
12083SOL     OW36592   7.456   1.326   5.786
12083SOL    HW136593   7.363   1.347   5.755
12083SOL    HW236594   7.466   1.227   5.799
12084SOL     OW36595   7.536   1.801   6.513
12084SOL    HW136596   7.494   1.715   6.486
12084SOL    HW236597   7.630   1.804   6.479
12085SOL     OW36598   7.921   0.500   5.777
12085SOL    HW136599   7.982   0.580   5.781
12085SOL    HW236600   7.826   0.531   5.784
12086SOL     OW36601   8.038   1.487   6.077
12086SOL    HW136602   8.080   1.429   6.007
12086SOL    HW236603   7.994   1.566   6.033
12087SOL     OW36604   7.703   1.348   5.876
12087SOL    HW136605   7.607   1.349   5.849
12087SOL    HW236606   7.715   1.401   5.960
12088SOL     OW36607   7.527   1.240   6.239
12088SOL    HW136608   7.526   1.193   6.327
12088SOL    HW236609   7.609   1.212   6.188
12089SOL     OW36610   7.487   1.077   5.886
12089SOL    HW136611   7.586   1.066   5.877
12089SOL    HW236612   7.447   0.991   5.918
12090SOL     OW36613   7.673   2.137   0.996
12090SOL    HW136614   7.708   2.120   1.088
12090SOL    HW236615   7.585   2.092   0.984
12091SOL     OW36616   7.467   2.230   0.647
12091SOL    HW136617   7.385   2.273   0.686
12091SOL    HW236618   7.439   2.157   0.584
12092SOL     OW36619   7.783   3.297   1.061
12092SOL    HW136620   7.705   3.266   1.008
12092SOL    HW236621   7.841   3.355   1.004
12093SOL     OW36622   7.886   2.254   1.499
12093SOL    HW136623   7.968   2.198   1.508
12093SOL    HW236624   7.805   2.196   1.503
12094SOL     OW36625   7.679   3.575   0.483
12094SOL    HW136626   7.713   3.652   0.537
12094SOL    HW236627   7.723   3.575   0.393
12095SOL     OW36628   7.678   3.296   0.538
12095SOL    HW136629   7.652   3.392   0.538
12095SOL    HW236630   7.607   3.242   0.583
12096SOL     OW36631   7.688   2.953   0.886
12096SOL    HW136632   7.702   2.869   0.938
12096SOL    HW236633   7.633   3.017   0.941
12097SOL     OW36634   7.570   2.505   0.563
12097SOL    HW136635   7.525   2.417   0.580
12097SOL    HW236636   7.569   2.559   0.647
12098SOL     OW36637   7.561   2.599   1.597
12098SOL    HW136638   7.649   2.586   1.642
12098SOL    HW236639   7.548   2.696   1.575
12099SOL     OW36640   7.645   2.838   1.264
12099SOL    HW136641   7.734   2.793   1.250
12099SOL    HW236642   7.572   2.773   1.245
12100SOL     OW36643   7.765   2.113   1.801
12100SOL    HW136644   7.836   2.184   1.807
12100SOL    HW236645   7.677   2.152   1.829
12101SOL     OW36646   7.524   2.673   0.789
12101SOL    HW136647   7.623   2.661   0.798
12101SOL    HW236648   7.500   2.768   0.810
12102SOL     OW36649   7.578   3.683   1.571
12102SOL    HW136650   7.568   3.668   1.670
12102SOL    HW236651   7.492   3.719   1.535
12103SOL     OW36652   7.998   2.058   0.885
12103SOL    HW136653   7.993   2.053   0.985
12103SOL    HW236654   8.000   2.154   0.856
12104SOL     OW36655   7.799   3.663   0.853
12104SOL    HW136656   7.849   3.577   0.859
12104SOL    HW236657   7.864   3.740   0.850
12105SOL     OW36658   7.909   3.128   1.727
12105SOL    HW136659   7.859   3.129   1.641
12105SOL    HW236660   7.846   3.110   1.803
12106SOL     OW36661   7.650   2.147   1.498
12106SOL    HW136662   7.570   2.207   1.485
12106SOL    HW236663   7.640   2.098   1.584
12107SOL     OW36664   7.697   3.647   1.241
12107SOL    HW136665   7.754   3.582   1.291
12107SOL    HW236666   7.681   3.614   1.148
12108SOL     OW36667   7.830   2.562   0.480
12108SOL    HW136668   7.875   2.472   0.477
12108SOL    HW236669   7.736   2.551   0.513
12109SOL     OW36670   7.987   1.926   0.512
12109SOL    HW136671   7.906   1.927   0.570
12109SOL    HW236672   7.990   2.009   0.457
12110SOL     OW36673   7.907   3.014   0.741
12110SOL    HW136674   7.836   2.987   0.806
12110SOL    HW236675   7.881   2.986   0.648
12111SOL     OW36676   7.526   2.418   1.386
12111SOL    HW136677   7.618   2.417   1.345
12111SOL    HW236678   7.520   2.492   1.453
12112SOL     OW36679   8.009   2.084   1.147
12112SOL    HW136680   8.047   2.000   1.184
12112SOL    HW236681   7.921   2.103   1.191
12113SOL     OW36682   7.858   2.675   1.251
12113SOL    HW136683   7.944   2.687   1.301
12113SOL    HW236684   7.816   2.588   1.278
12114SOL     OW36685   7.512   3.426   1.331
12114SOL    HW136686   7.466   3.508   1.297
12114SOL    HW236687   7.610   3.445   1.340
12115SOL     OW36688   7.815   2.962   0.501
12115SOL    HW136689   7.808   3.045   0.445
12115SOL    HW236690   7.819   2.882   0.441
12116SOL     OW36691   8.014   2.399   0.865
12116SOL    HW136692   8.026   2.465   0.791
12116SOL    HW236693   8.060   2.433   0.948
12117SOL     OW36694   7.802   3.372   1.329
12117SOL    HW136695   7.781   3.328   1.242
12117SOL    HW236696   7.899   3.398   1.332
12118SOL     OW36697   7.850   2.613   1.598
12118SOL    HW136698   7.918   2.668   1.551
12118SOL    HW236699   7.890   2.525   1.625
12119SOL     OW36700   7.952   1.912   1.740
12119SOL    HW136701   7.910   1.855   1.670
12119SOL    HW236702   7.886   1.981   1.772
12120SOL     OW36703   8.021   2.732   1.029
12120SOL    HW136704   8.065   2.821   1.020
12120SOL    HW236705   7.958   2.732   1.106
12121SOL     OW36706   7.755   2.075   1.231
12121SOL    HW136707   7.732   2.112   1.321
12121SOL    HW236708   7.725   1.980   1.225
12122SOL     OW36709   7.485   3.172   1.282
12122SOL    HW136710   7.538   3.123   1.350
12122SOL    HW236711   7.507   3.270   1.287
12123SOL     OW36712   7.755   1.925   0.618
12123SOL    HW136713   7.744   2.019   0.651
12123SOL    HW236714   7.750   1.862   0.695
12124SOL     OW36715   7.798   2.760   1.804
12124SOL    HW136716   7.874   2.804   1.852
12124SOL    HW236717   7.833   2.713   1.722
12125SOL     OW36718   7.767   2.672   0.949
12125SOL    HW136719   7.860   2.708   0.954
12125SOL    HW236720   7.761   2.587   1.001
12126SOL     OW36721   7.787   2.371   1.006
12126SOL    HW136722   7.735   2.288   0.989
12126SOL    HW236723   7.864   2.376   0.942
12127SOL     OW36724   7.536   3.663   0.927
12127SOL    HW136725   7.494   3.577   0.900
12127SOL    HW236726   7.630   3.666   0.893
12128SOL     OW36727   7.488   2.406   1.114
12128SOL    HW136728   7.573   2.373   1.073
12128SOL    HW236729   7.501   2.421   1.212
12129SOL     OW36730   7.637   2.382   1.722
12129SOL    HW136731   7.696   2.342   1.652
12129SOL    HW236732   7.579   2.453   1.681
12130SOL     OW36733   7.700   3.426   1.744
12130SOL    HW136734   7.670   3.483   1.820
12130SOL    HW236735   7.693   3.329   1.770
12131SOL     OW36736   7.607   2.999   1.466
12131SOL    HW136737   7.629   2.938   1.542
12131SOL    HW236738   7.617   2.950   1.380
12132SOL     OW36739   7.531   3.120   1.022
12132SOL    HW136740   7.526   3.119   1.122
12132SOL    HW236741   7.448   3.079   0.984
12133SOL     OW36742   7.578   3.656   1.851
12133SOL    HW136743   7.537   3.582   1.904
12133SOL    HW236744   7.642   3.707   1.909
12134SOL     OW36745   7.711   2.188   0.720
12134SOL    HW136746   7.632   2.239   0.686
12134SOL    HW236747   7.702   2.173   0.818
12135SOL     OW36748   7.820   3.150   1.490
12135SOL    HW136749   7.807   3.243   1.456
12135SOL    HW236750   7.736   3.098   1.477
12136SOL     OW36751   8.038   3.349   0.491
12136SOL    HW136752   8.080   3.291   0.421
12136SOL    HW236753   7.994   3.428   0.447
12137SOL     OW36754   7.553   2.875   1.726
12137SOL    HW136755   7.476   2.842   1.780
12137SOL    HW236756   7.638   2.845   1.768
12138SOL     OW36757   7.520   2.028   0.318
12138SOL    HW136758   7.503   2.111   0.264
12138SOL    HW236759   7.610   1.991   0.296
12139SOL     OW36760   7.838   3.603   1.560
12139SOL    HW136761   7.747   3.644   1.558
12139SOL    HW236762   7.831   3.509   1.592
12140SOL     OW36763   7.669   3.176   1.844
12140SOL    HW136764   7.604   3.103   1.823
12140SOL    HW236765   7.673   3.190   1.942
12141SOL     OW36766   7.527   3.102   0.653
12141SOL    HW136767   7.526   3.055   0.741
12141SOL    HW236768   7.609   3.074   0.602
12142SOL     OW36769   8.120   3.253   1.624
12142SOL    HW136770   8.042   3.203   1.662
12142SOL    HW236771   8.117   3.348   1.655
12143SOL     OW36772   7.765   2.409   1.280
12143SOL    HW136773   7.803   2.350   1.352
12143SOL    HW236774   7.805   2.383   1.192
12144SOL     OW36775   7.678   2.490   1.975
12144SOL    HW136776   7.585   2.488   2.012
12144SOL    HW236777   7.679   2.451   1.883
12145SOL     OW36778   7.673   2.137   2.858
12145SOL    HW136779   7.708   2.120   2.950
12145SOL    HW236780   7.585   2.092   2.846
12146SOL     OW36781   7.467   2.230   2.509
12146SOL    HW136782   7.385   2.273   2.548
12146SOL    HW236783   7.439   2.157   2.446
12147SOL     OW36784   7.783   3.297   2.923
12147SOL    HW136785   7.705   3.266   2.870
12147SOL    HW236786   7.841   3.355   2.866
12148SOL     OW36787   7.886   2.254   3.361
12148SOL    HW136788   7.968   2.198   3.370
12148SOL    HW236789   7.805   2.196   3.365
12149SOL     OW36790   7.679   3.575   2.345
12149SOL    HW136791   7.713   3.652   2.399
12149SOL    HW236792   7.723   3.575   2.255
12150SOL     OW36793   7.678   3.296   2.400
12150SOL    HW136794   7.652   3.392   2.400
12150SOL    HW236795   7.607   3.242   2.445
12151SOL     OW36796   7.688   2.953   2.748
12151SOL    HW136797   7.702   2.869   2.800
12151SOL    HW236798   7.633   3.017   2.803
12152SOL     OW36799   7.570   2.505   2.425
12152SOL    HW136800   7.525   2.417   2.442
12152SOL    HW236801   7.569   2.559   2.509
12153SOL     OW36802   7.475   3.458   1.979
12153SOL    HW136803   7.456   3.362   2.000
12153SOL    HW236804   7.442   3.516   2.054
12154SOL     OW36805   7.561   2.599   3.459
12154SOL    HW136806   7.649   2.586   3.504
12154SOL    HW236807   7.548   2.696   3.437
12155SOL     OW36808   7.645   2.838   3.126
12155SOL    HW136809   7.734   2.793   3.112
12155SOL    HW236810   7.572   2.773   3.107
12156SOL     OW36811   7.765   2.113   3.663
12156SOL    HW136812   7.836   2.184   3.669
12156SOL    HW236813   7.677   2.152   3.691
12157SOL     OW36814   8.046   2.591   2.132
12157SOL    HW136815   8.070   2.660   2.064
12157SOL    HW236816   7.968   2.624   2.186
12158SOL     OW36817   7.524   2.673   2.651
12158SOL    HW136818   7.623   2.661   2.660
12158SOL    HW236819   7.500   2.768   2.672
12159SOL     OW36820   7.578   3.683   3.433
12159SOL    HW136821   7.568   3.668   3.532
12159SOL    HW236822   7.492   3.719   3.397
12160SOL     OW36823   7.998   2.058   2.747
12160SOL    HW136824   7.993   2.053   2.847
12160SOL    HW236825   8.000   2.154   2.718
12161SOL     OW36826   7.799   3.663   2.715
12161SOL    HW136827   7.849   3.577   2.721
12161SOL    HW236828   7.864   3.740   2.712
12162SOL     OW36829   7.769   2.805   2.104
12162SOL    HW136830   7.851   2.844   2.062
12162SOL    HW236831   7.742   2.723   2.055
12163SOL     OW36832   7.909   3.128   3.589
12163SOL    HW136833   7.859   3.129   3.503
12163SOL    HW236834   7.846   3.110   3.665
12164SOL     OW36835   7.650   2.147   3.360
12164SOL    HW136836   7.570   2.207   3.347
12164SOL    HW236837   7.640   2.098   3.446
12165SOL     OW36838   7.697   3.647   3.103
12165SOL    HW136839   7.754   3.582   3.153
12165SOL    HW236840   7.681   3.614   3.010
12166SOL     OW36841   7.830   2.562   2.342
12166SOL    HW136842   7.875   2.472   2.339
12166SOL    HW236843   7.736   2.551   2.375
12167SOL     OW36844   7.987   1.926   2.374
12167SOL    HW136845   7.906   1.927   2.432
12167SOL    HW236846   7.990   2.009   2.319
12168SOL     OW36847   7.745   1.897   2.033
12168SOL    HW136848   7.794   1.981   2.012
12168SOL    HW236849   7.807   1.832   2.078
12169SOL     OW36850   7.907   3.014   2.603
12169SOL    HW136851   7.836   2.987   2.668
12169SOL    HW236852   7.881   2.986   2.510
12170SOL     OW36853   7.526   2.418   3.248
12170SOL    HW136854   7.618   2.417   3.207
12170SOL    HW236855   7.520   2.492   3.315
12171SOL     OW36856   8.009   2.084   3.009
12171SOL    HW136857   8.047   2.000   3.046
12171SOL    HW236858   7.921   2.103   3.053
12172SOL     OW36859   7.858   2.675   3.113
12172SOL    HW136860   7.944   2.687   3.163
12172SOL    HW236861   7.816   2.588   3.140
12173SOL     OW36862   7.512   3.426   3.193
12173SOL    HW136863   7.466   3.508   3.159
12173SOL    HW236864   7.610   3.445   3.202
12174SOL     OW36865   7.815   2.962   2.363
12174SOL    HW136866   7.808   3.045   2.307
12174SOL    HW236867   7.819   2.882   2.303
12175SOL     OW36868   8.014   2.399   2.727
12175SOL    HW136869   8.026   2.465   2.653
12175SOL    HW236870   8.060   2.433   2.810
12176SOL     OW36871   7.802   3.372   3.191
12176SOL    HW136872   7.781   3.328   3.104
12176SOL    HW236873   7.899   3.398   3.194
12177SOL     OW36874   7.850   2.613   3.460
12177SOL    HW136875   7.918   2.668   3.413
12177SOL    HW236876   7.890   2.525   3.487
12178SOL     OW36877   7.952   1.912   3.602
12178SOL    HW136878   7.910   1.855   3.532
12178SOL    HW236879   7.886   1.981   3.634
12179SOL     OW36880   8.021   2.732   2.891
12179SOL    HW136881   8.065   2.821   2.882
12179SOL    HW236882   7.958   2.732   2.968
12180SOL     OW36883   7.755   2.075   3.093
12180SOL    HW136884   7.732   2.112   3.183
12180SOL    HW236885   7.725   1.980   3.087
12181SOL     OW36886   7.485   3.172   3.144
12181SOL    HW136887   7.538   3.123   3.212
12181SOL    HW236888   7.507   3.270   3.149
12182SOL     OW36889   7.755   1.925   2.480
12182SOL    HW136890   7.744   2.019   2.513
12182SOL    HW236891   7.750   1.862   2.557
12183SOL     OW36892   7.798   2.760   3.666
12183SOL    HW136893   7.874   2.804   3.714
12183SOL    HW236894   7.833   2.713   3.584
12184SOL     OW36895   7.767   2.672   2.811
12184SOL    HW136896   7.860   2.708   2.816
12184SOL    HW236897   7.761   2.587   2.863
12185SOL     OW36898   7.787   2.371   2.868
12185SOL    HW136899   7.735   2.288   2.851
12185SOL    HW236900   7.864   2.376   2.804
12186SOL     OW36901   7.456   3.188   2.062
12186SOL    HW136902   7.363   3.209   2.031
12186SOL    HW236903   7.466   3.089   2.075
12187SOL     OW36904   7.536   3.663   2.789
12187SOL    HW136905   7.494   3.577   2.762
12187SOL    HW236906   7.630   3.666   2.755
12188SOL     OW36907   7.488   2.406   2.976
12188SOL    HW136908   7.573   2.373   2.935
12188SOL    HW236909   7.501   2.421   3.074
12189SOL     OW36910   7.637   2.382   3.584
12189SOL    HW136911   7.696   2.342   3.514
12189SOL    HW236912   7.579   2.453   3.543
12190SOL     OW36913   7.700   3.426   3.606
12190SOL    HW136914   7.670   3.483   3.682
12190SOL    HW236915   7.693   3.329   3.632
12191SOL     OW36916   7.921   2.362   2.053
12191SOL    HW136917   7.982   2.442   2.057
12191SOL    HW236918   7.826   2.393   2.060
12192SOL     OW36919   7.607   2.999   3.328
12192SOL    HW136920   7.629   2.938   3.404
12192SOL    HW236921   7.617   2.950   3.242
12193SOL     OW36922   7.531   3.120   2.884
12193SOL    HW136923   7.526   3.119   2.984
12193SOL    HW236924   7.448   3.079   2.846
12194SOL     OW36925   7.578   3.656   3.713
12194SOL    HW136926   7.537   3.582   3.766
12194SOL    HW236927   7.642   3.707   3.771
12195SOL     OW36928   7.711   2.188   2.582
12195SOL    HW136929   7.632   2.239   2.548
12195SOL    HW236930   7.702   2.173   2.680
12196SOL     OW36931   7.820   3.150   3.352
12196SOL    HW136932   7.807   3.243   3.318
12196SOL    HW236933   7.736   3.098   3.339
12197SOL     OW36934   8.038   3.349   2.353
12197SOL    HW136935   8.080   3.291   2.283
12197SOL    HW236936   7.994   3.428   2.309
12198SOL     OW36937   7.703   3.210   2.152
12198SOL    HW136938   7.607   3.211   2.125
12198SOL    HW236939   7.715   3.263   2.236
12199SOL     OW36940   7.553   2.875   3.588
12199SOL    HW136941   7.476   2.842   3.642
12199SOL    HW236942   7.638   2.845   3.630
12200SOL     OW36943   7.523   2.207   1.895
12200SOL    HW136944   7.431   2.179   1.866
12200SOL    HW236945   7.554   2.284   1.839
12201SOL     OW36946   7.520   2.028   2.180
12201SOL    HW136947   7.503   2.111   2.126
12201SOL    HW236948   7.610   1.991   2.158
12202SOL     OW36949   7.838   3.603   3.422
12202SOL    HW136950   7.747   3.644   3.420
12202SOL    HW236951   7.831   3.509   3.454
12203SOL     OW36952   7.669   3.176   3.706
12203SOL    HW136953   7.604   3.103   3.685
12203SOL    HW236954   7.673   3.190   3.804
12204SOL     OW36955   7.527   3.102   2.515
12204SOL    HW136956   7.526   3.055   2.603
12204SOL    HW236957   7.609   3.074   2.464
12205SOL     OW36958   8.120   3.253   3.486
12205SOL    HW136959   8.042   3.203   3.524
12205SOL    HW236960   8.117   3.348   3.517
12206SOL     OW36961   7.765   2.409   3.142
12206SOL    HW136962   7.803   2.350   3.214
12206SOL    HW236963   7.805   2.383   3.054
12207SOL     OW36964   7.487   2.939   2.162
12207SOL    HW136965   7.586   2.928   2.153
12207SOL    HW236966   7.447   2.853   2.194
12208SOL     OW36967   7.678   2.490   3.837
12208SOL    HW136968   7.585   2.488   3.874
12208SOL    HW236969   7.679   2.451   3.745
12209SOL     OW36970   7.673   2.137   4.720
12209SOL    HW136971   7.708   2.120   4.812
12209SOL    HW236972   7.585   2.092   4.708
12210SOL     OW36973   7.467   2.230   4.371
12210SOL    HW136974   7.385   2.273   4.410
12210SOL    HW236975   7.439   2.157   4.308
12211SOL     OW36976   7.783   3.297   4.785
12211SOL    HW136977   7.705   3.266   4.732
12211SOL    HW236978   7.841   3.355   4.728
12212SOL     OW36979   7.886   2.254   5.223
12212SOL    HW136980   7.968   2.198   5.232
12212SOL    HW236981   7.805   2.196   5.227
12213SOL     OW36982   7.679   3.575   4.207
12213SOL    HW136983   7.713   3.652   4.261
12213SOL    HW236984   7.723   3.575   4.117
12214SOL     OW36985   7.678   3.296   4.262
12214SOL    HW136986   7.652   3.392   4.262
12214SOL    HW236987   7.607   3.242   4.307
12215SOL     OW36988   7.688   2.953   4.610
12215SOL    HW136989   7.702   2.869   4.662
12215SOL    HW236990   7.633   3.017   4.665
12216SOL     OW36991   7.570   2.505   4.287
12216SOL    HW136992   7.525   2.417   4.304
12216SOL    HW236993   7.569   2.559   4.371
12217SOL     OW36994   7.475   3.458   3.841
12217SOL    HW136995   7.456   3.362   3.862
12217SOL    HW236996   7.442   3.516   3.916
12218SOL     OW36997   7.561   2.599   5.321
12218SOL    HW136998   7.649   2.586   5.366
12218SOL    HW236999   7.548   2.696   5.299
12219SOL     OW37000   7.645   2.838   4.988
12219SOL    HW137001   7.734   2.793   4.974
12219SOL    HW237002   7.572   2.773   4.969
12220SOL     OW37003   7.765   2.113   5.525
12220SOL    HW137004   7.836   2.184   5.531
12220SOL    HW237005   7.677   2.152   5.553
12221SOL     OW37006   8.046   2.591   3.994
12221SOL    HW137007   8.070   2.660   3.926
12221SOL    HW237008   7.968   2.624   4.048
12222SOL     OW37009   7.524   2.673   4.513
12222SOL    HW137010   7.623   2.661   4.522
12222SOL    HW237011   7.500   2.768   4.534
12223SOL     OW37012   7.578   3.683   5.295
12223SOL    HW137013   7.568   3.668   5.394
12223SOL    HW237014   7.492   3.719   5.259
12224SOL     OW37015   7.998   2.058   4.609
12224SOL    HW137016   7.993   2.053   4.709
12224SOL    HW237017   8.000   2.154   4.580
12225SOL     OW37018   7.799   3.663   4.577
12225SOL    HW137019   7.849   3.577   4.583
12225SOL    HW237020   7.864   3.740   4.574
12226SOL     OW37021   7.769   2.805   3.966
12226SOL    HW137022   7.851   2.844   3.924
12226SOL    HW237023   7.742   2.723   3.917
12227SOL     OW37024   7.909   3.128   5.451
12227SOL    HW137025   7.859   3.129   5.365
12227SOL    HW237026   7.846   3.110   5.527
12228SOL     OW37027   7.650   2.147   5.222
12228SOL    HW137028   7.570   2.207   5.209
12228SOL    HW237029   7.640   2.098   5.308
12229SOL     OW37030   7.697   3.647   4.965
12229SOL    HW137031   7.754   3.582   5.015
12229SOL    HW237032   7.681   3.614   4.872
12230SOL     OW37033   7.830   2.562   4.204
12230SOL    HW137034   7.875   2.472   4.201
12230SOL    HW237035   7.736   2.551   4.237
12231SOL     OW37036   7.987   1.926   4.236
12231SOL    HW137037   7.906   1.927   4.294
12231SOL    HW237038   7.990   2.009   4.181
12232SOL     OW37039   7.745   1.897   3.895
12232SOL    HW137040   7.794   1.981   3.874
12232SOL    HW237041   7.807   1.832   3.940
12233SOL     OW37042   7.907   3.014   4.465
12233SOL    HW137043   7.836   2.987   4.530
12233SOL    HW237044   7.881   2.986   4.372
12234SOL     OW37045   7.526   2.418   5.110
12234SOL    HW137046   7.618   2.417   5.069
12234SOL    HW237047   7.520   2.492   5.177
12235SOL     OW37048   8.009   2.084   4.871
12235SOL    HW137049   8.047   2.000   4.908
12235SOL    HW237050   7.921   2.103   4.915
12236SOL     OW37051   7.858   2.675   4.975
12236SOL    HW137052   7.944   2.687   5.025
12236SOL    HW237053   7.816   2.588   5.002
12237SOL     OW37054   7.512   3.426   5.055
12237SOL    HW137055   7.466   3.508   5.021
12237SOL    HW237056   7.610   3.445   5.064
12238SOL     OW37057   7.815   2.962   4.225
12238SOL    HW137058   7.808   3.045   4.169
12238SOL    HW237059   7.819   2.882   4.165
12239SOL     OW37060   8.014   2.399   4.589
12239SOL    HW137061   8.026   2.465   4.515
12239SOL    HW237062   8.060   2.433   4.672
12240SOL     OW37063   7.802   3.372   5.053
12240SOL    HW137064   7.781   3.328   4.966
12240SOL    HW237065   7.899   3.398   5.056
12241SOL     OW37066   7.850   2.613   5.322
12241SOL    HW137067   7.918   2.668   5.275
12241SOL    HW237068   7.890   2.525   5.349
12242SOL     OW37069   7.952   1.912   5.464
12242SOL    HW137070   7.910   1.855   5.394
12242SOL    HW237071   7.886   1.981   5.496
12243SOL     OW37072   8.021   2.732   4.753
12243SOL    HW137073   8.065   2.821   4.744
12243SOL    HW237074   7.958   2.732   4.830
12244SOL     OW37075   7.755   2.075   4.955
12244SOL    HW137076   7.732   2.112   5.045
12244SOL    HW237077   7.725   1.980   4.949
12245SOL     OW37078   7.485   3.172   5.006
12245SOL    HW137079   7.538   3.123   5.074
12245SOL    HW237080   7.507   3.270   5.011
12246SOL     OW37081   7.755   1.925   4.342
12246SOL    HW137082   7.744   2.019   4.375
12246SOL    HW237083   7.750   1.862   4.419
12247SOL     OW37084   7.798   2.760   5.528
12247SOL    HW137085   7.874   2.804   5.576
12247SOL    HW237086   7.833   2.713   5.446
12248SOL     OW37087   7.767   2.672   4.673
12248SOL    HW137088   7.860   2.708   4.678
12248SOL    HW237089   7.761   2.587   4.725
12249SOL     OW37090   7.787   2.371   4.730
12249SOL    HW137091   7.735   2.288   4.713
12249SOL    HW237092   7.864   2.376   4.666
12250SOL     OW37093   7.456   3.188   3.924
12250SOL    HW137094   7.363   3.209   3.893
12250SOL    HW237095   7.466   3.089   3.937
12251SOL     OW37096   7.536   3.663   4.651
12251SOL    HW137097   7.494   3.577   4.624
12251SOL    HW237098   7.630   3.666   4.617
12252SOL     OW37099   7.488   2.406   4.838
12252SOL    HW137100   7.573   2.373   4.797
12252SOL    HW237101   7.501   2.421   4.936
12253SOL     OW37102   7.637   2.382   5.446
12253SOL    HW137103   7.696   2.342   5.376
12253SOL    HW237104   7.579   2.453   5.405
12254SOL     OW37105   7.700   3.426   5.468
12254SOL    HW137106   7.670   3.483   5.544
12254SOL    HW237107   7.693   3.329   5.494
12255SOL     OW37108   7.921   2.362   3.915
12255SOL    HW137109   7.982   2.442   3.919
12255SOL    HW237110   7.826   2.393   3.922
12256SOL     OW37111   7.607   2.999   5.190
12256SOL    HW137112   7.629   2.938   5.266
12256SOL    HW237113   7.617   2.950   5.104
12257SOL     OW37114   7.531   3.120   4.746
12257SOL    HW137115   7.526   3.119   4.846
12257SOL    HW237116   7.448   3.079   4.708
12258SOL     OW37117   7.578   3.656   5.575
12258SOL    HW137118   7.537   3.582   5.628
12258SOL    HW237119   7.642   3.707   5.633
12259SOL     OW37120   7.711   2.188   4.444
12259SOL    HW137121   7.632   2.239   4.410
12259SOL    HW237122   7.702   2.173   4.542
12260SOL     OW37123   7.820   3.150   5.214
12260SOL    HW137124   7.807   3.243   5.180
12260SOL    HW237125   7.736   3.098   5.201
12261SOL     OW37126   8.038   3.349   4.215
12261SOL    HW137127   8.080   3.291   4.145
12261SOL    HW237128   7.994   3.428   4.171
12262SOL     OW37129   7.703   3.210   4.014
12262SOL    HW137130   7.607   3.211   3.987
12262SOL    HW237131   7.715   3.263   4.098
12263SOL     OW37132   7.553   2.875   5.450
12263SOL    HW137133   7.476   2.842   5.504
12263SOL    HW237134   7.638   2.845   5.492
12264SOL     OW37135   7.523   2.207   3.757
12264SOL    HW137136   7.431   2.179   3.728
12264SOL    HW237137   7.554   2.284   3.701
12265SOL     OW37138   7.520   2.028   4.042
12265SOL    HW137139   7.503   2.111   3.988
12265SOL    HW237140   7.610   1.991   4.020
12266SOL     OW37141   7.838   3.603   5.284
12266SOL    HW137142   7.747   3.644   5.282
12266SOL    HW237143   7.831   3.509   5.316
12267SOL     OW37144   7.669   3.176   5.568
12267SOL    HW137145   7.604   3.103   5.547
12267SOL    HW237146   7.673   3.190   5.666
12268SOL     OW37147   7.527   3.102   4.377
12268SOL    HW137148   7.526   3.055   4.465
12268SOL    HW237149   7.609   3.074   4.326
12269SOL     OW37150   8.120   3.253   5.348
12269SOL    HW137151   8.042   3.203   5.386
12269SOL    HW237152   8.117   3.348   5.379
12270SOL     OW37153   7.765   2.409   5.004
12270SOL    HW137154   7.803   2.350   5.076
12270SOL    HW237155   7.805   2.383   4.916
12271SOL     OW37156   7.487   2.939   4.024
12271SOL    HW137157   7.586   2.928   4.015
12271SOL    HW237158   7.447   2.853   4.056
12272SOL     OW37159   7.678   2.490   5.699
12272SOL    HW137160   7.585   2.488   5.736
12272SOL    HW237161   7.679   2.451   5.607
12273SOL     OW37162   7.673   2.137   6.582
12273SOL    HW137163   7.708   2.120   6.674
12273SOL    HW237164   7.585   2.092   6.570
12274SOL     OW37165   7.467   2.230   6.233
12274SOL    HW137166   7.385   2.273   6.272
12274SOL    HW237167   7.439   2.157   6.170
12275SOL     OW37168   7.679   3.575   6.069
12275SOL    HW137169   7.713   3.652   6.123
12275SOL    HW237170   7.723   3.575   5.979
12276SOL     OW37171   7.678   3.296   6.124
12276SOL    HW137172   7.652   3.392   6.124
12276SOL    HW237173   7.607   3.242   6.169
12277SOL     OW37174   7.570   2.505   6.149
12277SOL    HW137175   7.525   2.417   6.166
12277SOL    HW237176   7.569   2.559   6.233
12278SOL     OW37177   7.475   3.458   5.703
12278SOL    HW137178   7.456   3.362   5.724
12278SOL    HW237179   7.442   3.516   5.778
12279SOL     OW37180   8.046   2.591   5.856
12279SOL    HW137181   8.070   2.660   5.788
12279SOL    HW237182   7.968   2.624   5.910
12280SOL     OW37183   7.799   3.663   6.439
12280SOL    HW137184   7.849   3.577   6.445
12280SOL    HW237185   7.864   3.740   6.436
12281SOL     OW37186   7.769   2.805   5.828
12281SOL    HW137187   7.851   2.844   5.786
12281SOL    HW237188   7.742   2.723   5.779
12282SOL     OW37189   7.697   3.647   6.827
12282SOL    HW137190   7.754   3.582   6.877
12282SOL    HW237191   7.681   3.614   6.734
12283SOL     OW37192   7.830   2.562   6.066
12283SOL    HW137193   7.875   2.472   6.063
12283SOL    HW237194   7.736   2.551   6.099
12284SOL     OW37195   7.987   1.926   6.098
12284SOL    HW137196   7.906   1.927   6.156
12284SOL    HW237197   7.990   2.009   6.043
12285SOL     OW37198   7.745   1.897   5.757
12285SOL    HW137199   7.794   1.981   5.736
12285SOL    HW237200   7.807   1.832   5.802
12286SOL     OW37201   7.907   3.014   6.327
12286SOL    HW137202   7.836   2.987   6.392
12286SOL    HW237203   7.881   2.986   6.234
12287SOL     OW37204   7.815   2.962   6.087
12287SOL    HW137205   7.808   3.045   6.031
12287SOL    HW237206   7.819   2.882   6.027
12288SOL     OW37207   8.014   2.399   6.451
12288SOL    HW137208   8.026   2.465   6.377
12288SOL    HW237209   8.060   2.433   6.534
12289SOL     OW37210   7.755   1.925   6.204
12289SOL    HW137211   7.744   2.019   6.237
12289SOL    HW237212   7.750   1.862   6.281
12290SOL     OW37213   7.456   3.188   5.786
12290SOL    HW137214   7.363   3.209   5.755
12290SOL    HW237215   7.466   3.089   5.799
12291SOL     OW37216   7.536   3.663   6.513
12291SOL    HW137217   7.494   3.577   6.486
12291SOL    HW237218   7.630   3.666   6.479
12292SOL     OW37219   7.921   2.362   5.777
12292SOL    HW137220   7.982   2.442   5.781
12292SOL    HW237221   7.826   2.393   5.784
12293SOL     OW37222   7.711   2.188   6.306
12293SOL    HW137223   7.632   2.239   6.272
12293SOL    HW237224   7.702   2.173   6.404
12294SOL     OW37225   8.038   3.349   6.077
12294SOL    HW137226   8.080   3.291   6.007
12294SOL    HW237227   7.994   3.428   6.033
12295SOL     OW37228   7.703   3.210   5.876
12295SOL    HW137229   7.607   3.211   5.849
12295SOL    HW237230   7.715   3.263   5.960
12296SOL     OW37231   7.523   2.207   5.619
12296SOL    HW137232   7.431   2.179   5.590
12296SOL    HW237233   7.554   2.284   5.563
12297SOL     OW37234   7.520   2.028   5.904
12297SOL    HW137235   7.503   2.111   5.850
12297SOL    HW237236   7.610   1.991   5.882
12298SOL     OW37237   7.527   3.102   6.239
12298SOL    HW137238   7.526   3.055   6.327
12298SOL    HW237239   7.609   3.074   6.188
12299SOL     OW37240   7.487   2.939   5.886
12299SOL    HW137241   7.586   2.928   5.877
12299SOL    HW237242   7.447   2.853   5.918
12300SOL     OW37243   7.673   3.999   0.996
12300SOL    HW137244   7.708   3.982   1.088
12300SOL    HW237245   7.585   3.954   0.984
12301SOL     OW37246   7.467   4.092   0.647
12301SOL    HW137247   7.385   4.135   0.686
12301SOL    HW237248   7.439   4.019   0.584
12302SOL     OW37249   7.783   5.159   1.061
12302SOL    HW137250   7.705   5.128   1.008
12302SOL    HW237251   7.841   5.217   1.004
12303SOL     OW37252   7.886   4.116   1.499
12303SOL    HW137253   7.968   4.060   1.508
12303SOL    HW237254   7.805   4.058   1.503
12304SOL     OW37255   7.679   5.437   0.483
12304SOL    HW137256   7.713   5.514   0.537
12304SOL    HW237257   7.723   5.437   0.393
12305SOL     OW37258   7.678   5.158   0.538
12305SOL    HW137259   7.652   5.254   0.538
12305SOL    HW237260   7.607   5.104   0.583
12306SOL     OW37261   7.688   4.815   0.886
12306SOL    HW137262   7.702   4.731   0.938
12306SOL    HW237263   7.633   4.879   0.941
12307SOL     OW37264   7.570   4.367   0.563
12307SOL    HW137265   7.525   4.279   0.580
12307SOL    HW237266   7.569   4.421   0.647
12308SOL     OW37267   7.561   4.461   1.597
12308SOL    HW137268   7.649   4.448   1.642
12308SOL    HW237269   7.548   4.558   1.575
12309SOL     OW37270   7.645   4.700   1.264
12309SOL    HW137271   7.734   4.655   1.250
12309SOL    HW237272   7.572   4.635   1.245
12310SOL     OW37273   7.765   3.975   1.801
12310SOL    HW137274   7.836   4.046   1.807
12310SOL    HW237275   7.677   4.014   1.829
12311SOL     OW37276   8.046   4.453   0.270
12311SOL    HW137277   8.070   4.522   0.202
12311SOL    HW237278   7.968   4.486   0.324
12312SOL     OW37279   7.524   4.535   0.789
12312SOL    HW137280   7.623   4.523   0.798
12312SOL    HW237281   7.500   4.630   0.810
12313SOL     OW37282   7.578   5.545   1.571
12313SOL    HW137283   7.568   5.530   1.670
12313SOL    HW237284   7.492   5.581   1.535
12314SOL     OW37285   7.998   3.920   0.885
12314SOL    HW137286   7.993   3.915   0.985
12314SOL    HW237287   8.000   4.016   0.856
12315SOL     OW37288   7.799   5.525   0.853
12315SOL    HW137289   7.849   5.439   0.859
12315SOL    HW237290   7.864   5.602   0.850
12316SOL     OW37291   7.909   4.990   1.727
12316SOL    HW137292   7.859   4.991   1.641
12316SOL    HW237293   7.846   4.972   1.803
12317SOL     OW37294   7.650   4.009   1.498
12317SOL    HW137295   7.570   4.069   1.485
12317SOL    HW237296   7.640   3.960   1.584
12318SOL     OW37297   7.697   5.509   1.241
12318SOL    HW137298   7.754   5.444   1.291
12318SOL    HW237299   7.681   5.476   1.148
12319SOL     OW37300   7.830   4.424   0.480
12319SOL    HW137301   7.875   4.334   0.477
12319SOL    HW237302   7.736   4.413   0.513
12320SOL     OW37303   7.987   3.788   0.512
12320SOL    HW137304   7.906   3.789   0.570
12320SOL    HW237305   7.990   3.871   0.457
12321SOL     OW37306   7.907   4.876   0.741
12321SOL    HW137307   7.836   4.849   0.806
12321SOL    HW237308   7.881   4.848   0.648
12322SOL     OW37309   7.526   4.280   1.386
12322SOL    HW137310   7.618   4.279   1.345
12322SOL    HW237311   7.520   4.354   1.453
12323SOL     OW37312   8.009   3.946   1.147
12323SOL    HW137313   8.047   3.862   1.184
12323SOL    HW237314   7.921   3.965   1.191
12324SOL     OW37315   7.858   4.537   1.251
12324SOL    HW137316   7.944   4.549   1.301
12324SOL    HW237317   7.816   4.450   1.278
12325SOL     OW37318   7.512   5.288   1.331
12325SOL    HW137319   7.466   5.370   1.297
12325SOL    HW237320   7.610   5.307   1.340
12326SOL     OW37321   7.815   4.824   0.501
12326SOL    HW137322   7.808   4.907   0.445
12326SOL    HW237323   7.819   4.744   0.441
12327SOL     OW37324   8.014   4.261   0.865
12327SOL    HW137325   8.026   4.327   0.791
12327SOL    HW237326   8.060   4.295   0.948
12328SOL     OW37327   7.802   5.234   1.329
12328SOL    HW137328   7.781   5.190   1.242
12328SOL    HW237329   7.899   5.260   1.332
12329SOL     OW37330   7.850   4.475   1.598
12329SOL    HW137331   7.918   4.530   1.551
12329SOL    HW237332   7.890   4.387   1.625
12330SOL     OW37333   7.952   3.774   1.740
12330SOL    HW137334   7.910   3.717   1.670
12330SOL    HW237335   7.886   3.843   1.772
12331SOL     OW37336   8.021   4.594   1.029
12331SOL    HW137337   8.065   4.683   1.020
12331SOL    HW237338   7.958   4.594   1.106
12332SOL     OW37339   7.755   3.937   1.231
12332SOL    HW137340   7.732   3.974   1.321
12332SOL    HW237341   7.725   3.842   1.225
12333SOL     OW37342   7.485   5.034   1.282
12333SOL    HW137343   7.538   4.985   1.350
12333SOL    HW237344   7.507   5.132   1.287
12334SOL     OW37345   7.755   3.787   0.618
12334SOL    HW137346   7.744   3.881   0.651
12334SOL    HW237347   7.750   3.724   0.695
12335SOL     OW37348   7.798   4.622   1.804
12335SOL    HW137349   7.874   4.666   1.852
12335SOL    HW237350   7.833   4.575   1.722
12336SOL     OW37351   7.767   4.534   0.949
12336SOL    HW137352   7.860   4.570   0.954
12336SOL    HW237353   7.761   4.449   1.001
12337SOL     OW37354   7.787   4.233   1.006
12337SOL    HW137355   7.735   4.150   0.989
12337SOL    HW237356   7.864   4.238   0.942
12338SOL     OW37357   7.536   5.525   0.927
12338SOL    HW137358   7.494   5.439   0.900
12338SOL    HW237359   7.630   5.528   0.893
12339SOL     OW37360   7.488   4.268   1.114
12339SOL    HW137361   7.573   4.235   1.073
12339SOL    HW237362   7.501   4.283   1.212
12340SOL     OW37363   7.637   4.244   1.722
12340SOL    HW137364   7.696   4.204   1.652
12340SOL    HW237365   7.579   4.315   1.681
12341SOL     OW37366   7.700   5.288   1.744
12341SOL    HW137367   7.670   5.345   1.820
12341SOL    HW237368   7.693   5.191   1.770
12342SOL     OW37369   7.607   4.861   1.466
12342SOL    HW137370   7.629   4.800   1.542
12342SOL    HW237371   7.617   4.812   1.380
12343SOL     OW37372   7.531   4.982   1.022
12343SOL    HW137373   7.526   4.981   1.122
12343SOL    HW237374   7.448   4.941   0.984
12344SOL     OW37375   7.578   5.518   1.851
12344SOL    HW137376   7.537   5.444   1.904
12344SOL    HW237377   7.642   5.569   1.909
12345SOL     OW37378   7.711   4.050   0.720
12345SOL    HW137379   7.632   4.101   0.686
12345SOL    HW237380   7.702   4.035   0.818
12346SOL     OW37381   7.820   5.012   1.490
12346SOL    HW137382   7.807   5.105   1.456
12346SOL    HW237383   7.736   4.960   1.477
12347SOL     OW37384   8.038   5.211   0.491
12347SOL    HW137385   8.080   5.153   0.421
12347SOL    HW237386   7.994   5.290   0.447
12348SOL     OW37387   7.553   4.737   1.726
12348SOL    HW137388   7.476   4.704   1.780
12348SOL    HW237389   7.638   4.707   1.768
12349SOL     OW37390   7.838   5.465   1.560
12349SOL    HW137391   7.747   5.506   1.558
12349SOL    HW237392   7.831   5.371   1.592
12350SOL     OW37393   7.669   5.038   1.844
12350SOL    HW137394   7.604   4.965   1.823
12350SOL    HW237395   7.673   5.052   1.942
12351SOL     OW37396   7.527   4.964   0.653
12351SOL    HW137397   7.526   4.917   0.741
12351SOL    HW237398   7.609   4.936   0.602
12352SOL     OW37399   8.120   5.115   1.624
12352SOL    HW137400   8.042   5.065   1.662
12352SOL    HW237401   8.117   5.210   1.655
12353SOL     OW37402   7.765   4.271   1.280
12353SOL    HW137403   7.803   4.212   1.352
12353SOL    HW237404   7.805   4.245   1.192
12354SOL     OW37405   7.487   4.801   0.300
12354SOL    HW137406   7.586   4.790   0.291
12354SOL    HW237407   7.447   4.715   0.332
12355SOL     OW37408   7.678   4.352   1.975
12355SOL    HW137409   7.585   4.350   2.012
12355SOL    HW237410   7.679   4.313   1.883
12356SOL     OW37411   7.673   3.999   2.858
12356SOL    HW137412   7.708   3.982   2.950
12356SOL    HW237413   7.585   3.954   2.846
12357SOL     OW37414   7.467   4.092   2.509
12357SOL    HW137415   7.385   4.135   2.548
12357SOL    HW237416   7.439   4.019   2.446
12358SOL     OW37417   7.783   5.159   2.923
12358SOL    HW137418   7.705   5.128   2.870
12358SOL    HW237419   7.841   5.217   2.866
12359SOL     OW37420   7.886   4.116   3.361
12359SOL    HW137421   7.968   4.060   3.370
12359SOL    HW237422   7.805   4.058   3.365
12360SOL     OW37423   7.679   5.437   2.345
12360SOL    HW137424   7.713   5.514   2.399
12360SOL    HW237425   7.723   5.437   2.255
12361SOL     OW37426   7.678   5.158   2.400
12361SOL    HW137427   7.652   5.254   2.400
12361SOL    HW237428   7.607   5.104   2.445
12362SOL     OW37429   7.688   4.815   2.748
12362SOL    HW137430   7.702   4.731   2.800
12362SOL    HW237431   7.633   4.879   2.803
12363SOL     OW37432   7.570   4.367   2.425
12363SOL    HW137433   7.525   4.279   2.442
12363SOL    HW237434   7.569   4.421   2.509
12364SOL     OW37435   7.475   5.320   1.979
12364SOL    HW137436   7.456   5.224   2.000
12364SOL    HW237437   7.442   5.378   2.054
12365SOL     OW37438   7.561   4.461   3.459
12365SOL    HW137439   7.649   4.448   3.504
12365SOL    HW237440   7.548   4.558   3.437
12366SOL     OW37441   7.645   4.700   3.126
12366SOL    HW137442   7.734   4.655   3.112
12366SOL    HW237443   7.572   4.635   3.107
12367SOL     OW37444   7.765   3.975   3.663
12367SOL    HW137445   7.836   4.046   3.669
12367SOL    HW237446   7.677   4.014   3.691
12368SOL     OW37447   8.046   4.453   2.132
12368SOL    HW137448   8.070   4.522   2.064
12368SOL    HW237449   7.968   4.486   2.186
12369SOL     OW37450   7.524   4.535   2.651
12369SOL    HW137451   7.623   4.523   2.660
12369SOL    HW237452   7.500   4.630   2.672
12370SOL     OW37453   7.578   5.545   3.433
12370SOL    HW137454   7.568   5.530   3.532
12370SOL    HW237455   7.492   5.581   3.397
12371SOL     OW37456   7.998   3.920   2.747
12371SOL    HW137457   7.993   3.915   2.847
12371SOL    HW237458   8.000   4.016   2.718
12372SOL     OW37459   7.799   5.525   2.715
12372SOL    HW137460   7.849   5.439   2.721
12372SOL    HW237461   7.864   5.602   2.712
12373SOL     OW37462   7.769   4.667   2.104
12373SOL    HW137463   7.851   4.706   2.062
12373SOL    HW237464   7.742   4.585   2.055
12374SOL     OW37465   7.909   4.990   3.589
12374SOL    HW137466   7.859   4.991   3.503
12374SOL    HW237467   7.846   4.972   3.665
12375SOL     OW37468   7.650   4.009   3.360
12375SOL    HW137469   7.570   4.069   3.347
12375SOL    HW237470   7.640   3.960   3.446
12376SOL     OW37471   7.697   5.509   3.103
12376SOL    HW137472   7.754   5.444   3.153
12376SOL    HW237473   7.681   5.476   3.010
12377SOL     OW37474   7.830   4.424   2.342
12377SOL    HW137475   7.875   4.334   2.339
12377SOL    HW237476   7.736   4.413   2.375
12378SOL     OW37477   7.987   3.788   2.374
12378SOL    HW137478   7.906   3.789   2.432
12378SOL    HW237479   7.990   3.871   2.319
12379SOL     OW37480   7.745   3.759   2.033
12379SOL    HW137481   7.794   3.843   2.012
12379SOL    HW237482   7.807   3.694   2.078
12380SOL     OW37483   7.907   4.876   2.603
12380SOL    HW137484   7.836   4.849   2.668
12380SOL    HW237485   7.881   4.848   2.510
12381SOL     OW37486   7.526   4.280   3.248
12381SOL    HW137487   7.618   4.279   3.207
12381SOL    HW237488   7.520   4.354   3.315
12382SOL     OW37489   8.009   3.946   3.009
12382SOL    HW137490   8.047   3.862   3.046
12382SOL    HW237491   7.921   3.965   3.053
12383SOL     OW37492   7.858   4.537   3.113
12383SOL    HW137493   7.944   4.549   3.163
12383SOL    HW237494   7.816   4.450   3.140
12384SOL     OW37495   7.512   5.288   3.193
12384SOL    HW137496   7.466   5.370   3.159
12384SOL    HW237497   7.610   5.307   3.202
12385SOL     OW37498   7.815   4.824   2.363
12385SOL    HW137499   7.808   4.907   2.307
12385SOL    HW237500   7.819   4.744   2.303
12386SOL     OW37501   8.014   4.261   2.727
12386SOL    HW137502   8.026   4.327   2.653
12386SOL    HW237503   8.060   4.295   2.810
12387SOL     OW37504   7.802   5.234   3.191
12387SOL    HW137505   7.781   5.190   3.104
12387SOL    HW237506   7.899   5.260   3.194
12388SOL     OW37507   7.850   4.475   3.460
12388SOL    HW137508   7.918   4.530   3.413
12388SOL    HW237509   7.890   4.387   3.487
12389SOL     OW37510   7.952   3.774   3.602
12389SOL    HW137511   7.910   3.717   3.532
12389SOL    HW237512   7.886   3.843   3.634
12390SOL     OW37513   8.021   4.594   2.891
12390SOL    HW137514   8.065   4.683   2.882
12390SOL    HW237515   7.958   4.594   2.968
12391SOL     OW37516   7.755   3.937   3.093
12391SOL    HW137517   7.732   3.974   3.183
12391SOL    HW237518   7.725   3.842   3.087
12392SOL     OW37519   7.485   5.034   3.144
12392SOL    HW137520   7.538   4.985   3.212
12392SOL    HW237521   7.507   5.132   3.149
12393SOL     OW37522   7.755   3.787   2.480
12393SOL    HW137523   7.744   3.881   2.513
12393SOL    HW237524   7.750   3.724   2.557
12394SOL     OW37525   7.798   4.622   3.666
12394SOL    HW137526   7.874   4.666   3.714
12394SOL    HW237527   7.833   4.575   3.584
12395SOL     OW37528   7.767   4.534   2.811
12395SOL    HW137529   7.860   4.570   2.816
12395SOL    HW237530   7.761   4.449   2.863
12396SOL     OW37531   7.787   4.233   2.868
12396SOL    HW137532   7.735   4.150   2.851
12396SOL    HW237533   7.864   4.238   2.804
12397SOL     OW37534   7.456   5.050   2.062
12397SOL    HW137535   7.363   5.071   2.031
12397SOL    HW237536   7.466   4.951   2.075
12398SOL     OW37537   7.536   5.525   2.789
12398SOL    HW137538   7.494   5.439   2.762
12398SOL    HW237539   7.630   5.528   2.755
12399SOL     OW37540   7.488   4.268   2.976
12399SOL    HW137541   7.573   4.235   2.935
12399SOL    HW237542   7.501   4.283   3.074
12400SOL     OW37543   7.637   4.244   3.584
12400SOL    HW137544   7.696   4.204   3.514
12400SOL    HW237545   7.579   4.315   3.543
12401SOL     OW37546   7.700   5.288   3.606
12401SOL    HW137547   7.670   5.345   3.682
12401SOL    HW237548   7.693   5.191   3.632
12402SOL     OW37549   7.921   4.224   2.053
12402SOL    HW137550   7.982   4.304   2.057
12402SOL    HW237551   7.826   4.255   2.060
12403SOL     OW37552   7.607   4.861   3.328
12403SOL    HW137553   7.629   4.800   3.404
12403SOL    HW237554   7.617   4.812   3.242
12404SOL     OW37555   7.531   4.982   2.884
12404SOL    HW137556   7.526   4.981   2.984
12404SOL    HW237557   7.448   4.941   2.846
12405SOL     OW37558   7.578   5.518   3.713
12405SOL    HW137559   7.537   5.444   3.766
12405SOL    HW237560   7.642   5.569   3.771
12406SOL     OW37561   7.711   4.050   2.582
12406SOL    HW137562   7.632   4.101   2.548
12406SOL    HW237563   7.702   4.035   2.680
12407SOL     OW37564   7.820   5.012   3.352
12407SOL    HW137565   7.807   5.105   3.318
12407SOL    HW237566   7.736   4.960   3.339
12408SOL     OW37567   8.038   5.211   2.353
12408SOL    HW137568   8.080   5.153   2.283
12408SOL    HW237569   7.994   5.290   2.309
12409SOL     OW37570   7.703   5.072   2.152
12409SOL    HW137571   7.607   5.073   2.125
12409SOL    HW237572   7.715   5.125   2.236
12410SOL     OW37573   7.553   4.737   3.588
12410SOL    HW137574   7.476   4.704   3.642
12410SOL    HW237575   7.638   4.707   3.630
12411SOL     OW37576   7.523   4.069   1.895
12411SOL    HW137577   7.431   4.041   1.866
12411SOL    HW237578   7.554   4.146   1.839
12412SOL     OW37579   7.520   3.890   2.180
12412SOL    HW137580   7.503   3.973   2.126
12412SOL    HW237581   7.610   3.853   2.158
12413SOL     OW37582   7.838   5.465   3.422
12413SOL    HW137583   7.747   5.506   3.420
12413SOL    HW237584   7.831   5.371   3.454
12414SOL     OW37585   7.669   5.038   3.706
12414SOL    HW137586   7.604   4.965   3.685
12414SOL    HW237587   7.673   5.052   3.804
12415SOL     OW37588   7.527   4.964   2.515
12415SOL    HW137589   7.526   4.917   2.603
12415SOL    HW237590   7.609   4.936   2.464
12416SOL     OW37591   8.120   5.115   3.486
12416SOL    HW137592   8.042   5.065   3.524
12416SOL    HW237593   8.117   5.210   3.517
12417SOL     OW37594   7.765   4.271   3.142
12417SOL    HW137595   7.803   4.212   3.214
12417SOL    HW237596   7.805   4.245   3.054
12418SOL     OW37597   7.487   4.801   2.162
12418SOL    HW137598   7.586   4.790   2.153
12418SOL    HW237599   7.447   4.715   2.194
12419SOL     OW37600   7.678   4.352   3.837
12419SOL    HW137601   7.585   4.350   3.874
12419SOL    HW237602   7.679   4.313   3.745
12420SOL     OW37603   7.673   3.999   4.720
12420SOL    HW137604   7.708   3.982   4.812
12420SOL    HW237605   7.585   3.954   4.708
12421SOL     OW37606   7.467   4.092   4.371
12421SOL    HW137607   7.385   4.135   4.410
12421SOL    HW237608   7.439   4.019   4.308
12422SOL     OW37609   7.783   5.159   4.785
12422SOL    HW137610   7.705   5.128   4.732
12422SOL    HW237611   7.841   5.217   4.728
12423SOL     OW37612   7.886   4.116   5.223
12423SOL    HW137613   7.968   4.060   5.232
12423SOL    HW237614   7.805   4.058   5.227
12424SOL     OW37615   7.679   5.437   4.207
12424SOL    HW137616   7.713   5.514   4.261
12424SOL    HW237617   7.723   5.437   4.117
12425SOL     OW37618   7.678   5.158   4.262
12425SOL    HW137619   7.652   5.254   4.262
12425SOL    HW237620   7.607   5.104   4.307
12426SOL     OW37621   7.688   4.815   4.610
12426SOL    HW137622   7.702   4.731   4.662
12426SOL    HW237623   7.633   4.879   4.665
12427SOL     OW37624   7.570   4.367   4.287
12427SOL    HW137625   7.525   4.279   4.304
12427SOL    HW237626   7.569   4.421   4.371
12428SOL     OW37627   7.475   5.320   3.841
12428SOL    HW137628   7.456   5.224   3.862
12428SOL    HW237629   7.442   5.378   3.916
12429SOL     OW37630   7.561   4.461   5.321
12429SOL    HW137631   7.649   4.448   5.366
12429SOL    HW237632   7.548   4.558   5.299
12430SOL     OW37633   7.645   4.700   4.988
12430SOL    HW137634   7.734   4.655   4.974
12430SOL    HW237635   7.572   4.635   4.969
12431SOL     OW37636   7.765   3.975   5.525
12431SOL    HW137637   7.836   4.046   5.531
12431SOL    HW237638   7.677   4.014   5.553
12432SOL     OW37639   8.046   4.453   3.994
12432SOL    HW137640   8.070   4.522   3.926
12432SOL    HW237641   7.968   4.486   4.048
12433SOL     OW37642   7.524   4.535   4.513
12433SOL    HW137643   7.623   4.523   4.522
12433SOL    HW237644   7.500   4.630   4.534
12434SOL     OW37645   7.578   5.545   5.295
12434SOL    HW137646   7.568   5.530   5.394
12434SOL    HW237647   7.492   5.581   5.259
12435SOL     OW37648   7.998   3.920   4.609
12435SOL    HW137649   7.993   3.915   4.709
12435SOL    HW237650   8.000   4.016   4.580
12436SOL     OW37651   7.799   5.525   4.577
12436SOL    HW137652   7.849   5.439   4.583
12436SOL    HW237653   7.864   5.602   4.574
12437SOL     OW37654   7.769   4.667   3.966
12437SOL    HW137655   7.851   4.706   3.924
12437SOL    HW237656   7.742   4.585   3.917
12438SOL     OW37657   7.909   4.990   5.451
12438SOL    HW137658   7.859   4.991   5.365
12438SOL    HW237659   7.846   4.972   5.527
12439SOL     OW37660   7.650   4.009   5.222
12439SOL    HW137661   7.570   4.069   5.209
12439SOL    HW237662   7.640   3.960   5.308
12440SOL     OW37663   7.697   5.509   4.965
12440SOL    HW137664   7.754   5.444   5.015
12440SOL    HW237665   7.681   5.476   4.872
12441SOL     OW37666   7.830   4.424   4.204
12441SOL    HW137667   7.875   4.334   4.201
12441SOL    HW237668   7.736   4.413   4.237
12442SOL     OW37669   7.987   3.788   4.236
12442SOL    HW137670   7.906   3.789   4.294
12442SOL    HW237671   7.990   3.871   4.181
12443SOL     OW37672   7.745   3.759   3.895
12443SOL    HW137673   7.794   3.843   3.874
12443SOL    HW237674   7.807   3.694   3.940
12444SOL     OW37675   7.907   4.876   4.465
12444SOL    HW137676   7.836   4.849   4.530
12444SOL    HW237677   7.881   4.848   4.372
12445SOL     OW37678   7.526   4.280   5.110
12445SOL    HW137679   7.618   4.279   5.069
12445SOL    HW237680   7.520   4.354   5.177
12446SOL     OW37681   8.009   3.946   4.871
12446SOL    HW137682   8.047   3.862   4.908
12446SOL    HW237683   7.921   3.965   4.915
12447SOL     OW37684   7.858   4.537   4.975
12447SOL    HW137685   7.944   4.549   5.025
12447SOL    HW237686   7.816   4.450   5.002
12448SOL     OW37687   7.512   5.288   5.055
12448SOL    HW137688   7.466   5.370   5.021
12448SOL    HW237689   7.610   5.307   5.064
12449SOL     OW37690   7.815   4.824   4.225
12449SOL    HW137691   7.808   4.907   4.169
12449SOL    HW237692   7.819   4.744   4.165
12450SOL     OW37693   8.014   4.261   4.589
12450SOL    HW137694   8.026   4.327   4.515
12450SOL    HW237695   8.060   4.295   4.672
12451SOL     OW37696   7.802   5.234   5.053
12451SOL    HW137697   7.781   5.190   4.966
12451SOL    HW237698   7.899   5.260   5.056
12452SOL     OW37699   7.850   4.475   5.322
12452SOL    HW137700   7.918   4.530   5.275
12452SOL    HW237701   7.890   4.387   5.349
12453SOL     OW37702   7.952   3.774   5.464
12453SOL    HW137703   7.910   3.717   5.394
12453SOL    HW237704   7.886   3.843   5.496
12454SOL     OW37705   8.021   4.594   4.753
12454SOL    HW137706   8.065   4.683   4.744
12454SOL    HW237707   7.958   4.594   4.830
12455SOL     OW37708   7.755   3.937   4.955
12455SOL    HW137709   7.732   3.974   5.045
12455SOL    HW237710   7.725   3.842   4.949
12456SOL     OW37711   7.485   5.034   5.006
12456SOL    HW137712   7.538   4.985   5.074
12456SOL    HW237713   7.507   5.132   5.011
12457SOL     OW37714   7.755   3.787   4.342
12457SOL    HW137715   7.744   3.881   4.375
12457SOL    HW237716   7.750   3.724   4.419
12458SOL     OW37717   7.798   4.622   5.528
12458SOL    HW137718   7.874   4.666   5.576
12458SOL    HW237719   7.833   4.575   5.446
12459SOL     OW37720   7.767   4.534   4.673
12459SOL    HW137721   7.860   4.570   4.678
12459SOL    HW237722   7.761   4.449   4.725
12460SOL     OW37723   7.787   4.233   4.730
12460SOL    HW137724   7.735   4.150   4.713
12460SOL    HW237725   7.864   4.238   4.666
12461SOL     OW37726   7.456   5.050   3.924
12461SOL    HW137727   7.363   5.071   3.893
12461SOL    HW237728   7.466   4.951   3.937
12462SOL     OW37729   7.536   5.525   4.651
12462SOL    HW137730   7.494   5.439   4.624
12462SOL    HW237731   7.630   5.528   4.617
12463SOL     OW37732   7.488   4.268   4.838
12463SOL    HW137733   7.573   4.235   4.797
12463SOL    HW237734   7.501   4.283   4.936
12464SOL     OW37735   7.637   4.244   5.446
12464SOL    HW137736   7.696   4.204   5.376
12464SOL    HW237737   7.579   4.315   5.405
12465SOL     OW37738   7.700   5.288   5.468
12465SOL    HW137739   7.670   5.345   5.544
12465SOL    HW237740   7.693   5.191   5.494
12466SOL     OW37741   7.921   4.224   3.915
12466SOL    HW137742   7.982   4.304   3.919
12466SOL    HW237743   7.826   4.255   3.922
12467SOL     OW37744   7.607   4.861   5.190
12467SOL    HW137745   7.629   4.800   5.266
12467SOL    HW237746   7.617   4.812   5.104
12468SOL     OW37747   7.531   4.982   4.746
12468SOL    HW137748   7.526   4.981   4.846
12468SOL    HW237749   7.448   4.941   4.708
12469SOL     OW37750   7.578   5.518   5.575
12469SOL    HW137751   7.537   5.444   5.628
12469SOL    HW237752   7.642   5.569   5.633
12470SOL     OW37753   7.711   4.050   4.444
12470SOL    HW137754   7.632   4.101   4.410
12470SOL    HW237755   7.702   4.035   4.542
12471SOL     OW37756   7.820   5.012   5.214
12471SOL    HW137757   7.807   5.105   5.180
12471SOL    HW237758   7.736   4.960   5.201
12472SOL     OW37759   8.038   5.211   4.215
12472SOL    HW137760   8.080   5.153   4.145
12472SOL    HW237761   7.994   5.290   4.171
12473SOL     OW37762   7.703   5.072   4.014
12473SOL    HW137763   7.607   5.073   3.987
12473SOL    HW237764   7.715   5.125   4.098
12474SOL     OW37765   7.553   4.737   5.450
12474SOL    HW137766   7.476   4.704   5.504
12474SOL    HW237767   7.638   4.707   5.492
12475SOL     OW37768   7.523   4.069   3.757
12475SOL    HW137769   7.431   4.041   3.728
12475SOL    HW237770   7.554   4.146   3.701
12476SOL     OW37771   7.520   3.890   4.042
12476SOL    HW137772   7.503   3.973   3.988
12476SOL    HW237773   7.610   3.853   4.020
12477SOL     OW37774   7.838   5.465   5.284
12477SOL    HW137775   7.747   5.506   5.282
12477SOL    HW237776   7.831   5.371   5.316
12478SOL     OW37777   7.669   5.038   5.568
12478SOL    HW137778   7.604   4.965   5.547
12478SOL    HW237779   7.673   5.052   5.666
12479SOL     OW37780   7.527   4.964   4.377
12479SOL    HW137781   7.526   4.917   4.465
12479SOL    HW237782   7.609   4.936   4.326
12480SOL     OW37783   8.120   5.115   5.348
12480SOL    HW137784   8.042   5.065   5.386
12480SOL    HW237785   8.117   5.210   5.379
12481SOL     OW37786   7.765   4.271   5.004
12481SOL    HW137787   7.803   4.212   5.076
12481SOL    HW237788   7.805   4.245   4.916
12482SOL     OW37789   7.487   4.801   4.024
12482SOL    HW137790   7.586   4.790   4.015
12482SOL    HW237791   7.447   4.715   4.056
12483SOL     OW37792   7.678   4.352   5.699
12483SOL    HW137793   7.585   4.350   5.736
12483SOL    HW237794   7.679   4.313   5.607
12484SOL     OW37795   7.467   4.092   6.233
12484SOL    HW137796   7.385   4.135   6.272
12484SOL    HW237797   7.439   4.019   6.170
12485SOL     OW37798   7.679   5.437   6.069
12485SOL    HW137799   7.713   5.514   6.123
12485SOL    HW237800   7.723   5.437   5.979
12486SOL     OW37801   7.678   5.158   6.124
12486SOL    HW137802   7.652   5.254   6.124
12486SOL    HW237803   7.607   5.104   6.169
12487SOL     OW37804   7.570   4.367   6.149
12487SOL    HW137805   7.525   4.279   6.166
12487SOL    HW237806   7.569   4.421   6.233
12488SOL     OW37807   7.475   5.320   5.703
12488SOL    HW137808   7.456   5.224   5.724
12488SOL    HW237809   7.442   5.378   5.778
12489SOL     OW37810   8.046   4.453   5.856
12489SOL    HW137811   8.070   4.522   5.788
12489SOL    HW237812   7.968   4.486   5.910
12490SOL     OW37813   7.524   4.535   6.375
12490SOL    HW137814   7.623   4.523   6.384
12490SOL    HW237815   7.500   4.630   6.396
12491SOL     OW37816   7.799   5.525   6.439
12491SOL    HW137817   7.849   5.439   6.445
12491SOL    HW237818   7.864   5.602   6.436
12492SOL     OW37819   7.769   4.667   5.828
12492SOL    HW137820   7.851   4.706   5.786
12492SOL    HW237821   7.742   4.585   5.779
12493SOL     OW37822   7.830   4.424   6.066
12493SOL    HW137823   7.875   4.334   6.063
12493SOL    HW237824   7.736   4.413   6.099
12494SOL     OW37825   7.987   3.788   6.098
12494SOL    HW137826   7.906   3.789   6.156
12494SOL    HW237827   7.990   3.871   6.043
12495SOL     OW37828   7.745   3.759   5.757
12495SOL    HW137829   7.794   3.843   5.736
12495SOL    HW237830   7.807   3.694   5.802
12496SOL     OW37831   7.907   4.876   6.327
12496SOL    HW137832   7.836   4.849   6.392
12496SOL    HW237833   7.881   4.848   6.234
12497SOL     OW37834   8.009   3.946   6.733
12497SOL    HW137835   8.047   3.862   6.770
12497SOL    HW237836   7.921   3.965   6.777
12498SOL     OW37837   7.815   4.824   6.087
12498SOL    HW137838   7.808   4.907   6.031
12498SOL    HW237839   7.819   4.744   6.027
12499SOL     OW37840   8.014   4.261   6.451
12499SOL    HW137841   8.026   4.327   6.377
12499SOL    HW237842   8.060   4.295   6.534
12500SOL     OW37843   8.021   4.594   6.615
12500SOL    HW137844   8.065   4.683   6.606
12500SOL    HW237845   7.958   4.594   6.692
12501SOL     OW37846   7.755   3.787   6.204
12501SOL    HW137847   7.744   3.881   6.237
12501SOL    HW237848   7.750   3.724   6.281
12502SOL     OW37849   7.767   4.534   6.535
12502SOL    HW137850   7.860   4.570   6.540
12502SOL    HW237851   7.761   4.449   6.587
12503SOL     OW37852   7.787   4.233   6.592
12503SOL    HW137853   7.735   4.150   6.575
12503SOL    HW237854   7.864   4.238   6.528
12504SOL     OW37855   7.456   5.050   5.786
12504SOL    HW137856   7.363   5.071   5.755
12504SOL    HW237857   7.466   4.951   5.799
12505SOL     OW37858   7.536   5.525   6.513
12505SOL    HW137859   7.494   5.439   6.486
12505SOL    HW237860   7.630   5.528   6.479
12506SOL     OW37861   7.921   4.224   5.777
12506SOL    HW137862   7.982   4.304   5.781
12506SOL    HW237863   7.826   4.255   5.784
12507SOL     OW37864   7.531   4.982   6.608
12507SOL    HW137865   7.526   4.981   6.708
12507SOL    HW237866   7.448   4.941   6.570
12508SOL     OW37867   7.711   4.050   6.306
12508SOL    HW137868   7.632   4.101   6.272
12508SOL    HW237869   7.702   4.035   6.404
12509SOL     OW37870   8.038   5.211   6.077
12509SOL    HW137871   8.080   5.153   6.007
12509SOL    HW237872   7.994   5.290   6.033
12510SOL     OW37873   7.703   5.072   5.876
12510SOL    HW137874   7.607   5.073   5.849
12510SOL    HW237875   7.715   5.125   5.960
12511SOL     OW37876   7.523   4.069   5.619
12511SOL    HW137877   7.431   4.041   5.590
12511SOL    HW237878   7.554   4.146   5.563
12512SOL     OW37879   7.520   3.890   5.904
12512SOL    HW137880   7.503   3.973   5.850
12512SOL    HW237881   7.610   3.853   5.882
12513SOL     OW37882   7.527   4.964   6.239
12513SOL    HW137883   7.526   4.917   6.327
12513SOL    HW237884   7.609   4.936   6.188
12514SOL     OW37885   7.765   4.271   6.866
12514SOL    HW137886   7.803   4.212   6.938
12514SOL    HW237887   7.805   4.245   6.778
12515SOL     OW37888   7.487   4.801   5.886
12515SOL    HW137889   7.586   4.790   5.877
12515SOL    HW237890   7.447   4.715   5.918
12516SOL     OW37891   7.673   5.861   0.996
12516SOL    HW137892   7.708   5.844   1.088
12516SOL    HW237893   7.585   5.816   0.984
12517SOL     OW37894   7.467   5.954   0.647
12517SOL    HW137895   7.385   5.997   0.686
12517SOL    HW237896   7.439   5.881   0.584
12518SOL     OW37897   7.783   7.021   1.061
12518SOL    HW137898   7.705   6.990   1.008
12518SOL    HW237899   7.841   7.079   1.004
12519SOL     OW37900   7.886   5.978   1.499
12519SOL    HW137901   7.968   5.922   1.508
12519SOL    HW237902   7.805   5.920   1.503
12520SOL     OW37903   7.679   7.299   0.483
12520SOL    HW137904   7.713   7.376   0.537
12520SOL    HW237905   7.723   7.299   0.393
12521SOL     OW37906   7.678   7.020   0.538
12521SOL    HW137907   7.652   7.116   0.538
12521SOL    HW237908   7.607   6.966   0.583
12522SOL     OW37909   7.688   6.677   0.886
12522SOL    HW137910   7.702   6.593   0.938
12522SOL    HW237911   7.633   6.741   0.941
12523SOL     OW37912   7.570   6.229   0.563
12523SOL    HW137913   7.525   6.141   0.580
12523SOL    HW237914   7.569   6.283   0.647
12524SOL     OW37915   7.561   6.323   1.597
12524SOL    HW137916   7.649   6.310   1.642
12524SOL    HW237917   7.548   6.420   1.575
12525SOL     OW37918   7.645   6.562   1.264
12525SOL    HW137919   7.734   6.517   1.250
12525SOL    HW237920   7.572   6.497   1.245
12526SOL     OW37921   7.765   5.837   1.801
12526SOL    HW137922   7.836   5.908   1.807
12526SOL    HW237923   7.677   5.876   1.829
12527SOL     OW37924   8.046   6.315   0.270
12527SOL    HW137925   8.070   6.384   0.202
12527SOL    HW237926   7.968   6.348   0.324
12528SOL     OW37927   7.524   6.397   0.789
12528SOL    HW137928   7.623   6.385   0.798
12528SOL    HW237929   7.500   6.492   0.810
12529SOL     OW37930   7.578   7.407   1.571
12529SOL    HW137931   7.568   7.392   1.670
12529SOL    HW237932   7.492   7.443   1.535
12530SOL     OW37933   7.998   5.782   0.885
12530SOL    HW137934   7.993   5.777   0.985
12530SOL    HW237935   8.000   5.878   0.856
12531SOL     OW37936   7.799   7.387   0.853
12531SOL    HW137937   7.849   7.301   0.859
12531SOL    HW237938   7.864   7.464   0.850
12532SOL     OW37939   7.909   6.852   1.727
12532SOL    HW137940   7.859   6.853   1.641
12532SOL    HW237941   7.846   6.834   1.803
12533SOL     OW37942   7.650   5.871   1.498
12533SOL    HW137943   7.570   5.931   1.485
12533SOL    HW237944   7.640   5.822   1.584
12534SOL     OW37945   7.697   7.371   1.241
12534SOL    HW137946   7.754   7.306   1.291
12534SOL    HW237947   7.681   7.338   1.148
12535SOL     OW37948   7.830   6.286   0.480
12535SOL    HW137949   7.875   6.196   0.477
12535SOL    HW237950   7.736   6.275   0.513
12536SOL     OW37951   7.987   5.650   0.512
12536SOL    HW137952   7.906   5.651   0.570
12536SOL    HW237953   7.990   5.733   0.457
12537SOL     OW37954   7.907   6.738   0.741
12537SOL    HW137955   7.836   6.711   0.806
12537SOL    HW237956   7.881   6.710   0.648
12538SOL     OW37957   7.526   6.142   1.386
12538SOL    HW137958   7.618   6.141   1.345
12538SOL    HW237959   7.520   6.216   1.453
12539SOL     OW37960   8.009   5.808   1.147
12539SOL    HW137961   8.047   5.724   1.184
12539SOL    HW237962   7.921   5.827   1.191
12540SOL     OW37963   7.858   6.399   1.251
12540SOL    HW137964   7.944   6.411   1.301
12540SOL    HW237965   7.816   6.312   1.278
12541SOL     OW37966   7.512   7.150   1.331
12541SOL    HW137967   7.466   7.232   1.297
12541SOL    HW237968   7.610   7.169   1.340
12542SOL     OW37969   7.815   6.686   0.501
12542SOL    HW137970   7.808   6.769   0.445
12542SOL    HW237971   7.819   6.606   0.441
12543SOL     OW37972   8.014   6.123   0.865
12543SOL    HW137973   8.026   6.189   0.791
12543SOL    HW237974   8.060   6.157   0.948
12544SOL     OW37975   7.802   7.096   1.329
12544SOL    HW137976   7.781   7.052   1.242
12544SOL    HW237977   7.899   7.122   1.332
12545SOL     OW37978   7.850   6.337   1.598
12545SOL    HW137979   7.918   6.392   1.551
12545SOL    HW237980   7.890   6.249   1.625
12546SOL     OW37981   7.952   5.636   1.740
12546SOL    HW137982   7.910   5.579   1.670
12546SOL    HW237983   7.886   5.705   1.772
12547SOL     OW37984   8.021   6.456   1.029
12547SOL    HW137985   8.065   6.545   1.020
12547SOL    HW237986   7.958   6.456   1.106
12548SOL     OW37987   7.755   5.799   1.231
12548SOL    HW137988   7.732   5.836   1.321
12548SOL    HW237989   7.725   5.704   1.225
12549SOL     OW37990   7.485   6.896   1.282
12549SOL    HW137991   7.538   6.847   1.350
12549SOL    HW237992   7.507   6.994   1.287
12550SOL     OW37993   7.755   5.649   0.618
12550SOL    HW137994   7.744   5.743   0.651
12550SOL    HW237995   7.750   5.586   0.695
12551SOL     OW37996   7.798   6.484   1.804
12551SOL    HW137997   7.874   6.528   1.852
12551SOL    HW237998   7.833   6.437   1.722
12552SOL     OW37999   7.767   6.396   0.949
12552SOL    HW138000   7.860   6.432   0.954
12552SOL    HW238001   7.761   6.311   1.001
12553SOL     OW38002   7.787   6.095   1.006
12553SOL    HW138003   7.735   6.012   0.989
12553SOL    HW238004   7.864   6.100   0.942
12554SOL     OW38005   7.536   7.387   0.927
12554SOL    HW138006   7.494   7.301   0.900
12554SOL    HW238007   7.630   7.390   0.893
12555SOL     OW38008   7.488   6.130   1.114
12555SOL    HW138009   7.573   6.097   1.073
12555SOL    HW238010   7.501   6.145   1.212
12556SOL     OW38011   7.637   6.106   1.722
12556SOL    HW138012   7.696   6.066   1.652
12556SOL    HW238013   7.579   6.177   1.681
12557SOL     OW38014   7.700   7.150   1.744
12557SOL    HW138015   7.670   7.207   1.820
12557SOL    HW238016   7.693   7.053   1.770
12558SOL     OW38017   7.607   6.723   1.466
12558SOL    HW138018   7.629   6.662   1.542
12558SOL    HW238019   7.617   6.674   1.380
12559SOL     OW38020   7.531   6.844   1.022
12559SOL    HW138021   7.526   6.843   1.122
12559SOL    HW238022   7.448   6.803   0.984
12560SOL     OW38023   7.578   7.380   1.851
12560SOL    HW138024   7.537   7.306   1.904
12560SOL    HW238025   7.642   7.431   1.909
12561SOL     OW38026   7.711   5.912   0.720
12561SOL    HW138027   7.632   5.963   0.686
12561SOL    HW238028   7.702   5.897   0.818
12562SOL     OW38029   7.820   6.874   1.490
12562SOL    HW138030   7.807   6.967   1.456
12562SOL    HW238031   7.736   6.822   1.477
12563SOL     OW38032   8.038   7.073   0.491
12563SOL    HW138033   8.080   7.015   0.421
12563SOL    HW238034   7.994   7.152   0.447
12564SOL     OW38035   7.553   6.599   1.726
12564SOL    HW138036   7.476   6.566   1.780
12564SOL    HW238037   7.638   6.569   1.768
12565SOL     OW38038   7.838   7.327   1.560
12565SOL    HW138039   7.747   7.368   1.558
12565SOL    HW238040   7.831   7.233   1.592
12566SOL     OW38041   7.669   6.900   1.844
12566SOL    HW138042   7.604   6.827   1.823
12566SOL    HW238043   7.673   6.914   1.942
12567SOL     OW38044   7.527   6.826   0.653
12567SOL    HW138045   7.526   6.779   0.741
12567SOL    HW238046   7.609   6.798   0.602
12568SOL     OW38047   8.120   6.977   1.624
12568SOL    HW138048   8.042   6.927   1.662
12568SOL    HW238049   8.117   7.072   1.655
12569SOL     OW38050   7.765   6.133   1.280
12569SOL    HW138051   7.803   6.074   1.352
12569SOL    HW238052   7.805   6.107   1.192
12570SOL     OW38053   7.487   6.663   0.300
12570SOL    HW138054   7.586   6.652   0.291
12570SOL    HW238055   7.447   6.577   0.332
12571SOL     OW38056   7.678   6.214   1.975
12571SOL    HW138057   7.585   6.212   2.012
12571SOL    HW238058   7.679   6.175   1.883
12572SOL     OW38059   7.673   5.861   2.858
12572SOL    HW138060   7.708   5.844   2.950
12572SOL    HW238061   7.585   5.816   2.846
12573SOL     OW38062   7.467   5.954   2.509
12573SOL    HW138063   7.385   5.997   2.548
12573SOL    HW238064   7.439   5.881   2.446
12574SOL     OW38065   7.783   7.021   2.923
12574SOL    HW138066   7.705   6.990   2.870
12574SOL    HW238067   7.841   7.079   2.866
12575SOL     OW38068   7.886   5.978   3.361
12575SOL    HW138069   7.968   5.922   3.370
12575SOL    HW238070   7.805   5.920   3.365
12576SOL     OW38071   7.679   7.299   2.345
12576SOL    HW138072   7.713   7.376   2.399
12576SOL    HW238073   7.723   7.299   2.255
12577SOL     OW38074   7.678   7.020   2.400
12577SOL    HW138075   7.652   7.116   2.400
12577SOL    HW238076   7.607   6.966   2.445
12578SOL     OW38077   7.688   6.677   2.748
12578SOL    HW138078   7.702   6.593   2.800
12578SOL    HW238079   7.633   6.741   2.803
12579SOL     OW38080   7.570   6.229   2.425
12579SOL    HW138081   7.525   6.141   2.442
12579SOL    HW238082   7.569   6.283   2.509
12580SOL     OW38083   7.475   7.182   1.979
12580SOL    HW138084   7.456   7.086   2.000
12580SOL    HW238085   7.442   7.240   2.054
12581SOL     OW38086   7.561   6.323   3.459
12581SOL    HW138087   7.649   6.310   3.504
12581SOL    HW238088   7.548   6.420   3.437
12582SOL     OW38089   7.645   6.562   3.126
12582SOL    HW138090   7.734   6.517   3.112
12582SOL    HW238091   7.572   6.497   3.107
12583SOL     OW38092   7.765   5.837   3.663
12583SOL    HW138093   7.836   5.908   3.669
12583SOL    HW238094   7.677   5.876   3.691
12584SOL     OW38095   8.046   6.315   2.132
12584SOL    HW138096   8.070   6.384   2.064
12584SOL    HW238097   7.968   6.348   2.186
12585SOL     OW38098   7.524   6.397   2.651
12585SOL    HW138099   7.623   6.385   2.660
12585SOL    HW238100   7.500   6.492   2.672
12586SOL     OW38101   7.578   7.407   3.433
12586SOL    HW138102   7.568   7.392   3.532
12586SOL    HW238103   7.492   7.443   3.397
12587SOL     OW38104   7.998   5.782   2.747
12587SOL    HW138105   7.993   5.777   2.847
12587SOL    HW238106   8.000   5.878   2.718
12588SOL     OW38107   7.799   7.387   2.715
12588SOL    HW138108   7.849   7.301   2.721
12588SOL    HW238109   7.864   7.464   2.712
12589SOL     OW38110   7.769   6.529   2.104
12589SOL    HW138111   7.851   6.568   2.062
12589SOL    HW238112   7.742   6.447   2.055
12590SOL     OW38113   7.909   6.852   3.589
12590SOL    HW138114   7.859   6.853   3.503
12590SOL    HW238115   7.846   6.834   3.665
12591SOL     OW38116   7.650   5.871   3.360
12591SOL    HW138117   7.570   5.931   3.347
12591SOL    HW238118   7.640   5.822   3.446
12592SOL     OW38119   7.697   7.371   3.103
12592SOL    HW138120   7.754   7.306   3.153
12592SOL    HW238121   7.681   7.338   3.010
12593SOL     OW38122   7.830   6.286   2.342
12593SOL    HW138123   7.875   6.196   2.339
12593SOL    HW238124   7.736   6.275   2.375
12594SOL     OW38125   7.987   5.650   2.374
12594SOL    HW138126   7.906   5.651   2.432
12594SOL    HW238127   7.990   5.733   2.319
12595SOL     OW38128   7.745   5.621   2.033
12595SOL    HW138129   7.794   5.705   2.012
12595SOL    HW238130   7.807   5.556   2.078
12596SOL     OW38131   7.907   6.738   2.603
12596SOL    HW138132   7.836   6.711   2.668
12596SOL    HW238133   7.881   6.710   2.510
12597SOL     OW38134   7.526   6.142   3.248
12597SOL    HW138135   7.618   6.141   3.207
12597SOL    HW238136   7.520   6.216   3.315
12598SOL     OW38137   8.009   5.808   3.009
12598SOL    HW138138   8.047   5.724   3.046
12598SOL    HW238139   7.921   5.827   3.053
12599SOL     OW38140   7.858   6.399   3.113
12599SOL    HW138141   7.944   6.411   3.163
12599SOL    HW238142   7.816   6.312   3.140
12600SOL     OW38143   7.512   7.150   3.193
12600SOL    HW138144   7.466   7.232   3.159
12600SOL    HW238145   7.610   7.169   3.202
12601SOL     OW38146   7.815   6.686   2.363
12601SOL    HW138147   7.808   6.769   2.307
12601SOL    HW238148   7.819   6.606   2.303
12602SOL     OW38149   8.014   6.123   2.727
12602SOL    HW138150   8.026   6.189   2.653
12602SOL    HW238151   8.060   6.157   2.810
12603SOL     OW38152   7.802   7.096   3.191
12603SOL    HW138153   7.781   7.052   3.104
12603SOL    HW238154   7.899   7.122   3.194
12604SOL     OW38155   7.850   6.337   3.460
12604SOL    HW138156   7.918   6.392   3.413
12604SOL    HW238157   7.890   6.249   3.487
12605SOL     OW38158   7.952   5.636   3.602
12605SOL    HW138159   7.910   5.579   3.532
12605SOL    HW238160   7.886   5.705   3.634
12606SOL     OW38161   8.021   6.456   2.891
12606SOL    HW138162   8.065   6.545   2.882
12606SOL    HW238163   7.958   6.456   2.968
12607SOL     OW38164   7.755   5.799   3.093
12607SOL    HW138165   7.732   5.836   3.183
12607SOL    HW238166   7.725   5.704   3.087
12608SOL     OW38167   7.485   6.896   3.144
12608SOL    HW138168   7.538   6.847   3.212
12608SOL    HW238169   7.507   6.994   3.149
12609SOL     OW38170   7.755   5.649   2.480
12609SOL    HW138171   7.744   5.743   2.513
12609SOL    HW238172   7.750   5.586   2.557
12610SOL     OW38173   7.798   6.484   3.666
12610SOL    HW138174   7.874   6.528   3.714
12610SOL    HW238175   7.833   6.437   3.584
12611SOL     OW38176   7.767   6.396   2.811
12611SOL    HW138177   7.860   6.432   2.816
12611SOL    HW238178   7.761   6.311   2.863
12612SOL     OW38179   7.787   6.095   2.868
12612SOL    HW138180   7.735   6.012   2.851
12612SOL    HW238181   7.864   6.100   2.804
12613SOL     OW38182   7.456   6.912   2.062
12613SOL    HW138183   7.363   6.933   2.031
12613SOL    HW238184   7.466   6.813   2.075
12614SOL     OW38185   7.536   7.387   2.789
12614SOL    HW138186   7.494   7.301   2.762
12614SOL    HW238187   7.630   7.390   2.755
12615SOL     OW38188   7.488   6.130   2.976
12615SOL    HW138189   7.573   6.097   2.935
12615SOL    HW238190   7.501   6.145   3.074
12616SOL     OW38191   7.637   6.106   3.584
12616SOL    HW138192   7.696   6.066   3.514
12616SOL    HW238193   7.579   6.177   3.543
12617SOL     OW38194   7.700   7.150   3.606
12617SOL    HW138195   7.670   7.207   3.682
12617SOL    HW238196   7.693   7.053   3.632
12618SOL     OW38197   7.921   6.086   2.053
12618SOL    HW138198   7.982   6.166   2.057
12618SOL    HW238199   7.826   6.117   2.060
12619SOL     OW38200   7.607   6.723   3.328
12619SOL    HW138201   7.629   6.662   3.404
12619SOL    HW238202   7.617   6.674   3.242
12620SOL     OW38203   7.531   6.844   2.884
12620SOL    HW138204   7.526   6.843   2.984
12620SOL    HW238205   7.448   6.803   2.846
12621SOL     OW38206   7.578   7.380   3.713
12621SOL    HW138207   7.537   7.306   3.766
12621SOL    HW238208   7.642   7.431   3.771
12622SOL     OW38209   7.711   5.912   2.582
12622SOL    HW138210   7.632   5.963   2.548
12622SOL    HW238211   7.702   5.897   2.680
12623SOL     OW38212   7.820   6.874   3.352
12623SOL    HW138213   7.807   6.967   3.318
12623SOL    HW238214   7.736   6.822   3.339
12624SOL     OW38215   8.038   7.073   2.353
12624SOL    HW138216   8.080   7.015   2.283
12624SOL    HW238217   7.994   7.152   2.309
12625SOL     OW38218   7.703   6.934   2.152
12625SOL    HW138219   7.607   6.935   2.125
12625SOL    HW238220   7.715   6.987   2.236
12626SOL     OW38221   7.553   6.599   3.588
12626SOL    HW138222   7.476   6.566   3.642
12626SOL    HW238223   7.638   6.569   3.630
12627SOL     OW38224   7.523   5.931   1.895
12627SOL    HW138225   7.431   5.903   1.866
12627SOL    HW238226   7.554   6.008   1.839
12628SOL     OW38227   7.520   5.752   2.180
12628SOL    HW138228   7.503   5.835   2.126
12628SOL    HW238229   7.610   5.715   2.158
12629SOL     OW38230   7.838   7.327   3.422
12629SOL    HW138231   7.747   7.368   3.420
12629SOL    HW238232   7.831   7.233   3.454
12630SOL     OW38233   7.669   6.900   3.706
12630SOL    HW138234   7.604   6.827   3.685
12630SOL    HW238235   7.673   6.914   3.804
12631SOL     OW38236   7.527   6.826   2.515
12631SOL    HW138237   7.526   6.779   2.603
12631SOL    HW238238   7.609   6.798   2.464
12632SOL     OW38239   8.120   6.977   3.486
12632SOL    HW138240   8.042   6.927   3.524
12632SOL    HW238241   8.117   7.072   3.517
12633SOL     OW38242   7.765   6.133   3.142
12633SOL    HW138243   7.803   6.074   3.214
12633SOL    HW238244   7.805   6.107   3.054
12634SOL     OW38245   7.487   6.663   2.162
12634SOL    HW138246   7.586   6.652   2.153
12634SOL    HW238247   7.447   6.577   2.194
12635SOL     OW38248   7.678   6.214   3.837
12635SOL    HW138249   7.585   6.212   3.874
12635SOL    HW238250   7.679   6.175   3.745
12636SOL     OW38251   7.673   5.861   4.720
12636SOL    HW138252   7.708   5.844   4.812
12636SOL    HW238253   7.585   5.816   4.708
12637SOL     OW38254   7.467   5.954   4.371
12637SOL    HW138255   7.385   5.997   4.410
12637SOL    HW238256   7.439   5.881   4.308
12638SOL     OW38257   7.783   7.021   4.785
12638SOL    HW138258   7.705   6.990   4.732
12638SOL    HW238259   7.841   7.079   4.728
12639SOL     OW38260   7.886   5.978   5.223
12639SOL    HW138261   7.968   5.922   5.232
12639SOL    HW238262   7.805   5.920   5.227
12640SOL     OW38263   7.679   7.299   4.207
12640SOL    HW138264   7.713   7.376   4.261
12640SOL    HW238265   7.723   7.299   4.117
12641SOL     OW38266   7.678   7.020   4.262
12641SOL    HW138267   7.652   7.116   4.262
12641SOL    HW238268   7.607   6.966   4.307
12642SOL     OW38269   7.688   6.677   4.610
12642SOL    HW138270   7.702   6.593   4.662
12642SOL    HW238271   7.633   6.741   4.665
12643SOL     OW38272   7.570   6.229   4.287
12643SOL    HW138273   7.525   6.141   4.304
12643SOL    HW238274   7.569   6.283   4.371
12644SOL     OW38275   7.475   7.182   3.841
12644SOL    HW138276   7.456   7.086   3.862
12644SOL    HW238277   7.442   7.240   3.916
12645SOL     OW38278   7.561   6.323   5.321
12645SOL    HW138279   7.649   6.310   5.366
12645SOL    HW238280   7.548   6.420   5.299
12646SOL     OW38281   7.645   6.562   4.988
12646SOL    HW138282   7.734   6.517   4.974
12646SOL    HW238283   7.572   6.497   4.969
12647SOL     OW38284   7.765   5.837   5.525
12647SOL    HW138285   7.836   5.908   5.531
12647SOL    HW238286   7.677   5.876   5.553
12648SOL     OW38287   8.046   6.315   3.994
12648SOL    HW138288   8.070   6.384   3.926
12648SOL    HW238289   7.968   6.348   4.048
12649SOL     OW38290   7.524   6.397   4.513
12649SOL    HW138291   7.623   6.385   4.522
12649SOL    HW238292   7.500   6.492   4.534
12650SOL     OW38293   7.578   7.407   5.295
12650SOL    HW138294   7.568   7.392   5.394
12650SOL    HW238295   7.492   7.443   5.259
12651SOL     OW38296   7.998   5.782   4.609
12651SOL    HW138297   7.993   5.777   4.709
12651SOL    HW238298   8.000   5.878   4.580
12652SOL     OW38299   7.799   7.387   4.577
12652SOL    HW138300   7.849   7.301   4.583
12652SOL    HW238301   7.864   7.464   4.574
12653SOL     OW38302   7.769   6.529   3.966
12653SOL    HW138303   7.851   6.568   3.924
12653SOL    HW238304   7.742   6.447   3.917
12654SOL     OW38305   7.909   6.852   5.451
12654SOL    HW138306   7.859   6.853   5.365
12654SOL    HW238307   7.846   6.834   5.527
12655SOL     OW38308   7.650   5.871   5.222
12655SOL    HW138309   7.570   5.931   5.209
12655SOL    HW238310   7.640   5.822   5.308
12656SOL     OW38311   7.697   7.371   4.965
12656SOL    HW138312   7.754   7.306   5.015
12656SOL    HW238313   7.681   7.338   4.872
12657SOL     OW38314   7.830   6.286   4.204
12657SOL    HW138315   7.875   6.196   4.201
12657SOL    HW238316   7.736   6.275   4.237
12658SOL     OW38317   7.987   5.650   4.236
12658SOL    HW138318   7.906   5.651   4.294
12658SOL    HW238319   7.990   5.733   4.181
12659SOL     OW38320   7.745   5.621   3.895
12659SOL    HW138321   7.794   5.705   3.874
12659SOL    HW238322   7.807   5.556   3.940
12660SOL     OW38323   7.907   6.738   4.465
12660SOL    HW138324   7.836   6.711   4.530
12660SOL    HW238325   7.881   6.710   4.372
12661SOL     OW38326   7.526   6.142   5.110
12661SOL    HW138327   7.618   6.141   5.069
12661SOL    HW238328   7.520   6.216   5.177
12662SOL     OW38329   8.009   5.808   4.871
12662SOL    HW138330   8.047   5.724   4.908
12662SOL    HW238331   7.921   5.827   4.915
12663SOL     OW38332   7.858   6.399   4.975
12663SOL    HW138333   7.944   6.411   5.025
12663SOL    HW238334   7.816   6.312   5.002
12664SOL     OW38335   7.512   7.150   5.055
12664SOL    HW138336   7.466   7.232   5.021
12664SOL    HW238337   7.610   7.169   5.064
12665SOL     OW38338   7.815   6.686   4.225
12665SOL    HW138339   7.808   6.769   4.169
12665SOL    HW238340   7.819   6.606   4.165
12666SOL     OW38341   8.014   6.123   4.589
12666SOL    HW138342   8.026   6.189   4.515
12666SOL    HW238343   8.060   6.157   4.672
12667SOL     OW38344   7.802   7.096   5.053
12667SOL    HW138345   7.781   7.052   4.966
12667SOL    HW238346   7.899   7.122   5.056
12668SOL     OW38347   7.850   6.337   5.322
12668SOL    HW138348   7.918   6.392   5.275
12668SOL    HW238349   7.890   6.249   5.349
12669SOL     OW38350   7.952   5.636   5.464
12669SOL    HW138351   7.910   5.579   5.394
12669SOL    HW238352   7.886   5.705   5.496
12670SOL     OW38353   8.021   6.456   4.753
12670SOL    HW138354   8.065   6.545   4.744
12670SOL    HW238355   7.958   6.456   4.830
12671SOL     OW38356   7.755   5.799   4.955
12671SOL    HW138357   7.732   5.836   5.045
12671SOL    HW238358   7.725   5.704   4.949
12672SOL     OW38359   7.485   6.896   5.006
12672SOL    HW138360   7.538   6.847   5.074
12672SOL    HW238361   7.507   6.994   5.011
12673SOL     OW38362   7.755   5.649   4.342
12673SOL    HW138363   7.744   5.743   4.375
12673SOL    HW238364   7.750   5.586   4.419
12674SOL     OW38365   7.798   6.484   5.528
12674SOL    HW138366   7.874   6.528   5.576
12674SOL    HW238367   7.833   6.437   5.446
12675SOL     OW38368   7.767   6.396   4.673
12675SOL    HW138369   7.860   6.432   4.678
12675SOL    HW238370   7.761   6.311   4.725
12676SOL     OW38371   7.787   6.095   4.730
12676SOL    HW138372   7.735   6.012   4.713
12676SOL    HW238373   7.864   6.100   4.666
12677SOL     OW38374   7.456   6.912   3.924
12677SOL    HW138375   7.363   6.933   3.893
12677SOL    HW238376   7.466   6.813   3.937
12678SOL     OW38377   7.536   7.387   4.651
12678SOL    HW138378   7.494   7.301   4.624
12678SOL    HW238379   7.630   7.390   4.617
12679SOL     OW38380   7.488   6.130   4.838
12679SOL    HW138381   7.573   6.097   4.797
12679SOL    HW238382   7.501   6.145   4.936
12680SOL     OW38383   7.637   6.106   5.446
12680SOL    HW138384   7.696   6.066   5.376
12680SOL    HW238385   7.579   6.177   5.405
12681SOL     OW38386   7.700   7.150   5.468
12681SOL    HW138387   7.670   7.207   5.544
12681SOL    HW238388   7.693   7.053   5.494
12682SOL     OW38389   7.921   6.086   3.915
12682SOL    HW138390   7.982   6.166   3.919
12682SOL    HW238391   7.826   6.117   3.922
12683SOL     OW38392   7.607   6.723   5.190
12683SOL    HW138393   7.629   6.662   5.266
12683SOL    HW238394   7.617   6.674   5.104
12684SOL     OW38395   7.531   6.844   4.746
12684SOL    HW138396   7.526   6.843   4.846
12684SOL    HW238397   7.448   6.803   4.708
12685SOL     OW38398   7.578   7.380   5.575
12685SOL    HW138399   7.537   7.306   5.628
12685SOL    HW238400   7.642   7.431   5.633
12686SOL     OW38401   7.711   5.912   4.444
12686SOL    HW138402   7.632   5.963   4.410
12686SOL    HW238403   7.702   5.897   4.542
12687SOL     OW38404   7.820   6.874   5.214
12687SOL    HW138405   7.807   6.967   5.180
12687SOL    HW238406   7.736   6.822   5.201
12688SOL     OW38407   8.038   7.073   4.215
12688SOL    HW138408   8.080   7.015   4.145
12688SOL    HW238409   7.994   7.152   4.171
12689SOL     OW38410   7.703   6.934   4.014
12689SOL    HW138411   7.607   6.935   3.987
12689SOL    HW238412   7.715   6.987   4.098
12690SOL     OW38413   7.553   6.599   5.450
12690SOL    HW138414   7.476   6.566   5.504
12690SOL    HW238415   7.638   6.569   5.492
12691SOL     OW38416   7.523   5.931   3.757
12691SOL    HW138417   7.431   5.903   3.728
12691SOL    HW238418   7.554   6.008   3.701
12692SOL     OW38419   7.520   5.752   4.042
12692SOL    HW138420   7.503   5.835   3.988
12692SOL    HW238421   7.610   5.715   4.020
12693SOL     OW38422   7.838   7.327   5.284
12693SOL    HW138423   7.747   7.368   5.282
12693SOL    HW238424   7.831   7.233   5.316
12694SOL     OW38425   7.669   6.900   5.568
12694SOL    HW138426   7.604   6.827   5.547
12694SOL    HW238427   7.673   6.914   5.666
12695SOL     OW38428   7.527   6.826   4.377
12695SOL    HW138429   7.526   6.779   4.465
12695SOL    HW238430   7.609   6.798   4.326
12696SOL     OW38431   8.120   6.977   5.348
12696SOL    HW138432   8.042   6.927   5.386
12696SOL    HW238433   8.117   7.072   5.379
12697SOL     OW38434   7.765   6.133   5.004
12697SOL    HW138435   7.803   6.074   5.076
12697SOL    HW238436   7.805   6.107   4.916
12698SOL     OW38437   7.487   6.663   4.024
12698SOL    HW138438   7.586   6.652   4.015
12698SOL    HW238439   7.447   6.577   4.056
12699SOL     OW38440   7.678   6.214   5.699
12699SOL    HW138441   7.585   6.212   5.736
12699SOL    HW238442   7.679   6.175   5.607
12700SOL     OW38443   7.467   5.954   6.233
12700SOL    HW138444   7.385   5.997   6.272
12700SOL    HW238445   7.439   5.881   6.170
12701SOL     OW38446   7.679   7.299   6.069
12701SOL    HW138447   7.713   7.376   6.123
12701SOL    HW238448   7.723   7.299   5.979
12702SOL     OW38449   7.678   7.020   6.124
12702SOL    HW138450   7.652   7.116   6.124
12702SOL    HW238451   7.607   6.966   6.169
12703SOL     OW38452   7.570   6.229   6.149
12703SOL    HW138453   7.525   6.141   6.166
12703SOL    HW238454   7.569   6.283   6.233
12704SOL     OW38455   7.475   7.182   5.703
12704SOL    HW138456   7.456   7.086   5.724
12704SOL    HW238457   7.442   7.240   5.778
12705SOL     OW38458   8.046   6.315   5.856
12705SOL    HW138459   8.070   6.384   5.788
12705SOL    HW238460   7.968   6.348   5.910
12706SOL     OW38461   7.524   6.397   6.375
12706SOL    HW138462   7.623   6.385   6.384
12706SOL    HW238463   7.500   6.492   6.396
12707SOL     OW38464   7.799   7.387   6.439
12707SOL    HW138465   7.849   7.301   6.445
12707SOL    HW238466   7.864   7.464   6.436
12708SOL     OW38467   7.769   6.529   5.828
12708SOL    HW138468   7.851   6.568   5.786
12708SOL    HW238469   7.742   6.447   5.779
12709SOL     OW38470   7.830   6.286   6.066
12709SOL    HW138471   7.875   6.196   6.063
12709SOL    HW238472   7.736   6.275   6.099
12710SOL     OW38473   7.987   5.650   6.098
12710SOL    HW138474   7.906   5.651   6.156
12710SOL    HW238475   7.990   5.733   6.043
12711SOL     OW38476   7.745   5.621   5.757
12711SOL    HW138477   7.794   5.705   5.736
12711SOL    HW238478   7.807   5.556   5.802
12712SOL     OW38479   7.907   6.738   6.327
12712SOL    HW138480   7.836   6.711   6.392
12712SOL    HW238481   7.881   6.710   6.234
12713SOL     OW38482   8.009   5.808   6.733
12713SOL    HW138483   8.047   5.724   6.770
12713SOL    HW238484   7.921   5.827   6.777
12714SOL     OW38485   7.815   6.686   6.087
12714SOL    HW138486   7.808   6.769   6.031
12714SOL    HW238487   7.819   6.606   6.027
12715SOL     OW38488   8.014   6.123   6.451
12715SOL    HW138489   8.026   6.189   6.377
12715SOL    HW238490   8.060   6.157   6.534
12716SOL     OW38491   8.021   6.456   6.615
12716SOL    HW138492   8.065   6.545   6.606
12716SOL    HW238493   7.958   6.456   6.692
12717SOL     OW38494   7.755   5.649   6.204
12717SOL    HW138495   7.744   5.743   6.237
12717SOL    HW238496   7.750   5.586   6.281
12718SOL     OW38497   7.767   6.396   6.535
12718SOL    HW138498   7.860   6.432   6.540
12718SOL    HW238499   7.761   6.311   6.587
12719SOL     OW38500   7.787   6.095   6.592
12719SOL    HW138501   7.735   6.012   6.575
12719SOL    HW238502   7.864   6.100   6.528
12720SOL     OW38503   7.456   6.912   5.786
12720SOL    HW138504   7.363   6.933   5.755
12720SOL    HW238505   7.466   6.813   5.799
12721SOL     OW38506   7.536   7.387   6.513
12721SOL    HW138507   7.494   7.301   6.486
12721SOL    HW238508   7.630   7.390   6.479
12722SOL     OW38509   7.921   6.086   5.777
12722SOL    HW138510   7.982   6.166   5.781
12722SOL    HW238511   7.826   6.117   5.784
12723SOL     OW38512   7.531   6.844   6.608
12723SOL    HW138513   7.526   6.843   6.708
12723SOL    HW238514   7.448   6.803   6.570
12724SOL     OW38515   7.711   5.912   6.306
12724SOL    HW138516   7.632   5.963   6.272
12724SOL    HW238517   7.702   5.897   6.404
12725SOL     OW38518   8.038   7.073   6.077
12725SOL    HW138519   8.080   7.015   6.007
12725SOL    HW238520   7.994   7.152   6.033
12726SOL     OW38521   7.703   6.934   5.876
12726SOL    HW138522   7.607   6.935   5.849
12726SOL    HW238523   7.715   6.987   5.960
12727SOL     OW38524   7.523   5.931   5.619
12727SOL    HW138525   7.431   5.903   5.590
12727SOL    HW238526   7.554   6.008   5.563
12728SOL     OW38527   7.520   5.752   5.904
12728SOL    HW138528   7.503   5.835   5.850
12728SOL    HW238529   7.610   5.715   5.882
12729SOL     OW38530   7.527   6.826   6.239
12729SOL    HW138531   7.526   6.779   6.327
12729SOL    HW238532   7.609   6.798   6.188
12730SOL     OW38533   7.765   6.133   6.866
12730SOL    HW138534   7.803   6.074   6.938
12730SOL    HW238535   7.805   6.107   6.778
12731SOL     OW38536   7.487   6.663   5.886
12731SOL    HW138537   7.586   6.652   5.877
12731SOL    HW238538   7.447   6.577   5.918
12732SOL     OW38539   7.765   7.699   1.801
12732SOL    HW138540   7.836   7.770   1.807
12732SOL    HW238541   7.677   7.738   1.829
12733SOL     OW38542   7.952   7.498   1.740
12733SOL    HW138543   7.910   7.441   1.670
12733SOL    HW238544   7.886   7.567   1.772
12734SOL     OW38545   7.755   7.511   0.618
12734SOL    HW138546   7.744   7.605   0.651
12734SOL    HW238547   7.750   7.448   0.695
12735SOL     OW38548   7.711   7.774   0.720
12735SOL    HW138549   7.632   7.825   0.686
12735SOL    HW238550   7.702   7.759   0.818
12736SOL     OW38551   7.765   7.699   3.663
12736SOL    HW138552   7.836   7.770   3.669
12736SOL    HW238553   7.677   7.738   3.691
12737SOL     OW38554   7.952   7.498   3.602
12737SOL    HW138555   7.910   7.441   3.532
12737SOL    HW238556   7.886   7.567   3.634
12738SOL     OW38557   7.755   7.511   2.480
12738SOL    HW138558   7.744   7.605   2.513
12738SOL    HW238559   7.750   7.448   2.557
12739SOL     OW38560   7.711   7.774   2.582
12739SOL    HW138561   7.632   7.825   2.548
12739SOL    HW238562   7.702   7.759   2.680
12740SOL     OW38563   7.523   7.793   1.895
12740SOL    HW138564   7.431   7.765   1.866
12740SOL    HW238565   7.554   7.870   1.839
12741SOL     OW38566   7.765   7.699   5.525
12741SOL    HW138567   7.836   7.770   5.531
12741SOL    HW238568   7.677   7.738   5.553
12742SOL     OW38569   7.952   7.498   5.464
12742SOL    HW138570   7.910   7.441   5.394
12742SOL    HW238571   7.886   7.567   5.496
12743SOL     OW38572   7.755   7.511   4.342
12743SOL    HW138573   7.744   7.605   4.375
12743SOL    HW238574   7.750   7.448   4.419
12744SOL     OW38575   7.711   7.774   4.444
12744SOL    HW138576   7.632   7.825   4.410
12744SOL    HW238577   7.702   7.759   4.542
12745SOL     OW38578   7.523   7.793   3.757
12745SOL    HW138579   7.431   7.765   3.728
12745SOL    HW238580   7.554   7.870   3.701
12746SOL     OW38581   7.755   7.511   6.204
12746SOL    HW138582   7.744   7.605   6.237
12746SOL    HW238583   7.750   7.448   6.281
12747SOL     OW38584   7.711   7.774   6.306
12747SOL    HW138585   7.632   7.825   6.272
12747SOL    HW238586   7.702   7.759   6.404
12748SOL     OW38587   7.523   7.793   5.619
12748SOL    HW138588   7.431   7.765   5.590
12748SOL    HW238589   7.554   7.870   5.563
   7.98884   7.53195   6.52286   0.00000   0.00000   2.66295   0.00000  -2.66295   3.76597
