Protein in water
38439
    1ASP      N    1   5.239   5.725   1.396
    1ASP     H1    2   5.285   5.781   1.327
    1ASP     H2    3   5.286   5.735   1.484
    1ASP     H3    4   5.240   5.629   1.368
    1ASP     CA    5   5.099   5.771   1.410
    1ASP     HA    6   5.108   5.863   1.448
    1ASP     CB    7   5.033   5.776   1.273
    1ASP    HB1    8   4.988   5.689   1.253
    1ASP    HB2    9   5.102   5.794   1.202
    1ASP     CG   10   4.932   5.889   1.276
    1ASP    OD1   11   4.980   6.001   1.301
    1ASP    OD2   12   4.811   5.857   1.269
    1ASP      C   13   5.015   5.695   1.514
    1ASP      O   14   4.928   5.753   1.578
    2SER      N   15   5.040   5.566   1.542
    2SER     HN   16   5.122   5.524   1.503
    2SER     CA   17   4.951   5.484   1.628
    2SER     HA   18   4.863   5.533   1.619
    2SER     CB   19   4.944   5.341   1.573
    2SER    HB1   20   4.874   5.288   1.621
    2SER    HB2   21   5.033   5.295   1.581
    2SER     OG   22   4.910   5.347   1.436
    2SER    HG1   23   4.905   5.254   1.399
    2SER      C   24   4.980   5.484   1.779
    2SER      O   25   4.912   5.413   1.853
    3HIS      N   26   5.077   5.561   1.829
    3HIS     HN   27   5.129   5.620   1.767
    3HIS     CA   28   5.110   5.562   1.973
    3HIS     HA   29   5.093   5.469   2.004
    3HIS     CB   30   5.259   5.595   1.992
    3HIS    HB1   31   5.272   5.693   1.982
    3HIS    HB2   32   5.312   5.547   1.923
    3HIS    ND1   33   5.308   5.426   2.181
    3HIS     CG   34   5.310   5.554   2.128
    3HIS    CE1   35   5.362   5.430   2.304
    3HIS    HE1   36   5.373   5.351   2.364
    3HIS    NE2   37   5.399   5.555   2.333
    3HIS    HE2   38   5.441   5.586   2.419
    3HIS    CD2   39   5.368   5.634   2.223
    3HIS    HD2   40   5.385   5.732   2.214
    3HIS      C   41   5.017   5.653   2.056
    3HIS      O   42   4.984   5.620   2.170
    4ALA      N   43   4.962   5.760   1.996
    4ALA     HN   44   4.985   5.777   1.900
    4ALA     CA   45   4.872   5.854   2.064
    4ALA     HA   46   4.915   5.874   2.152
    4ALA     CB   47   4.862   5.980   1.977
    4ALA    HB1   48   4.953   6.016   1.959
    4ALA    HB2   49   4.817   5.957   1.890
    4ALA    HB3   50   4.808   6.049   2.024
    4ALA      C   51   4.733   5.795   2.095
    4ALA      O   52   4.671   5.829   2.195
    5LYS      N   53   4.686   5.699   2.014
    5LYS     HN   54   4.744   5.669   1.938
    5LYS     CA   55   4.554   5.635   2.032
    5LYS     HA   56   4.491   5.711   2.047
    5LYS     CB   57   4.516   5.558   1.904
    5LYS    HB1   58   4.434   5.503   1.922
    5LYS    HB2   59   4.592   5.497   1.879
    5LYS     CG   60   4.487   5.653   1.787
    5LYS    HG1   61   4.571   5.705   1.767
    5LYS    HG2   62   4.415   5.716   1.815
    5LYS     CD   63   4.443   5.579   1.660
    5LYS    HD1   64   4.516   5.517   1.631
    5LYS    HD2   65   4.360   5.527   1.679
    5LYS     CE   66   4.416   5.682   1.549
    5LYS    HE1   67   4.497   5.739   1.536
    5LYS    HE2   68   4.339   5.741   1.576
    5LYS     NZ   69   4.382   5.620   1.419
    5LYS    HZ1   70   4.365   5.691   1.351
    5LYS    HZ2   71   4.458   5.562   1.389
    5LYS    HZ3   72   4.300   5.564   1.429
    5LYS      C   73   4.546   5.545   2.155
    5LYS      O   74   4.440   5.531   2.215
    6ARG      N   75   4.660   5.490   2.199
    6ARG     HN   76   4.745   5.509   2.150
    6ARG     CA   77   4.665   5.404   2.318
    6ARG     HA   78   4.585   5.344   2.315
    6ARG     CB   79   4.792   5.317   2.311
    6ARG    HB1   80   4.866   5.366   2.358
    6ARG    HB2   81   4.816   5.303   2.215
    6ARG     CG   82   4.775   5.179   2.378
    6ARG    HG1   83   4.688   5.139   2.349
    6ARG    HG2   84   4.775   5.190   2.477
    6ARG     CD   85   4.890   5.086   2.337
    6ARG    HD1   86   4.978   5.133   2.352
    6ARG    HD2   87   4.882   5.062   2.241
    6ARG     NE   88   4.892   4.961   2.416
    6ARG     HE   89   4.856   4.967   2.509
    6ARG     CZ   90   4.934   4.842   2.376
    6ARG    NH1   91   4.974   4.818   2.254
    6ARG   HH11   92   4.974   4.892   2.187
    6ARG   HH12   93   5.005   4.727   2.229
    6ARG    NH2   94   4.937   4.742   2.460
    6ARG   HH21   95   4.908   4.756   2.555
    6ARG   HH22   96   4.969   4.653   2.430
    6ARG      C   97   4.649   5.484   2.447
    6ARG      O   98   4.601   5.428   2.545
    7HIS      N   99   4.678   5.615   2.446
    7HIS     HN  100   4.704   5.656   2.358
    7HIS     CA  101   4.675   5.701   2.564
    7HIS     HA  102   4.704   5.641   2.638
    7HIS     CB  103   4.776   5.817   2.547
    7HIS    HB1  104   4.726   5.903   2.549
    7HIS    HB2  105   4.821   5.807   2.458
    7HIS    ND1  106   4.898   5.922   2.747
    7HIS     CG  107   4.882   5.822   2.654
    7HIS    CE1  108   5.012   5.898   2.815
    7HIS    HE1  109   5.051   5.958   2.885
    7HIS    NE2  110   5.064   5.781   2.776
    7HIS    HE2  111   5.143   5.734   2.817
    7HIS    CD2  112   4.988   5.736   2.668
    7HIS    HD2  113   5.007   5.656   2.612
    7HIS      C  114   4.535   5.749   2.606
    7HIS      O  115   4.508   5.766   2.725
    8HIS      N  116   4.444   5.765   2.510
    8HIS     HN  117   4.470   5.745   2.416
    8HIS     CA  118   4.307   5.809   2.538
    8HIS     HA  119   4.314   5.871   2.615
    8HIS     CB  120   4.252   5.882   2.415
    8HIS    HB1  121   4.152   5.885   2.420
    8HIS    HB2  122   4.280   5.833   2.332
    8HIS    ND1  123   4.257   6.130   2.479
    8HIS     CG  124   4.304   6.023   2.407
    8HIS    CE1  125   4.330   6.238   2.447
    8HIS    HE1  126   4.316   6.330   2.484
    8HIS    NE2  127   4.424   6.205   2.358
    8HIS    HE2  128   4.493   6.266   2.318
    8HIS    CD2  129   4.408   6.069   2.330
    8HIS    HD2  130   4.463   6.015   2.266
    8HIS      C  131   4.214   5.696   2.585
    8HIS      O  132   4.118   5.721   2.658
    9GLY      N  133   4.243   5.570   2.549
    9GLY     HN  134   4.324   5.554   2.493
    9GLY     CA  135   4.163   5.454   2.589
    9GLY    HA1  136   4.067   5.478   2.573
    9GLY    HA2  137   4.188   5.378   2.529
    9GLY      C  138   4.181   5.413   2.735
    9GLY      O  139   4.084   5.380   2.803
   10TYR      N  140   4.304   5.417   2.788
   10TYR     HN  141   4.380   5.453   2.733
   10TYR     CA  142   4.332   5.371   2.925
   10TYR     HA  143   4.269   5.294   2.937
   10TYR     CB  144   4.477   5.322   2.937
   10TYR    HB1  145   4.498   5.265   2.858
   10TYR    HB2  146   4.484   5.266   3.020
   10TYR     CG  147   4.581   5.431   2.946
   10TYR    CD1  148   4.673   5.450   2.841
   10TYR    HD1  149   4.669   5.391   2.760
   10TYR    CE1  150   4.771   5.550   2.852
   10TYR    HE1  151   4.840   5.560   2.780
   10TYR     CZ  152   4.771   5.637   2.962
   10TYR     OH  153   4.858   5.739   2.974
   10TYR     HH  154   4.840   5.788   3.060
   10TYR    CD2  155   4.593   5.508   3.063
   10TYR    HD2  156   4.535   5.487   3.142
   10TYR    CE2  157   4.685   5.612   3.070
   10TYR    HE2  158   4.690   5.669   3.152
   10TYR      C  159   4.295   5.475   3.032
   10TYR      O  160   4.255   5.437   3.142
   11LYS      N  161   4.306   5.606   3.002
   11LYS     HN  162   4.335   5.632   2.910
   11LYS     CA  163   4.275   5.713   3.100
   11LYS     HA  164   4.325   5.685   3.182
   11LYS     CB  165   4.326   5.849   3.050
   11LYS    HB1  166   4.280   5.922   3.101
   11LYS    HB2  167   4.305   5.858   2.952
   11LYS     CG  168   4.478   5.865   3.069
   11LYS    HG1  169   4.525   5.808   3.001
   11LYS    HG2  170   4.502   5.833   3.161
   11LYS     CD  171   4.524   6.010   3.054
   11LYS    HD1  172   4.519   6.036   2.957
   11LYS    HD2  173   4.465   6.070   3.108
   11LYS     CE  174   4.669   6.024   3.103
   11LYS    HE1  175   4.730   5.972   3.043
   11LYS    HE2  176   4.676   5.989   3.196
   11LYS     NZ  177   4.714   6.166   3.102
   11LYS    HZ1  178   4.809   6.171   3.135
   11LYS    HZ2  179   4.709   6.202   3.010
   11LYS    HZ3  180   4.656   6.219   3.163
   11LYS      C  181   4.127   5.722   3.134
   11LYS      O  182   4.093   5.759   3.247
   12ARG      N  183   4.040   5.683   3.040
   12ARG     HN  184   4.077   5.655   2.952
   12ARG     CA  185   3.894   5.679   3.058
   12ARG     HA  186   3.868   5.769   3.093
   12ARG     CB  187   3.828   5.652   2.922
   12ARG    HB1  188   3.766   5.574   2.932
   12ARG    HB2  189   3.899   5.630   2.855
   12ARG     CG  190   3.747   5.773   2.872
   12ARG    HG1  191   3.807   5.853   2.872
   12ARG    HG2  192   3.670   5.788   2.934
   12ARG     CD  193   3.693   5.751   2.730
   12ARG    HD1  194   3.768   5.755   2.664
   12ARG    HD2  195   3.626   5.821   2.708
   12ARG     NE  196   3.627   5.619   2.717
   12ARG     HE  197   3.676   5.542   2.759
   12ARG     CZ  198   3.514   5.589   2.657
   12ARG    NH1  199   3.442   5.678   2.593
   12ARG   HH11  200   3.473   5.773   2.589
   12ARG   HH12  201   3.357   5.651   2.549
   12ARG    NH2  202   3.469   5.467   2.661
   12ARG   HH21  203   3.520   5.396   2.709
   12ARG   HH22  204   3.382   5.444   2.615
   12ARG      C  205   3.851   5.577   3.163
   12ARG      O  206   3.771   5.609   3.250
   13LYS      N  207   3.911   5.457   3.162
   13LYS     HN  208   3.982   5.441   3.093
   13LYS     CA  209   3.879   5.350   3.257
   13LYS     HA  210   3.780   5.342   3.257
   13LYS     CB  211   3.944   5.219   3.207
   13LYS    HB1  212   4.043   5.224   3.221
   13LYS    HB2  213   3.924   5.208   3.110
   13LYS     CG  214   3.890   5.096   3.283
   13LYS    HG1  215   3.790   5.096   3.278
   13LYS    HG2  216   3.918   5.102   3.378
   13LYS     CD  217   3.942   4.965   3.223
   13LYS    HD1  218   3.918   4.960   3.126
   13LYS    HD2  219   4.042   4.961   3.233
   13LYS     CE  220   3.879   4.847   3.298
   13LYS    HE1  221   3.779   4.852   3.290
   13LYS    HE2  222   3.905   4.851   3.395
   13LYS     NZ  223   3.923   4.716   3.245
   13LYS    HZ1  224   3.880   4.642   3.297
   13LYS    HZ2  225   3.898   4.708   3.148
   13LYS    HZ3  226   4.023   4.708   3.253
   13LYS      C  227   3.919   5.383   3.401
   13LYS      O  228   3.857   5.335   3.495
   14PHE      N  229   4.022   5.467   3.420
   14PHE     HN  230   4.071   5.501   3.339
   14PHE     CA  231   4.067   5.509   3.553
   14PHE     HA  232   4.059   5.428   3.611
   14PHE     CB  233   4.214   5.553   3.546
   14PHE    HB1  234   4.220   5.636   3.491
   14PHE    HB2  235   4.267   5.480   3.503
   14PHE     CG  236   4.274   5.583   3.682
   14PHE    CD1  237   4.289   5.716   3.725
   14PHE    HD1  238   4.262   5.791   3.665
   14PHE    CE1  239   4.343   5.743   3.853
   14PHE    HE1  240   4.354   5.838   3.883
   14PHE     CZ  241   4.380   5.637   3.937
   14PHE     HZ  242   4.418   5.657   4.028
   14PHE    CD2  243   4.311   5.477   3.768
   14PHE    HD2  244   4.300   5.382   3.738
   14PHE    CE2  245   4.365   5.504   3.895
   14PHE    HE2  246   4.391   5.429   3.955
   14PHE      C  247   3.976   5.616   3.614
   14PHE      O  248   3.944   5.607   3.731
   15HIS      N  249   3.927   5.713   3.535
   15HIS     HN  250   3.953   5.714   3.439
   15HIS     CA  251   3.837   5.818   3.586
   15HIS     HA  252   3.876   5.845   3.674
   15HIS     CB  253   3.836   5.937   3.488
   15HIS    HB1  254   3.759   5.997   3.511
   15HIS    HB2  255   3.824   5.902   3.395
   15HIS    ND1  256   4.082   5.985   3.433
   15HIS    HD1  257   4.099   5.906   3.374
   15HIS     CG  258   3.963   6.017   3.494
   15HIS    CE1  259   4.172   6.078   3.467
   15HIS    HE1  260   4.268   6.079   3.438
   15HIS    NE2  261   4.116   6.171   3.546
   15HIS    CD2  262   3.983   6.133   3.564
   15HIS    HD2  263   3.915   6.181   3.619
   15HIS      C  264   3.695   5.767   3.613
   15HIS      O  265   3.628   5.816   3.704
   16GLU      N  266   3.650   5.665   3.541
   16GLU     HN  267   3.710   5.626   3.471
   16GLU     CA  268   3.517   5.605   3.559
   16GLU     HA  269   3.451   5.681   3.561
   16GLU     CB  270   3.491   5.513   3.439
   16GLU    HB1  271   3.543   5.428   3.454
   16GLU    HB2  272   3.525   5.558   3.357
   16GLU     CG  273   3.345   5.476   3.417
   16GLU    HG1  274   3.288   5.558   3.419
   16GLU    HG2  275   3.314   5.413   3.489
   16GLU     CD  276   3.331   5.407   3.281
   16GLU    OE1  277   3.341   5.283   3.276
   16GLU    OE2  278   3.322   5.480   3.179
   16GLU      C  279   3.501   5.533   3.695
   16GLU      O  280   3.391   5.523   3.748
   17LYS      N  281   3.611   5.490   3.757
   17LYS     HN  282   3.700   5.509   3.715
   17LYS     CA  283   3.609   5.415   3.884
   17LYS     HA  284   3.531   5.354   3.877
   17LYS     CB  285   3.740   5.336   3.897
   17LYS    HB1  286   3.815   5.399   3.920
   17LYS    HB2  287   3.760   5.291   3.810
   17LYS     CG  288   3.733   5.227   4.006
   17LYS    HG1  289   3.652   5.170   3.989
   17LYS    HG2  290   3.723   5.272   4.095
   17LYS     CD  291   3.856   5.137   4.009
   17LYS    HD1  292   3.866   5.090   3.922
   17LYS    HD2  293   3.938   5.192   4.026
   17LYS     CE  294   3.838   5.035   4.123
   17LYS    HE1  295   3.759   4.977   4.102
   17LYS    HE2  296   3.822   5.083   4.209
   17LYS     NZ  297   3.957   4.948   4.140
   17LYS    HZ1  298   3.940   4.883   4.215
   17LYS    HZ2  299   3.974   4.897   4.056
   17LYS    HZ3  300   4.036   5.004   4.162
   17LYS      C  301   3.579   5.503   4.008
   17LYS      O  302   3.551   5.449   4.114
   18HIS      N  303   3.584   5.636   3.997
   18HIS     HN  304   3.591   5.676   3.905
   18HIS     CA  305   3.578   5.726   4.113
   18HIS     HA  306   3.584   5.666   4.192
   18HIS     CB  307   3.699   5.821   4.109
   18HIS    HB1  308   3.686   5.894   4.176
   18HIS    HB2  309   3.707   5.860   4.017
   18HIS    ND1  310   3.878   5.727   4.268
   18HIS     CG  311   3.828   5.749   4.142
   18HIS    CE1  312   3.991   5.656   4.256
   18HIS    HE1  313   4.049   5.628   4.333
   18HIS    NE2  314   4.016   5.629   4.128
   18HIS    HE2  315   4.093   5.576   4.091
   18HIS    CD2  316   3.913   5.689   4.054
   18HIS    HD2  317   3.904   5.688   3.955
   18HIS      C  318   3.444   5.799   4.132
   18HIS      O  319   3.433   5.882   4.222
   19HIS      N  320   3.340   5.767   4.054
   19HIS     HN  321   3.350   5.690   3.990
   19HIS     CA  322   3.212   5.839   4.058
   19HIS     HA  323   3.231   5.916   4.119
   19HIS     CB  324   3.178   5.888   3.916
   19HIS    HB1  325   3.082   5.918   3.914
   19HIS    HB2  326   3.191   5.813   3.851
   19HIS    ND1  327   3.267   6.128   3.933
   19HIS     CG  328   3.265   6.004   3.874
   19HIS    CE1  329   3.358   6.203   3.869
   19HIS    HE1  330   3.380   6.298   3.892
   19HIS    NE2  331   3.415   6.133   3.770
   19HIS    HE2  332   3.486   6.165   3.707
   19HIS    CD2  333   3.357   6.006   3.773
   19HIS    HD2  334   3.378   5.930   3.711
   19HIS      C  335   3.095   5.766   4.127
   19HIS      O  336   2.986   5.822   4.132
   20SER      N  337   3.114   5.647   4.186
   20SER     HN  338   3.208   5.613   4.197
   20SER     CA  339   3.002   5.565   4.234
   20SER     HA  340   2.923   5.624   4.218
   20SER     CB  341   2.993   5.436   4.151
   20SER    HB1  342   2.989   5.457   4.054
   20SER    HB2  343   2.913   5.382   4.178
   20SER     OG  344   3.107   5.357   4.173
   20SER    HG1  345   3.101   5.273   4.119
   20SER      C  346   2.996   5.538   4.385
   20SER      O  347   2.923   5.448   4.426
   21HIS      N  348   3.067   5.612   4.471
   21HIS     HN  349   3.128   5.684   4.435
   21HIS     CA  350   3.058   5.590   4.617
   21HIS     HA  351   2.966   5.556   4.630
   21HIS     CB  352   3.158   5.483   4.662
   21HIS    HB1  353   3.246   5.526   4.685
   21HIS    HB2  354   3.172   5.417   4.587
   21HIS    ND1  355   3.001   5.322   4.785
   21HIS     CG  356   3.109   5.408   4.783
   21HIS    CE1  357   2.987   5.275   4.910
   21HIS    HE1  358   2.916   5.211   4.940
   21HIS    NE2  359   3.083   5.325   4.989
   21HIS    HE2  360   3.098   5.305   5.086
   21HIS    CD2  361   3.160   5.411   4.910
   21HIS    HD2  362   3.238   5.466   4.940
   21HIS      C  363   3.065   5.718   4.701
   21HIS      O  364   3.144   5.731   4.794
   22ARG      N  365   2.981   5.817   4.667
   22ARG     HN  366   2.940   5.816   4.576
   22ARG     CA  367   2.949   5.927   4.759
   22ARG     HA  368   2.956   5.892   4.852
   22ARG     CB  369   3.054   6.040   4.747
   22ARG    HB1  370   3.023   6.107   4.680
   22ARG    HB2  371   3.141   6.001   4.718
   22ARG     CG  372   3.074   6.110   4.882
   22ARG    HG1  373   3.097   6.041   4.952
   22ARG    HG2  374   2.989   6.156   4.908
   22ARG     CD  375   3.186   6.213   4.874
   22ARG    HD1  376   3.166   6.279   4.801
   22ARG    HD2  377   3.273   6.167   4.854
   22ARG     NE  378   3.201   6.287   5.001
   22ARG     HE  379   3.139   6.261   5.075
   22ARG     CZ  380   3.288   6.383   5.026
   22ARG    NH1  381   3.376   6.421   4.937
   22ARG   HH11  382   3.379   6.377   4.848
   22ARG   HH12  383   3.440   6.494   4.959
   22ARG    NH2  384   3.287   6.444   5.141
   22ARG   HH21  385   3.221   6.418   5.211
   22ARG   HH22  386   3.353   6.517   5.159
   22ARG      C  387   2.804   5.969   4.741
   22ARG      O  388   2.774   6.084   4.708
   23GLY      N  389   2.714   5.872   4.754
   23GLY     HN  390   2.746   5.777   4.750
   23GLY     CA  391   2.572   5.896   4.774
   23GLY    HA1  392   2.550   5.989   4.744
   23GLY    HA2  393   2.520   5.831   4.720
   23GLY      C  394   2.541   5.879   4.923
   23GLY      O  395   2.571   5.773   4.975
   24TYR      N  396   2.484   5.985   4.981
   24TYR     HN  397   2.498   6.072   4.934
   24TYR     CA  398   2.406   5.994   5.106
   24TYR     HA  399   2.412   6.091   5.126
   24TYR     CB  400   2.262   5.949   5.076
   24TYR    HB1  401   2.214   5.936   5.163
   24TYR    HB2  402   2.264   5.863   5.026
   24TYR     CG  403   2.187   6.053   4.994
   24TYR    CD1  404   2.117   6.155   5.060
   24TYR    HD1  405   2.114   6.157   5.160
   24TYR    CE1  406   2.050   6.254   4.986
   24TYR    HE1  407   1.999   6.326   5.034
   24TYR     CZ  408   2.055   6.252   4.845
   24TYR     OH  409   1.991   6.348   4.773
   24TYR     HH  410   2.005   6.331   4.676
   24TYR    CD2  411   2.193   6.051   4.853
   24TYR    HD2  412   2.244   5.979   4.806
   24TYR    CE2  413   2.128   6.151   4.779
   24TYR    HE2  414   2.132   6.150   4.679
   24TYR      C  415   2.463   5.936   5.236
   24TYR    OT1  416   2.587   5.880   5.229
   24TYR    OT2  417   2.386   5.947   5.347
   25SOL     OW  418   0.230   0.628   0.113
   25SOL    HW1  419   0.137   0.626   0.150
   25SOL    HW2  420   0.231   0.589   0.021
   26SOL     OW  421   0.225   0.275   0.996
   26SOL    HW1  422   0.260   0.258   1.088
   26SOL    HW2  423   0.137   0.230   0.984
   27SOL     OW  424   0.019   0.368   0.647
   27SOL    HW1  425  -0.063   0.411   0.686
   27SOL    HW2  426  -0.009   0.295   0.584
   28SOL     OW  427   0.569   1.275   1.165
   28SOL    HW1  428   0.476   1.268   1.128
   28SOL    HW2  429   0.580   1.364   1.209
   29SOL     OW  430   1.555   1.511   0.703
   29SOL    HW1  431   1.498   1.495   0.784
   29SOL    HW2  432   1.496   1.521   0.623
   30SOL     OW  433   1.135   0.703   0.717
   30SOL    HW1  434   1.192   0.781   0.692
   30SOL    HW2  435   1.075   0.729   0.793
   31SOL     OW  436   1.755   0.607   0.231
   31SOL    HW1  437   1.743   0.594   0.132
   31SOL    HW2  438   1.725   0.526   0.280
   32SOL     OW  439   0.768   1.144   1.023
   32SOL    HW1  440   0.690   1.161   1.083
   32SOL    HW2  441   0.802   1.231   0.987
   33SOL     OW  442   0.850   0.798   1.823
   33SOL    HW1  443   0.846   0.874   1.888
   33SOL    HW2  444   0.872   0.834   1.732
   34SOL     OW  445   0.685   1.012   0.665
   34SOL    HW1  446   0.754   0.996   0.735
   34SOL    HW2  447   0.612   1.069   0.703
   35SOL     OW  448   0.686   1.161   1.803
   35SOL    HW1  449   0.746   1.240   1.817
   35SOL    HW2  450   0.600   1.192   1.762
   36SOL     OW  451   0.335   1.435   1.061
   36SOL    HW1  452   0.257   1.404   1.008
   36SOL    HW2  453   0.393   1.493   1.004
   37SOL     OW  454   1.460   1.505   1.339
   37SOL    HW1  455   1.484   1.599   1.365
   37SOL    HW2  456   1.444   1.451   1.421
   38SOL     OW  457   0.438   0.392   1.499
   38SOL    HW1  458   0.520   0.336   1.508
   38SOL    HW2  459   0.357   0.334   1.503
   39SOL     OW  460   1.603   0.447   0.737
   39SOL    HW1  461   1.529   0.493   0.687
   39SOL    HW2  462   1.654   0.515   0.790
   40SOL     OW  463   0.231   1.713   0.483
   40SOL    HW1  464   0.265   1.790   0.537
   40SOL    HW2  465   0.275   1.713   0.393
   41SOL     OW  466   1.127   1.341   1.690
   41SOL    HW1  467   1.174   1.341   1.778
   41SOL    HW2  468   1.079   1.254   1.679
   42SOL     OW  469   0.230   1.434   0.538
   42SOL    HW1  470   0.204   1.530   0.538
   42SOL    HW2  471   0.159   1.380   0.583
   43SOL     OW  472   0.240   1.091   0.886
   43SOL    HW1  473   0.254   1.007   0.938
   43SOL    HW2  474   0.185   1.155   0.941
   44SOL     OW  475   0.620   1.786   1.439
   44SOL    HW1  476   0.528   1.769   1.474
   44SOL    HW2  477   0.648   1.878   1.465
   45SOL     OW  478   0.606   0.964   0.123
   45SOL    HW1  479   0.613   1.048   0.069
   45SOL    HW2  480   0.652   0.977   0.211
   46SOL     OW  481   1.594   0.114   1.480
   46SOL    HW1  482   1.576   0.181   1.408
   46SOL    HW2  483   1.591   0.160   1.569
   47SOL     OW  484   0.122   0.643   0.563
   47SOL    HW1  485   0.077   0.555   0.580
   47SOL    HW2  486   0.121   0.697   0.647
   48SOL     OW  487   1.842   1.767   0.359
   48SOL    HW1  488   1.896   1.738   0.439
   48SOL    HW2  489   1.872   1.857   0.330
   49SOL     OW  490   0.027   1.596   0.117
   49SOL    HW1  491   0.008   1.500   0.138
   49SOL    HW2  492  -0.006   1.654   0.192
   50SOL     OW  493   1.689   0.922   0.612
   50SOL    HW1  494   1.784   0.893   0.620
   50SOL    HW2  495   1.681   0.987   0.537
   51SOL     OW  496   1.641   1.108   0.432
   51SOL    HW1  497   1.727   1.110   0.380
   51SOL    HW2  498   1.655   1.155   0.520
   52SOL     OW  499   0.113   0.737   1.597
   52SOL    HW1  500   0.201   0.724   1.642
   52SOL    HW2  501   0.100   0.834   1.575
   53SOL     OW  502   0.613   1.365   0.726
   53SOL    HW1  503   0.564   1.278   0.735
   53SOL    HW2  504   0.590   1.408   0.639
   54SOL     OW  505   1.293   1.228   1.423
   54SOL    HW1  506   1.330   1.155   1.365
   54SOL    HW2  507   1.345   1.233   1.508
   55SOL     OW  508   0.809   0.004   0.502
   55SOL    HW1  509   0.849   0.095   0.493
   55SOL    HW2  510   0.709   0.012   0.508
   56SOL     OW  511   0.197   0.976   1.264
   56SOL    HW1  512   0.286   0.931   1.250
   56SOL    HW2  513   0.124   0.911   1.245
   57SOL     OW  514   1.525   0.999   0.190
   57SOL    HW1  515   1.462   0.923   0.203
   57SOL    HW2  516   1.573   1.017   0.276
   58SOL     OW  517   1.187   1.792   1.616
   58SOL    HW1  518   1.211   1.852   1.540
   58SOL    HW2  519   1.194   1.697   1.586
   59SOL     OW  520   0.317   0.251   1.801
   59SOL    HW1  521   0.388   0.322   1.807
   59SOL    HW2  522   0.229   0.290   1.829
   60SOL     OW  523   1.466   1.417   0.953
   60SOL    HW1  524   1.407   1.423   1.033
   60SOL    HW2  525   1.451   1.329   0.907
   61SOL     OW  526   1.667   1.714   0.572
   61SOL    HW1  527   1.626   1.691   0.484
   61SOL    HW2  528   1.649   1.640   0.637
   62SOL     OW  529   0.598   0.729   0.270
   62SOL    HW1  530   0.622   0.798   0.202
   62SOL    HW2  531   0.520   0.762   0.324
   63SOL     OW  532   1.281   0.345   0.944
   63SOL    HW1  533   1.195   0.295   0.931
   63SOL    HW2  534   1.343   0.291   1.000
   64SOL     OW  535   1.576   1.662   0.307
   64SOL    HW1  536   1.665   1.708   0.310
   64SOL    HW2  537   1.555   1.638   0.212
   65SOL     OW  538   0.807   0.605   1.465
   65SOL    HW1  539   0.760   0.602   1.554
   65SOL    HW2  540   0.756   0.550   1.399
   66SOL     OW  541   1.394   0.469   1.674
   66SOL    HW1  542   1.374   0.512   1.762
   66SOL    HW2  543   1.472   0.407   1.683
   67SOL     OW  544   0.973   0.890   1.572
   67SOL    HW1  545   1.019   0.806   1.543
   67SOL    HW2  546   0.917   0.924   1.497
   68SOL     OW  547   0.991   0.410   1.242
   68SOL    HW1  548   0.914   0.444   1.296
   68SOL    HW2  549   0.957   0.359   1.163
   69SOL     OW  550   1.041   0.701   0.429
   69SOL    HW1  551   1.067   0.697   0.525
   69SOL    HW2  552   0.956   0.650   0.415
   70SOL     OW  553   0.076   0.811   0.789
   70SOL    HW1  554   0.175   0.799   0.798
   70SOL    HW2  555   0.052   0.906   0.810
   71SOL     OW  556   0.130   1.821   1.571
   71SOL    HW1  557   0.120   1.806   1.670
   71SOL    HW2  558   0.044   1.857   1.535
   72SOL     OW  559   0.865   0.348   0.195
   72SOL    HW1  560   0.924   0.411   0.146
   72SOL    HW2  561   0.884   0.254   0.166
   73SOL     OW  562   1.719   0.585   1.831
   73SOL    HW1  563   1.693   0.674   1.795
   73SOL    HW2  564   1.717   0.517   1.758
   74SOL     OW  565   1.362   1.144   0.545
   74SOL    HW1  566   1.445   1.115   0.497
   74SOL    HW2  567   1.313   1.211   0.489
   75SOL     OW  568   0.550   0.196   0.885
   75SOL    HW1  569   0.545   0.191   0.985
   75SOL    HW2  570   0.552   0.292   0.856
   76SOL     OW  571   1.008   1.456   0.477
   76SOL    HW1  572   0.962   1.528   0.425
   76SOL    HW2  573   1.004   1.476   0.575
   77SOL     OW  574   0.351   1.801   0.853
   77SOL    HW1  575   0.401   1.715   0.859
   77SOL    HW2  576   0.416   1.878   0.850
   78SOL     OW  577   1.795   1.066   0.873
   78SOL    HW1  578   1.733   1.051   0.797
   78SOL    HW2  579   1.743   1.077   0.958
   79SOL     OW  580   1.227   1.550   1.506
   79SOL    HW1  581   1.233   1.473   1.570
   79SOL    HW2  582   1.175   1.524   1.426
   80SOL     OW  583   0.321   0.943   0.242
   80SOL    HW1  584   0.403   0.982   0.200
   80SOL    HW2  585   0.294   0.861   0.193
   81SOL     OW  586   0.461   1.266   1.727
   81SOL    HW1  587   0.411   1.267   1.641
   81SOL    HW2  588   0.398   1.248   1.803
   82SOL     OW  589   1.111   1.776   0.237
   82SOL    HW1  590   1.051   1.714   0.287
   82SOL    HW2  591   1.142   1.732   0.152
   83SOL     OW  592   0.202   0.285   1.498
   83SOL    HW1  593   0.122   0.345   1.485
   83SOL    HW2  594   0.192   0.236   1.584
   84SOL     OW  595   1.632   1.377   0.081
   84SOL    HW1  596   1.600   1.471   0.071
   84SOL    HW2  597   1.556   1.314   0.069
   85SOL     OW  598   1.400   0.107   0.426
   85SOL    HW1  599   1.376   0.070   0.336
   85SOL    HW2  600   1.499   0.123   0.430
   86SOL     OW  601   0.249   1.785   1.241
   86SOL    HW1  602   0.306   1.720   1.291
   86SOL    HW2  603   0.233   1.752   1.148
   87SOL     OW  604   0.940   1.698   0.904
   87SOL    HW1  605   1.020   1.641   0.925
   87SOL    HW2  606   0.891   1.658   0.827
   88SOL     OW  607   0.382   0.700   0.480
   88SOL    HW1  608   0.427   0.610   0.477
   88SOL    HW2  609   0.288   0.689   0.513
   89SOL     OW  610   1.547   0.222   1.729
   89SOL    HW1  611   1.542   0.259   1.821
   89SOL    HW2  612   1.475   0.153   1.717
   90SOL     OW  613   0.614   0.122   0.117
   90SOL    HW1  614   0.712   0.100   0.124
   90SOL    HW2  615   0.583   0.105   0.024
   91SOL     OW  616   0.781   0.264   1.749
   91SOL    HW1  617   0.848   0.203   1.792
   91SOL    HW2  618   0.708   0.283   1.814
   92SOL     OW  619   0.888   1.514   1.195
   92SOL    HW1  620   0.865   1.489   1.101
   92SOL    HW2  621   0.949   1.445   1.234
   93SOL     OW  622   1.351   0.590   1.433
   93SOL    HW1  623   1.379   0.547   1.518
   93SOL    HW2  624   1.376   0.686   1.434
   94SOL     OW  625   0.803   1.402   0.924
   94SOL    HW1  626   0.893   1.416   0.882
   94SOL    HW2  627   0.732   1.404   0.853
   95SOL     OW  628   0.922   0.503   0.899
   95SOL    HW1  629   0.897   0.494   0.803
   95SOL    HW2  630   0.970   0.421   0.930
   96SOL     OW  631   0.539   0.064   0.512
   96SOL    HW1  632   0.458   0.065   0.570
   96SOL    HW2  633   0.542   0.147   0.457
   97SOL     OW  634   1.434   1.188   0.041
   97SOL    HW1  635   1.466   1.112   0.098
   97SOL    HW2  636   1.342   1.215   0.071
   98SOL     OW  637   0.297   0.035   0.171
   98SOL    HW1  638   0.346   0.119   0.150
   98SOL    HW2  639   0.359  -0.030   0.216
   99SOL     OW  640   0.935   0.236   0.480
   99SOL    HW1  641   0.887   0.277   0.402
   99SOL    HW2  642   1.034   0.234   0.461
  100SOL     OW  643   1.076   0.683   1.464
  100SOL    HW1  644   0.996   0.622   1.467
  100SOL    HW2  645   1.157   0.630   1.440
  101SOL     OW  646   1.227   1.570   0.793
  101SOL    HW1  647   1.248   1.644   0.728
  101SOL    HW2  648   1.295   1.570   0.866
  102SOL     OW  649   0.459   1.152   0.741
  102SOL    HW1  650   0.388   1.125   0.806
  102SOL    HW2  651   0.433   1.124   0.648
  103SOL     OW  652   1.271   1.797   0.591
  103SOL    HW1  653   1.315   1.861   0.527
  103SOL    HW2  654   1.221   1.849   0.661
  104SOL     OW  655   1.032   0.549   0.016
  104SOL    HW1  656   0.991   0.631  -0.023
  104SOL    HW2  657   1.096   0.575   0.089
  105SOL     OW  658   0.078   0.556   1.386
  105SOL    HW1  659   0.170   0.555   1.345
  105SOL    HW2  660   0.072   0.630   1.453
  106SOL     OW  661   0.561   0.222   1.147
  106SOL    HW1  662   0.599   0.138   1.184
  106SOL    HW2  663   0.473   0.241   1.191
  107SOL     OW  664   0.866   0.454   0.642
  107SOL    HW1  665   0.834   0.526   0.580
  107SOL    HW2  666   0.890   0.373   0.589
  108SOL     OW  667   1.017   0.039   0.753
  108SOL    HW1  668   0.945   0.044   0.684
  108SOL    HW2  669   0.993  -0.030   0.822
  109SOL     OW  670   1.429   1.173   0.867
  109SOL    HW1  671   1.374   1.089   0.860
  109SOL    HW2  672   1.455   1.202   0.775
  110SOL     OW  673   1.466   0.590   0.992
  110SOL    HW1  674   1.436   0.495   0.999
  110SOL    HW2  675   1.539   0.606   1.058
  111SOL     OW  676   1.857   0.833   0.377
  111SOL    HW1  677   1.899   0.769   0.441
  111SOL    HW2  678   1.819   0.782   0.299
  112SOL     OW  679   0.488   1.385   0.174
  112SOL    HW1  680   0.401   1.370   0.221
  112SOL    HW2  681   0.471   1.411   0.079
  113SOL     OW  682   1.664   1.280   0.657
  113SOL    HW1  683   1.763   1.288   0.671
  113SOL    HW2  684   1.619   1.364   0.688
  114SOL     OW  685   1.390   0.575   0.078
  114SOL    HW1  686   1.336   0.554   0.159
  114SOL    HW2  687   1.481   0.534   0.087
  115SOL     OW  688   0.527   0.256   0.328
  115SOL    HW1  689   0.554   0.197   0.253
  115SOL    HW2  690   0.527   0.351   0.297
  116SOL     OW  691   1.754   1.223   1.588
  116SOL    HW1  692   1.845   1.184   1.575
  116SOL    HW2  693   1.762   1.319   1.612
  117SOL     OW  694   1.064   1.347   1.340
  117SOL    HW1  695   0.984   1.324   1.395
  117SOL    HW2  696   1.147   1.321   1.389
  118SOL     OW  697   1.592   1.629   1.625
  118SOL    HW1  698   1.619   1.663   1.535
  118SOL    HW2  699   1.671   1.591   1.671
  119SOL     OW  700   1.111   1.195   1.100
  119SOL    HW1  701   1.071   1.239   1.181
  119SOL    HW2  702   1.070   1.232   1.017
  120SOL     OW  703   1.638   1.099   1.079
  120SOL    HW1  704   1.643   1.180   1.138
  120SOL    HW2  705   1.552   1.101   1.028
  121SOL     OW  706   0.915   0.089   1.402
  121SOL    HW1  707   0.940   0.069   1.307
  121SOL    HW2  708   0.987   0.145   1.444
  122SOL     OW  709   0.980   1.116   1.719
  122SOL    HW1  710   0.881   1.122   1.729
  122SOL    HW2  711   1.003   1.036   1.663
  123SOL     OW  712   0.705   1.050   0.368
  123SOL    HW1  713   0.691   1.057   0.467
  123SOL    HW2  714   0.789   0.999   0.350
  124SOL     OW  715   0.410   0.813   1.251
  124SOL    HW1  716   0.496   0.825   1.301
  124SOL    HW2  717   0.368   0.726   1.278
  125SOL     OW  718   1.274   0.386   1.262
  125SOL    HW1  719   1.295   0.460   1.326
  125SOL    HW2  720   1.185   0.403   1.219
  126SOL     OW  721   0.064   1.564   1.331
  126SOL    HW1  722   0.018   1.646   1.297
  126SOL    HW2  723   0.162   1.583   1.340
  127SOL     OW  724   0.367   1.100   0.501
  127SOL    HW1  725   0.360   1.183   0.445
  127SOL    HW2  726   0.371   1.020   0.441
  128SOL     OW  727   0.566   0.537   0.865
  128SOL    HW1  728   0.578   0.603   0.791
  128SOL    HW2  729   0.612   0.571   0.948
  129SOL     OW  730   1.252   1.348   0.388
  129SOL    HW1  731   1.302   1.425   0.428
  129SOL    HW2  732   1.157   1.350   0.420
  130SOL     OW  733   1.272   1.445   1.142
  130SOL    HW1  734   1.319   1.458   1.229
  130SOL    HW2  735   1.206   1.371   1.151
  131SOL     OW  736   1.582   0.639   0.472
  131SOL    HW1  737   1.551   0.700   0.545
  131SOL    HW2  738   1.632   0.691   0.403
  132SOL     OW  739   0.354   1.510   1.329
  132SOL    HW1  740   0.333   1.466   1.242
  132SOL    HW2  741   0.451   1.536   1.332
  133SOL     OW  742   0.402   0.751   1.598
  133SOL    HW1  743   0.470   0.806   1.551
  133SOL    HW2  744   0.442   0.663   1.625
  134SOL     OW  745   1.587   0.779   1.670
  134SOL    HW1  746   1.495   0.817   1.665
  134SOL    HW2  747   1.647   0.826   1.605
  135SOL     OW  748   1.013   0.105   1.770
  135SOL    HW1  749   1.019   0.190   1.718
  135SOL    HW2  750   1.045   0.029   1.713
  136SOL     OW  751   0.504   0.050   1.740
  136SOL    HW1  752   0.462  -0.007   1.670
  136SOL    HW2  753   0.438   0.119   1.772
  137SOL     OW  754   0.573   0.870   1.029
  137SOL    HW1  755   0.617   0.959   1.020
  137SOL    HW2  756   0.510   0.870   1.106
  138SOL     OW  757   1.360   0.862   1.045
  138SOL    HW1  758   1.285   0.862   0.979
  138SOL    HW2  759   1.397   0.770   1.054
  139SOL     OW  760   1.209   0.525   0.275
  139SOL    HW1  761   1.222   0.441   0.329
  139SOL    HW2  762   1.180   0.599   0.335
  140SOL     OW  763   0.307   0.213   1.231
  140SOL    HW1  764   0.284   0.250   1.321
  140SOL    HW2  765   0.277   0.118   1.225
  141SOL     OW  766   0.037   1.310   1.282
  141SOL    HW1  767   0.090   1.261   1.350
  141SOL    HW2  768   0.059   1.408   1.287
  142SOL     OW  769   0.732   0.634   1.064
  142SOL    HW1  770   0.791   0.608   0.988
  142SOL    HW2  771   0.704   0.730   1.053
  143SOL     OW  772   1.728   0.935   1.854
  143SOL    HW1  773   1.682   0.928   1.765
  143SOL    HW2  774   1.666   0.979   1.920
  144SOL     OW  775   0.307   0.063   0.618
  144SOL    HW1  776   0.296   0.157   0.651
  144SOL    HW2  777   0.302   0.000   0.695
  145SOL     OW  778   1.622   0.367   0.374
  145SOL    HW1  779   1.624   0.291   0.438
  145SOL    HW2  780   1.574   0.444   0.414
  146SOL     OW  781   1.023   0.766   0.966
  146SOL    HW1  782   1.038   0.787   1.062
  146SOL    HW2  783   0.993   0.671   0.957
  147SOL     OW  784   0.980   1.573   1.700
  147SOL    HW1  785   0.960   1.617   1.612
  147SOL    HW2  786   1.019   1.482   1.684
  148SOL     OW  787   1.859   1.518   1.605
  148SOL    HW1  788   1.873   1.545   1.510
  148SOL    HW2  789   1.942   1.540   1.658
  149SOL     OW  790   0.350   0.898   1.804
  149SOL    HW1  791   0.426   0.942   1.852
  149SOL    HW2  792   0.385   0.851   1.722
  150SOL     OW  793   1.540   0.274   0.125
  150SOL    HW1  794   1.479   0.199   0.148
  150SOL    HW2  795   1.562   0.326   0.208
  151SOL     OW  796   1.303   0.838   0.042
  151SOL    HW1  797   1.337   0.745   0.057
  151SOL    HW2  798   1.321   0.865  -0.053
  152SOL     OW  799   1.068   1.333   0.849
  152SOL    HW1  800   1.075   1.249   0.794
  152SOL    HW2  801   1.130   1.402   0.813
  153SOL     OW  802   0.319   0.810   0.949
  153SOL    HW1  803   0.412   0.846   0.954
  153SOL    HW2  804   0.313   0.725   1.001
  154SOL     OW  805   0.339   0.509   1.006
  154SOL    HW1  806   0.287   0.426   0.989
  154SOL    HW2  807   0.416   0.514   0.942
  155SOL     OW  808   1.138   0.380   1.678
  155SOL    HW1  809   1.093   0.443   1.742
  155SOL    HW2  810   1.231   0.411   1.661
  156SOL     OW  811   1.160   0.207   1.477
  156SOL    HW1  812   1.160   0.271   1.554
  156SOL    HW2  813   1.188   0.255   1.394
  157SOL     OW  814   0.008   1.326   0.200
  157SOL    HW1  815  -0.085   1.347   0.169
  157SOL    HW2  816   0.018   1.227   0.213
  158SOL     OW  817   0.088   1.801   0.927
  158SOL    HW1  818   0.046   1.715   0.900
  158SOL    HW2  819   0.182   1.804   0.893
  159SOL     OW  820   0.504   1.568   0.910
  159SOL    HW1  821   0.570   1.642   0.919
  159SOL    HW2  822   0.548   1.489   0.868
  160SOL     OW  823   1.002   0.796   1.238
  160SOL    HW1  824   1.043   0.764   1.324
  160SOL    HW2  825   0.906   0.769   1.235
  161SOL     OW  826   0.040   0.544   1.114
  161SOL    HW1  827   0.125   0.511   1.073
  161SOL    HW2  828   0.053   0.559   1.212
  162SOL     OW  829   0.189   0.520   1.722
  162SOL    HW1  830   0.248   0.480   1.652
  162SOL    HW2  831   0.131   0.591   1.681
  163SOL     OW  832   1.369   0.950   1.660
  163SOL    HW1  833   1.408   1.039   1.680
  163SOL    HW2  834   1.379   0.930   1.563
  164SOL     OW  835   0.815   0.572   0.325
  164SOL    HW1  836   0.822   0.483   0.279
  164SOL    HW2  837   0.721   0.606   0.317
  165SOL     OW  838   1.657   0.604   1.206
  165SOL    HW1  839   1.619   0.535   1.268
  165SOL    HW2  840   1.739   0.568   1.162
  166SOL     OW  841   0.252   1.564   1.744
  166SOL    HW1  842   0.222   1.621   1.820
  166SOL    HW2  843   0.245   1.467   1.770
  167SOL     OW  844   0.671   0.464   1.269
  167SOL    HW1  845   0.637   0.375   1.239
  167SOL    HW2  846   0.697   0.518   1.189
  168SOL     OW  847   0.930   1.678   1.465
  168SOL    HW1  848   0.906   1.660   1.370
  168SOL    HW2  849   0.960   1.772   1.475
  169SOL     OW  850   0.473   0.500   0.191
  169SOL    HW1  851   0.534   0.580   0.195
  169SOL    HW2  852   0.378   0.531   0.198
  170SOL     OW  853   0.159   1.137   1.466
  170SOL    HW1  854   0.181   1.076   1.542
  170SOL    HW2  855   0.169   1.088   1.380
  171SOL     OW  856   1.347   1.059   1.234
  171SOL    HW1  857   1.371   0.996   1.160
  171SOL    HW2  858   1.257   1.099   1.216
  172SOL     OW  859   1.302   0.855   0.309
  172SOL    HW1  860   1.216   0.824   0.351
  172SOL    HW2  861   1.298   0.841   0.210
  173SOL     OW  862   1.759   1.747   1.154
  173SOL    HW1  863   1.820   1.777   1.081
  173SOL    HW2  864   1.721   1.658   1.132
  174SOL     OW  865   1.252   1.731   1.128
  174SOL    HW1  866   1.336   1.736   1.074
  174SOL    HW2  867   1.229   1.635   1.146
  175SOL     OW  868   0.083   1.258   1.022
  175SOL    HW1  869   0.078   1.257   1.122
  175SOL    HW2  870   0.000   1.217   0.984
  176SOL     OW  871   0.688   1.662   1.716
  176SOL    HW1  872   0.632   1.743   1.725
  176SOL    HW2  873   0.740   1.666   1.630
  177SOL     OW  874   0.903   0.086   0.133
  177SOL    HW1  875   0.954   0.087   0.047
  177SOL    HW2  876   0.959   0.044   0.204
  178SOL     OW  877   1.726   0.135   0.523
  178SOL    HW1  878   1.799   0.118   0.456
  178SOL    HW2  879   1.695   0.048   0.561
  179SOL     OW  880   1.388   1.573   0.477
  179SOL    HW1  881   1.455   1.585   0.403
  179SOL    HW2  882   1.348   1.662   0.500
  180SOL     OW  883   0.130   1.794   1.851
  180SOL    HW1  884   0.089   1.720   1.904
  180SOL    HW2  885   0.194   1.845   1.909
  181SOL     OW  886   1.280   0.927   0.672
  181SOL    HW1  887   1.340   0.846   0.674
  181SOL    HW2  888   1.320   0.996   0.612
  182SOL     OW  889   0.830   1.273   1.422
  182SOL    HW1  890   0.825   1.306   1.517
  182SOL    HW2  891   0.744   1.292   1.376
  183SOL     OW  892   0.672   1.616   0.154
  183SOL    HW1  893   0.681   1.626   0.055
  183SOL    HW2  894   0.632   1.527   0.175
  184SOL     OW  895   1.650   1.720   1.394
  184SOL    HW1  896   1.703   1.730   1.310
  184SOL    HW2  897   1.623   1.810   1.428
  185SOL     OW  898   1.841   0.175   0.963
  185SOL    HW1  899   1.880   0.090   0.927
  185SOL    HW2  900   1.743   0.177   0.944
  186SOL     OW  901   0.263   0.326   0.720
  186SOL    HW1  902   0.184   0.377   0.686
  186SOL    HW2  903   0.254   0.311   0.818
  187SOL     OW  904   1.194   1.612   0.031
  187SOL    HW1  905   1.200   1.519   0.068
  187SOL    HW2  906   1.135   1.612  -0.049
  188SOL     OW  907   0.822   1.002   1.372
  188SOL    HW1  908   0.862   1.001   1.280
  188SOL    HW2  909   0.832   1.094   1.412
  189SOL     OW  910   0.916   0.910   0.291
  189SOL    HW1  911   0.979   0.948   0.223
  189SOL    HW2  912   0.956   0.827   0.330
  190SOL     OW  913   1.504   1.607   0.044
  190SOL    HW1  914   1.412   1.644   0.051
  190SOL    HW2  915   1.542   1.627  -0.046
  191SOL     OW  916   1.614   1.292   1.289
  191SOL    HW1  917   1.674   1.295   1.369
  191SOL    HW2  918   1.539   1.356   1.302
  192SOL     OW  919   1.039   1.098   0.696
  192SOL    HW1  920   0.969   1.051   0.750
  192SOL    HW2  921   1.098   1.030   0.653
  193SOL     OW  922   1.014   0.236   0.971
  193SOL    HW1  923   1.006   0.200   0.878
  193SOL    HW2  924   1.012   0.160   1.036
  194SOL     OW  925   0.590   1.487   0.491
  194SOL    HW1  926   0.632   1.429   0.421
  194SOL    HW2  927   0.546   1.566   0.447
  195SOL     OW  928   1.709   0.385   1.381
  195SOL    HW1  929   1.782   0.454   1.385
  195SOL    HW2  930   1.737   0.310   1.322
  196SOL     OW  931   0.255   1.348   0.290
  196SOL    HW1  932   0.159   1.349   0.263
  196SOL    HW2  933   0.267   1.401   0.374
  197SOL     OW  934   0.105   1.013   1.726
  197SOL    HW1  935   0.028   0.980   1.780
  197SOL    HW2  936   0.190   0.983   1.768
  198SOL     OW  937   0.672   0.203   1.489
  198SOL    HW1  938   0.762   0.187   1.449
  198SOL    HW2  939   0.680   0.208   1.588
  199SOL     OW  940   0.075   0.345   0.033
  199SOL    HW1  941  -0.017   0.317   0.004
  199SOL    HW2  942   0.106   0.422  -0.023
  200SOL     OW  943   1.440   0.856   1.398
  200SOL    HW1  944   1.383   0.908   1.335
  200SOL    HW2  945   1.536   0.868   1.374
  201SOL     OW  946   0.072   0.166   0.318
  201SOL    HW1  947   0.055   0.249   0.264
  201SOL    HW2  948   0.162   0.129   0.296
  202SOL     OW  949   1.183   1.335   0.119
  202SOL    HW1  950   1.084   1.324   0.121
  202SOL    HW2  951   1.217   1.350   0.212
  203SOL     OW  952   0.613   0.842   1.431
  203SOL    HW1  953   0.669   0.923   1.414
  203SOL    HW2  954   0.672   0.762   1.434
  204SOL     OW  955   1.493   1.767   0.959
  204SOL    HW1  956   1.526   1.831   0.890
  204SOL    HW2  957   1.559   1.761   1.034
  205SOL     OW  958   0.716   0.565   1.708
  205SOL    HW1  959   0.735   0.630   1.782
  205SOL    HW2  960   0.776   0.485   1.717
  206SOL     OW  961   1.450   1.220   1.633
  206SOL    HW1  962   1.441   1.210   1.732
  206SOL    HW2  963   1.546   1.213   1.607
  207SOL     OW  964   0.390   1.741   1.560
  207SOL    HW1  965   0.299   1.782   1.558
  207SOL    HW2  966   0.383   1.647   1.592
  208SOL     OW  967   1.674   0.883   1.254
  208SOL    HW1  968   1.647   0.794   1.217
  208SOL    HW2  969   1.675   0.951   1.181
  209SOL     OW  970   1.225   0.325   0.449
  209SOL    HW1  971   1.290   0.251   0.438
  209SOL    HW2  972   1.245   0.375   0.533
  210SOL     OW  973   1.777   0.342   1.642
  210SOL    HW1  974   1.760   0.373   1.548
  210SOL    HW2  975   1.693   0.305   1.680
  211SOL     OW  976   1.730   0.934   1.517
  211SOL    HW1  977   1.768   1.025   1.532
  211SOL    HW2  978   1.722   0.917   1.418
  212SOL     OW  979   0.859   1.374   0.016
  212SOL    HW1  980   0.813   1.389   0.104
  212SOL    HW2  981   0.903   1.459  -0.014
  213SOL     OW  982   0.661   1.790   0.953
  213SOL    HW1  983   0.615   1.878   0.940
  213SOL    HW2  984   0.760   1.802   0.946
  214SOL     OW  985   0.859   0.956   0.861
  214SOL    HW1  986   0.913   0.887   0.909
  214SOL    HW2  987   0.827   1.025   0.927
  215SOL     OW  988   1.083   0.984   0.087
  215SOL    HW1  989   1.060   1.037   0.005
  215SOL    HW2  990   1.164   0.928   0.068
  216SOL     OW  991   1.861   1.569   0.851
  216SOL    HW1  992   1.790   1.557   0.781
  216SOL    HW2  993   1.862   1.490   0.911
  217SOL     OW  994   0.221   1.314   1.844
  217SOL    HW1  995   0.156   1.241   1.823
  217SOL    HW2  996   0.225   1.328   1.942
  218SOL     OW  997   0.079   1.240   0.653
  218SOL    HW1  998   0.078   1.193   0.741
  218SOL    HW2  999   0.161   1.212   0.602
  219SOL     OW 1000   0.672   1.391   1.624
  219SOL    HW1 1001   0.594   1.341   1.662
  219SOL    HW2 1002   0.669   1.486   1.655
  220SOL     OW 1003   1.824   0.192   1.227
  220SOL    HW1 1004   1.820   0.102   1.271
  220SOL    HW2 1005   1.827   0.181   1.128
  221SOL     OW 1006   0.428   0.424   0.520
  221SOL    HW1 1007   0.458   0.352   0.458
  221SOL    HW2 1008   0.389   0.384   0.603
  222SOL     OW 1009   1.705   1.487   1.104
  222SOL    HW1 1010   1.612   1.462   1.077
  222SOL    HW2 1011   1.731   1.437   1.186
  223SOL     OW 1012   0.317   0.547   1.280
  223SOL    HW1 1013   0.355   0.488   1.352
  223SOL    HW2 1014   0.357   0.521   1.192
  224SOL     OW 1015   0.812   1.586   0.687
  224SOL    HW1 1016   0.844   1.596   0.593
  224SOL    HW2 1017   0.733   1.524   0.689
  225SOL     OW 1018   1.424   0.214   1.112
  225SOL    HW1 1019   1.476   0.149   1.167
  225SOL    HW2 1020   1.375   0.277   1.173
  226SOL     OW 1021   1.001   0.034   1.154
  226SOL    HW1 1022   0.938  -0.038   1.123
  226SOL    HW2 1023   1.094  -0.002   1.154
  227SOL     OW 1024   0.770   1.330   0.301
  227SOL    HW1 1025   0.724   1.243   0.318
  227SOL    HW2 1026   0.861   1.327   0.342
  228SOL     OW 1027   0.618   1.567   1.284
  228SOL    HW1 1028   0.613   1.649   1.341
  228SOL    HW2 1029   0.707   1.564   1.239
  229SOL     OW 1030   1.352   0.052   0.168
  229SOL    HW1 1031   1.387   0.011   0.084
  229SOL    HW2 1032   1.262   0.014   0.188
  230SOL     OW 1033   1.300   0.453   0.691
  230SOL    HW1 1034   1.241   0.533   0.695
  230SOL    HW2 1035   1.315   0.418   0.784
  231SOL     OW 1036   1.593   0.221   0.882
  231SOL    HW1 1037   1.509   0.220   0.936
  231SOL    HW2 1038   1.595   0.304   0.826
  232SOL     OW 1039   0.039   1.077   0.300
  232SOL    HW1 1040   0.138   1.066   0.291
  232SOL    HW2 1041  -0.001   0.991   0.332
  233SOL     OW 1042   0.875   1.646   0.337
  233SOL    HW1 1043   0.798   1.611   0.283
  233SOL    HW2 1044   0.843   1.717   0.399
  234SOL     OW 1045   0.230   0.628   1.975
  234SOL    HW1 1046   0.137   0.626   2.012
  234SOL    HW2 1047   0.231   0.589   1.883
  235SOL     OW 1048   0.225   0.275   2.858
  235SOL    HW1 1049   0.260   0.258   2.950
  235SOL    HW2 1050   0.137   0.230   2.846
  236SOL     OW 1051   0.019   0.368   2.509
  236SOL    HW1 1052  -0.063   0.411   2.548
  236SOL    HW2 1053  -0.009   0.295   2.446
  237SOL     OW 1054   0.569   1.275   3.027
  237SOL    HW1 1055   0.476   1.268   2.990
  237SOL    HW2 1056   0.580   1.364   3.071
  238SOL     OW 1057   1.555   1.511   2.565
  238SOL    HW1 1058   1.498   1.495   2.646
  238SOL    HW2 1059   1.496   1.521   2.485
  239SOL     OW 1060   1.135   0.703   2.579
  239SOL    HW1 1061   1.192   0.781   2.554
  239SOL    HW2 1062   1.075   0.729   2.655
  240SOL     OW 1063   1.755   0.607   2.093
  240SOL    HW1 1064   1.743   0.594   1.994
  240SOL    HW2 1065   1.725   0.526   2.142
  241SOL     OW 1066   0.768   1.144   2.885
  241SOL    HW1 1067   0.690   1.161   2.945
  241SOL    HW2 1068   0.802   1.231   2.849
  242SOL     OW 1069   0.850   0.798   3.685
  242SOL    HW1 1070   0.846   0.874   3.750
  242SOL    HW2 1071   0.872   0.834   3.594
  243SOL     OW 1072   0.685   1.012   2.527
  243SOL    HW1 1073   0.754   0.996   2.597
  243SOL    HW2 1074   0.612   1.069   2.565
  244SOL     OW 1075   0.686   1.161   3.665
  244SOL    HW1 1076   0.746   1.240   3.679
  244SOL    HW2 1077   0.600   1.192   3.624
  245SOL     OW 1078   0.335   1.435   2.923
  245SOL    HW1 1079   0.257   1.404   2.870
  245SOL    HW2 1080   0.393   1.493   2.866
  246SOL     OW 1081   1.460   1.505   3.201
  246SOL    HW1 1082   1.484   1.599   3.227
  246SOL    HW2 1083   1.444   1.451   3.283
  247SOL     OW 1084   0.438   0.392   3.361
  247SOL    HW1 1085   0.520   0.336   3.370
  247SOL    HW2 1086   0.357   0.334   3.365
  248SOL     OW 1087   1.603   0.447   2.599
  248SOL    HW1 1088   1.529   0.493   2.549
  248SOL    HW2 1089   1.654   0.515   2.652
  249SOL     OW 1090   0.231   1.713   2.345
  249SOL    HW1 1091   0.265   1.790   2.399
  249SOL    HW2 1092   0.275   1.713   2.255
  250SOL     OW 1093   1.127   1.341   3.552
  250SOL    HW1 1094   1.174   1.341   3.640
  250SOL    HW2 1095   1.079   1.254   3.541
  251SOL     OW 1096   0.230   1.434   2.400
  251SOL    HW1 1097   0.204   1.530   2.400
  251SOL    HW2 1098   0.159   1.380   2.445
  252SOL     OW 1099   0.240   1.091   2.748
  252SOL    HW1 1100   0.254   1.007   2.800
  252SOL    HW2 1101   0.185   1.155   2.803
  253SOL     OW 1102   0.620   1.786   3.301
  253SOL    HW1 1103   0.528   1.769   3.336
  253SOL    HW2 1104   0.648   1.878   3.327
  254SOL     OW 1105   0.606   0.964   1.985
  254SOL    HW1 1106   0.613   1.048   1.931
  254SOL    HW2 1107   0.652   0.977   2.073
  255SOL     OW 1108   1.594   0.114   3.342
  255SOL    HW1 1109   1.576   0.181   3.270
  255SOL    HW2 1110   1.591   0.160   3.431
  256SOL     OW 1111   0.122   0.643   2.425
  256SOL    HW1 1112   0.077   0.555   2.442
  256SOL    HW2 1113   0.121   0.697   2.509
  257SOL     OW 1114   1.842   1.767   2.221
  257SOL    HW1 1115   1.896   1.738   2.301
  257SOL    HW2 1116   1.872   1.857   2.192
  258SOL     OW 1117   0.027   1.596   1.979
  258SOL    HW1 1118   0.008   1.500   2.000
  258SOL    HW2 1119  -0.006   1.654   2.054
  259SOL     OW 1120   1.689   0.922   2.474
  259SOL    HW1 1121   1.784   0.893   2.482
  259SOL    HW2 1122   1.681   0.987   2.399
  260SOL     OW 1123   1.641   1.108   2.294
  260SOL    HW1 1124   1.727   1.110   2.242
  260SOL    HW2 1125   1.655   1.155   2.382
  261SOL     OW 1126   0.113   0.737   3.459
  261SOL    HW1 1127   0.201   0.724   3.504
  261SOL    HW2 1128   0.100   0.834   3.437
  262SOL     OW 1129   0.613   1.365   2.588
  262SOL    HW1 1130   0.564   1.278   2.597
  262SOL    HW2 1131   0.590   1.408   2.501
  263SOL     OW 1132   1.293   1.228   3.285
  263SOL    HW1 1133   1.330   1.155   3.227
  263SOL    HW2 1134   1.345   1.233   3.370
  264SOL     OW 1135   0.809   0.004   2.364
  264SOL    HW1 1136   0.849   0.095   2.355
  264SOL    HW2 1137   0.709   0.012   2.370
  265SOL     OW 1138   0.197   0.976   3.126
  265SOL    HW1 1139   0.286   0.931   3.112
  265SOL    HW2 1140   0.124   0.911   3.107
  266SOL     OW 1141   1.525   0.999   2.052
  266SOL    HW1 1142   1.462   0.923   2.065
  266SOL    HW2 1143   1.573   1.017   2.138
  267SOL     OW 1144   1.187   1.792   3.478
  267SOL    HW1 1145   1.211   1.852   3.402
  267SOL    HW2 1146   1.194   1.697   3.448
  268SOL     OW 1147   0.317   0.251   3.663
  268SOL    HW1 1148   0.388   0.322   3.669
  268SOL    HW2 1149   0.229   0.290   3.691
  269SOL     OW 1150   1.466   1.417   2.815
  269SOL    HW1 1151   1.407   1.423   2.895
  269SOL    HW2 1152   1.451   1.329   2.769
  270SOL     OW 1153   1.667   1.714   2.434
  270SOL    HW1 1154   1.626   1.691   2.346
  270SOL    HW2 1155   1.649   1.640   2.499
  271SOL     OW 1156   0.598   0.729   2.132
  271SOL    HW1 1157   0.622   0.798   2.064
  271SOL    HW2 1158   0.520   0.762   2.186
  272SOL     OW 1159   1.281   0.345   2.806
  272SOL    HW1 1160   1.195   0.295   2.793
  272SOL    HW2 1161   1.343   0.291   2.862
  273SOL     OW 1162   1.576   1.662   2.169
  273SOL    HW1 1163   1.665   1.708   2.172
  273SOL    HW2 1164   1.555   1.638   2.074
  274SOL     OW 1165   0.807   0.605   3.327
  274SOL    HW1 1166   0.760   0.602   3.416
  274SOL    HW2 1167   0.756   0.550   3.261
  275SOL     OW 1168   1.394   0.469   3.536
  275SOL    HW1 1169   1.374   0.512   3.624
  275SOL    HW2 1170   1.472   0.407   3.545
  276SOL     OW 1171   0.973   0.890   3.434
  276SOL    HW1 1172   1.019   0.806   3.405
  276SOL    HW2 1173   0.917   0.924   3.359
  277SOL     OW 1174   0.991   0.410   3.104
  277SOL    HW1 1175   0.914   0.444   3.158
  277SOL    HW2 1176   0.957   0.359   3.025
  278SOL     OW 1177   1.041   0.701   2.291
  278SOL    HW1 1178   1.067   0.697   2.387
  278SOL    HW2 1179   0.956   0.650   2.277
  279SOL     OW 1180   0.076   0.811   2.651
  279SOL    HW1 1181   0.175   0.799   2.660
  279SOL    HW2 1182   0.052   0.906   2.672
  280SOL     OW 1183   0.130   1.821   3.433
  280SOL    HW1 1184   0.120   1.806   3.532
  280SOL    HW2 1185   0.044   1.857   3.397
  281SOL     OW 1186   0.865   0.348   2.057
  281SOL    HW1 1187   0.924   0.411   2.008
  281SOL    HW2 1188   0.884   0.254   2.028
  282SOL     OW 1189   1.719   0.585   3.693
  282SOL    HW1 1190   1.693   0.674   3.657
  282SOL    HW2 1191   1.717   0.517   3.620
  283SOL     OW 1192   1.362   1.144   2.407
  283SOL    HW1 1193   1.445   1.115   2.359
  283SOL    HW2 1194   1.313   1.211   2.351
  284SOL     OW 1195   0.550   0.196   2.747
  284SOL    HW1 1196   0.545   0.191   2.847
  284SOL    HW2 1197   0.552   0.292   2.718
  285SOL     OW 1198   1.008   1.456   2.339
  285SOL    HW1 1199   0.962   1.528   2.287
  285SOL    HW2 1200   1.004   1.476   2.437
  286SOL     OW 1201   0.351   1.801   2.715
  286SOL    HW1 1202   0.401   1.715   2.721
  286SOL    HW2 1203   0.416   1.878   2.712
  287SOL     OW 1204   1.795   1.066   2.735
  287SOL    HW1 1205   1.733   1.051   2.659
  287SOL    HW2 1206   1.743   1.077   2.820
  288SOL     OW 1207   1.227   1.550   3.368
  288SOL    HW1 1208   1.233   1.473   3.432
  288SOL    HW2 1209   1.175   1.524   3.288
  289SOL     OW 1210   0.321   0.943   2.104
  289SOL    HW1 1211   0.403   0.982   2.062
  289SOL    HW2 1212   0.294   0.861   2.055
  290SOL     OW 1213   1.458   0.735   2.590
  290SOL    HW1 1214   1.453   0.670   2.665
  290SOL    HW2 1215   1.538   0.794   2.603
  291SOL     OW 1216   0.461   1.266   3.589
  291SOL    HW1 1217   0.411   1.267   3.503
  291SOL    HW2 1218   0.398   1.248   3.665
  292SOL     OW 1219   1.111   1.776   2.099
  292SOL    HW1 1220   1.051   1.714   2.149
  292SOL    HW2 1221   1.142   1.732   2.014
  293SOL     OW 1222   0.202   0.285   3.360
  293SOL    HW1 1223   0.122   0.345   3.347
  293SOL    HW2 1224   0.192   0.236   3.446
  294SOL     OW 1225   1.632   1.377   1.943
  294SOL    HW1 1226   1.600   1.471   1.933
  294SOL    HW2 1227   1.556   1.314   1.931
  295SOL     OW 1228   0.464   1.743   2.185
  295SOL    HW1 1229   0.497   1.782   2.271
  295SOL    HW2 1230   0.540   1.736   2.120
  296SOL     OW 1231   1.400   0.107   2.288
  296SOL    HW1 1232   1.376   0.070   2.198
  296SOL    HW2 1233   1.499   0.123   2.292
  297SOL     OW 1234   0.249   1.785   3.103
  297SOL    HW1 1235   0.306   1.720   3.153
  297SOL    HW2 1236   0.233   1.752   3.010
  298SOL     OW 1237   0.940   1.698   2.766
  298SOL    HW1 1238   1.020   1.641   2.787
  298SOL    HW2 1239   0.891   1.658   2.689
  299SOL     OW 1240   0.382   0.700   2.342
  299SOL    HW1 1241   0.427   0.610   2.339
  299SOL    HW2 1242   0.288   0.689   2.375
  300SOL     OW 1243   1.547   0.222   3.591
  300SOL    HW1 1244   1.542   0.259   3.683
  300SOL    HW2 1245   1.475   0.153   3.579
  301SOL     OW 1246   0.614   0.122   1.979
  301SOL    HW1 1247   0.712   0.100   1.986
  301SOL    HW2 1248   0.583   0.105   1.886
  302SOL     OW 1249   0.781   0.264   3.611
  302SOL    HW1 1250   0.848   0.203   3.654
  302SOL    HW2 1251   0.708   0.283   3.676
  303SOL     OW 1252   0.888   1.514   3.057
  303SOL    HW1 1253   0.865   1.489   2.963
  303SOL    HW2 1254   0.949   1.445   3.096
  304SOL     OW 1255   1.351   0.590   3.295
  304SOL    HW1 1256   1.379   0.547   3.380
  304SOL    HW2 1257   1.376   0.686   3.296
  305SOL     OW 1258   0.803   1.402   2.786
  305SOL    HW1 1259   0.893   1.416   2.744
  305SOL    HW2 1260   0.732   1.404   2.715
  306SOL     OW 1261   0.922   0.503   2.761
  306SOL    HW1 1262   0.897   0.494   2.665
  306SOL    HW2 1263   0.970   0.421   2.792
  307SOL     OW 1264   0.539   0.064   2.374
  307SOL    HW1 1265   0.458   0.065   2.432
  307SOL    HW2 1266   0.542   0.147   2.319
  308SOL     OW 1267   1.434   1.188   1.903
  308SOL    HW1 1268   1.466   1.112   1.960
  308SOL    HW2 1269   1.342   1.215   1.933
  309SOL     OW 1270   0.297   0.035   2.033
  309SOL    HW1 1271   0.346   0.119   2.012
  309SOL    HW2 1272   0.359  -0.030   2.078
  310SOL     OW 1273   0.935   0.236   2.342
  310SOL    HW1 1274   0.887   0.277   2.264
  310SOL    HW2 1275   1.034   0.234   2.323
  311SOL     OW 1276   1.076   0.683   3.326
  311SOL    HW1 1277   0.996   0.622   3.329
  311SOL    HW2 1278   1.157   0.630   3.302
  312SOL     OW 1279   1.227   1.570   2.655
  312SOL    HW1 1280   1.248   1.644   2.590
  312SOL    HW2 1281   1.295   1.570   2.728
  313SOL     OW 1282   0.459   1.152   2.603
  313SOL    HW1 1283   0.388   1.125   2.668
  313SOL    HW2 1284   0.433   1.124   2.510
  314SOL     OW 1285   1.271   1.797   2.453
  314SOL    HW1 1286   1.315   1.861   2.389
  314SOL    HW2 1287   1.221   1.849   2.523
  315SOL     OW 1288   1.032   0.549   1.878
  315SOL    HW1 1289   0.991   0.631   1.839
  315SOL    HW2 1290   1.096   0.575   1.951
  316SOL     OW 1291   0.078   0.556   3.248
  316SOL    HW1 1292   0.170   0.555   3.207
  316SOL    HW2 1293   0.072   0.630   3.315
  317SOL     OW 1294   0.561   0.222   3.009
  317SOL    HW1 1295   0.599   0.138   3.046
  317SOL    HW2 1296   0.473   0.241   3.053
  318SOL     OW 1297   0.866   0.454   2.504
  318SOL    HW1 1298   0.834   0.526   2.442
  318SOL    HW2 1299   0.890   0.373   2.451
  319SOL     OW 1300   1.017   0.039   2.615
  319SOL    HW1 1301   0.945   0.044   2.546
  319SOL    HW2 1302   0.993  -0.030   2.684
  320SOL     OW 1303   1.429   1.173   2.729
  320SOL    HW1 1304   1.374   1.089   2.722
  320SOL    HW2 1305   1.455   1.202   2.637
  321SOL     OW 1306   1.466   0.590   2.854
  321SOL    HW1 1307   1.436   0.495   2.861
  321SOL    HW2 1308   1.539   0.606   2.920
  322SOL     OW 1309   1.857   0.833   2.239
  322SOL    HW1 1310   1.899   0.769   2.303
  322SOL    HW2 1311   1.819   0.782   2.161
  323SOL     OW 1312   0.488   1.385   2.036
  323SOL    HW1 1313   0.401   1.370   2.083
  323SOL    HW2 1314   0.471   1.411   1.941
  324SOL     OW 1315   1.664   1.280   2.519
  324SOL    HW1 1316   1.763   1.288   2.533
  324SOL    HW2 1317   1.619   1.364   2.550
  325SOL     OW 1318   1.390   0.575   1.940
  325SOL    HW1 1319   1.336   0.554   2.021
  325SOL    HW2 1320   1.481   0.534   1.949
  326SOL     OW 1321   0.527   0.256   2.190
  326SOL    HW1 1322   0.554   0.197   2.115
  326SOL    HW2 1323   0.527   0.351   2.159
  327SOL     OW 1324   1.754   1.223   3.450
  327SOL    HW1 1325   1.845   1.184   3.437
  327SOL    HW2 1326   1.762   1.319   3.474
  328SOL     OW 1327   1.064   1.347   3.202
  328SOL    HW1 1328   0.984   1.324   3.257
  328SOL    HW2 1329   1.147   1.321   3.251
  329SOL     OW 1330   1.592   1.629   3.487
  329SOL    HW1 1331   1.619   1.663   3.397
  329SOL    HW2 1332   1.671   1.591   3.533
  330SOL     OW 1333   1.111   1.195   2.962
  330SOL    HW1 1334   1.071   1.239   3.043
  330SOL    HW2 1335   1.070   1.232   2.879
  331SOL     OW 1336   1.638   1.099   2.941
  331SOL    HW1 1337   1.643   1.180   3.000
  331SOL    HW2 1338   1.552   1.101   2.890
  332SOL     OW 1339   0.915   0.089   3.264
  332SOL    HW1 1340   0.940   0.069   3.169
  332SOL    HW2 1341   0.987   0.145   3.306
  333SOL     OW 1342   0.980   1.116   3.581
  333SOL    HW1 1343   0.881   1.122   3.591
  333SOL    HW2 1344   1.003   1.036   3.525
  334SOL     OW 1345   0.705   1.050   2.230
  334SOL    HW1 1346   0.691   1.057   2.329
  334SOL    HW2 1347   0.789   0.999   2.212
  335SOL     OW 1348   0.410   0.813   3.113
  335SOL    HW1 1349   0.496   0.825   3.163
  335SOL    HW2 1350   0.368   0.726   3.140
  336SOL     OW 1351   1.274   0.386   3.124
  336SOL    HW1 1352   1.295   0.460   3.188
  336SOL    HW2 1353   1.185   0.403   3.081
  337SOL     OW 1354   0.064   1.564   3.193
  337SOL    HW1 1355   0.018   1.646   3.159
  337SOL    HW2 1356   0.162   1.583   3.202
  338SOL     OW 1357   0.367   1.100   2.363
  338SOL    HW1 1358   0.360   1.183   2.307
  338SOL    HW2 1359   0.371   1.020   2.303
  339SOL     OW 1360   0.566   0.537   2.727
  339SOL    HW1 1361   0.578   0.603   2.653
  339SOL    HW2 1362   0.612   0.571   2.810
  340SOL     OW 1363   1.252   1.348   2.250
  340SOL    HW1 1364   1.302   1.425   2.290
  340SOL    HW2 1365   1.157   1.350   2.282
  341SOL     OW 1366   1.272   1.445   3.004
  341SOL    HW1 1367   1.319   1.458   3.091
  341SOL    HW2 1368   1.206   1.371   3.013
  342SOL     OW 1369   1.582   0.639   2.334
  342SOL    HW1 1370   1.551   0.700   2.407
  342SOL    HW2 1371   1.632   0.691   2.265
  343SOL     OW 1372   0.354   1.510   3.191
  343SOL    HW1 1373   0.333   1.466   3.104
  343SOL    HW2 1374   0.451   1.536   3.194
  344SOL     OW 1375   0.402   0.751   3.460
  344SOL    HW1 1376   0.470   0.806   3.413
  344SOL    HW2 1377   0.442   0.663   3.487
  345SOL     OW 1378   1.587   0.779   3.532
  345SOL    HW1 1379   1.495   0.817   3.527
  345SOL    HW2 1380   1.647   0.826   3.467
  346SOL     OW 1381   1.013   0.105   3.632
  346SOL    HW1 1382   1.019   0.190   3.580
  346SOL    HW2 1383   1.045   0.029   3.575
  347SOL     OW 1384   0.504   0.050   3.602
  347SOL    HW1 1385   0.462  -0.007   3.532
  347SOL    HW2 1386   0.438   0.119   3.634
  348SOL     OW 1387   0.573   0.870   2.891
  348SOL    HW1 1388   0.617   0.959   2.882
  348SOL    HW2 1389   0.510   0.870   2.968
  349SOL     OW 1390   1.360   0.862   2.907
  349SOL    HW1 1391   1.285   0.862   2.841
  349SOL    HW2 1392   1.397   0.770   2.916
  350SOL     OW 1393   1.209   0.525   2.137
  350SOL    HW1 1394   1.222   0.441   2.191
  350SOL    HW2 1395   1.180   0.599   2.197
  351SOL     OW 1396   0.307   0.213   3.093
  351SOL    HW1 1397   0.284   0.250   3.183
  351SOL    HW2 1398   0.277   0.118   3.087
  352SOL     OW 1399   0.037   1.310   3.144
  352SOL    HW1 1400   0.090   1.261   3.212
  352SOL    HW2 1401   0.059   1.408   3.149
  353SOL     OW 1402   0.732   0.634   2.926
  353SOL    HW1 1403   0.791   0.608   2.850
  353SOL    HW2 1404   0.704   0.730   2.915
  354SOL     OW 1405   1.728   0.935   3.716
  354SOL    HW1 1406   1.682   0.928   3.627
  354SOL    HW2 1407   1.666   0.979   3.782
  355SOL     OW 1408   0.307   0.063   2.480
  355SOL    HW1 1409   0.296   0.157   2.513
  355SOL    HW2 1410   0.302   0.000   2.557
  356SOL     OW 1411   1.622   0.367   2.236
  356SOL    HW1 1412   1.624   0.291   2.300
  356SOL    HW2 1413   1.574   0.444   2.276
  357SOL     OW 1414   1.023   0.766   2.828
  357SOL    HW1 1415   1.038   0.787   2.924
  357SOL    HW2 1416   0.993   0.671   2.819
  358SOL     OW 1417   0.980   1.573   3.562
  358SOL    HW1 1418   0.960   1.617   3.474
  358SOL    HW2 1419   1.019   1.482   3.546
  359SOL     OW 1420   1.859   1.518   3.467
  359SOL    HW1 1421   1.873   1.545   3.372
  359SOL    HW2 1422   1.942   1.540   3.520
  360SOL     OW 1423   0.350   0.898   3.666
  360SOL    HW1 1424   0.426   0.942   3.714
  360SOL    HW2 1425   0.385   0.851   3.584
  361SOL     OW 1426   1.540   0.274   1.987
  361SOL    HW1 1427   1.479   0.199   2.010
  361SOL    HW2 1428   1.562   0.326   2.070
  362SOL     OW 1429   1.303   0.838   1.904
  362SOL    HW1 1430   1.337   0.745   1.919
  362SOL    HW2 1431   1.321   0.865   1.809
  363SOL     OW 1432   1.068   1.333   2.711
  363SOL    HW1 1433   1.075   1.249   2.656
  363SOL    HW2 1434   1.130   1.402   2.675
  364SOL     OW 1435   0.319   0.810   2.811
  364SOL    HW1 1436   0.412   0.846   2.816
  364SOL    HW2 1437   0.313   0.725   2.863
  365SOL     OW 1438   0.339   0.509   2.868
  365SOL    HW1 1439   0.287   0.426   2.851
  365SOL    HW2 1440   0.416   0.514   2.804
  366SOL     OW 1441   1.138   0.380   3.540
  366SOL    HW1 1442   1.093   0.443   3.604
  366SOL    HW2 1443   1.231   0.411   3.523
  367SOL     OW 1444   1.160   0.207   3.339
  367SOL    HW1 1445   1.160   0.271   3.416
  367SOL    HW2 1446   1.188   0.255   3.256
  368SOL     OW 1447   0.008   1.326   2.062
  368SOL    HW1 1448  -0.085   1.347   2.031
  368SOL    HW2 1449   0.018   1.227   2.075
  369SOL     OW 1450   0.088   1.801   2.789
  369SOL    HW1 1451   0.046   1.715   2.762
  369SOL    HW2 1452   0.182   1.804   2.755
  370SOL     OW 1453   0.504   1.568   2.772
  370SOL    HW1 1454   0.570   1.642   2.781
  370SOL    HW2 1455   0.548   1.489   2.730
  371SOL     OW 1456   1.002   0.796   3.100
  371SOL    HW1 1457   1.043   0.764   3.186
  371SOL    HW2 1458   0.906   0.769   3.097
  372SOL     OW 1459   0.040   0.544   2.976
  372SOL    HW1 1460   0.125   0.511   2.935
  372SOL    HW2 1461   0.053   0.559   3.074
  373SOL     OW 1462   0.189   0.520   3.584
  373SOL    HW1 1463   0.248   0.480   3.514
  373SOL    HW2 1464   0.131   0.591   3.543
  374SOL     OW 1465   1.369   0.950   3.522
  374SOL    HW1 1466   1.408   1.039   3.542
  374SOL    HW2 1467   1.379   0.930   3.425
  375SOL     OW 1468   0.815   0.572   2.187
  375SOL    HW1 1469   0.822   0.483   2.141
  375SOL    HW2 1470   0.721   0.606   2.179
  376SOL     OW 1471   1.657   0.604   3.068
  376SOL    HW1 1472   1.619   0.535   3.130
  376SOL    HW2 1473   1.739   0.568   3.024
  377SOL     OW 1474   0.252   1.564   3.606
  377SOL    HW1 1475   0.222   1.621   3.682
  377SOL    HW2 1476   0.245   1.467   3.632
  378SOL     OW 1477   0.671   0.464   3.131
  378SOL    HW1 1478   0.637   0.375   3.101
  378SOL    HW2 1479   0.697   0.518   3.051
  379SOL     OW 1480   0.930   1.678   3.327
  379SOL    HW1 1481   0.906   1.660   3.232
  379SOL    HW2 1482   0.960   1.772   3.337
  380SOL     OW 1483   0.473   0.500   2.053
  380SOL    HW1 1484   0.534   0.580   2.057
  380SOL    HW2 1485   0.378   0.531   2.060
  381SOL     OW 1486   0.159   1.137   3.328
  381SOL    HW1 1487   0.181   1.076   3.404
  381SOL    HW2 1488   0.169   1.088   3.242
  382SOL     OW 1489   1.347   1.059   3.096
  382SOL    HW1 1490   1.371   0.996   3.022
  382SOL    HW2 1491   1.257   1.099   3.078
  383SOL     OW 1492   1.302   0.855   2.171
  383SOL    HW1 1493   1.216   0.824   2.213
  383SOL    HW2 1494   1.298   0.841   2.072
  384SOL     OW 1495   1.759   1.747   3.016
  384SOL    HW1 1496   1.820   1.777   2.943
  384SOL    HW2 1497   1.721   1.658   2.994
  385SOL     OW 1498   1.252   1.731   2.990
  385SOL    HW1 1499   1.336   1.736   2.936
  385SOL    HW2 1500   1.229   1.635   3.008
  386SOL     OW 1501   0.083   1.258   2.884
  386SOL    HW1 1502   0.078   1.257   2.984
  386SOL    HW2 1503   0.000   1.217   2.846
  387SOL     OW 1504   0.688   1.662   3.578
  387SOL    HW1 1505   0.632   1.743   3.587
  387SOL    HW2 1506   0.740   1.666   3.492
  388SOL     OW 1507   1.726   0.135   2.385
  388SOL    HW1 1508   1.799   0.118   2.318
  388SOL    HW2 1509   1.695   0.048   2.423
  389SOL     OW 1510   1.388   1.573   2.339
  389SOL    HW1 1511   1.455   1.585   2.265
  389SOL    HW2 1512   1.348   1.662   2.362
  390SOL     OW 1513   0.130   1.794   3.713
  390SOL    HW1 1514   0.089   1.720   3.766
  390SOL    HW2 1515   0.194   1.845   3.771
  391SOL     OW 1516   1.280   0.927   2.534
  391SOL    HW1 1517   1.340   0.846   2.536
  391SOL    HW2 1518   1.320   0.996   2.474
  392SOL     OW 1519   0.830   1.273   3.284
  392SOL    HW1 1520   0.825   1.306   3.379
  392SOL    HW2 1521   0.744   1.292   3.238
  393SOL     OW 1522   0.672   1.616   2.016
  393SOL    HW1 1523   0.681   1.626   1.917
  393SOL    HW2 1524   0.632   1.527   2.037
  394SOL     OW 1525   1.650   1.720   3.256
  394SOL    HW1 1526   1.703   1.730   3.172
  394SOL    HW2 1527   1.623   1.810   3.290
  395SOL     OW 1528   1.841   0.175   2.825
  395SOL    HW1 1529   1.880   0.090   2.789
  395SOL    HW2 1530   1.743   0.177   2.806
  396SOL     OW 1531   0.263   0.326   2.582
  396SOL    HW1 1532   0.184   0.377   2.548
  396SOL    HW2 1533   0.254   0.311   2.680
  397SOL     OW 1534   1.194   1.612   1.893
  397SOL    HW1 1535   1.200   1.519   1.930
  397SOL    HW2 1536   1.135   1.612   1.813
  398SOL     OW 1537   0.822   1.002   3.234
  398SOL    HW1 1538   0.862   1.001   3.142
  398SOL    HW2 1539   0.832   1.094   3.274
  399SOL     OW 1540   0.916   0.910   2.153
  399SOL    HW1 1541   0.979   0.948   2.085
  399SOL    HW2 1542   0.956   0.827   2.192
  400SOL     OW 1543   1.504   1.607   1.906
  400SOL    HW1 1544   1.412   1.644   1.913
  400SOL    HW2 1545   1.542   1.627   1.816
  401SOL     OW 1546   0.372   1.288   3.352
  401SOL    HW1 1547   0.359   1.381   3.318
  401SOL    HW2 1548   0.288   1.236   3.339
  402SOL     OW 1549   1.614   1.292   3.151
  402SOL    HW1 1550   1.674   1.295   3.231
  402SOL    HW2 1551   1.539   1.356   3.164
  403SOL     OW 1552   1.039   1.098   2.558
  403SOL    HW1 1553   0.969   1.051   2.612
  403SOL    HW2 1554   1.098   1.030   2.515
  404SOL     OW 1555   1.014   0.236   2.833
  404SOL    HW1 1556   1.006   0.200   2.740
  404SOL    HW2 1557   1.012   0.160   2.898
  405SOL     OW 1558   0.590   1.487   2.353
  405SOL    HW1 1559   0.632   1.429   2.283
  405SOL    HW2 1560   0.546   1.566   2.309
  406SOL     OW 1561   1.709   0.385   3.243
  406SOL    HW1 1562   1.782   0.454   3.247
  406SOL    HW2 1563   1.737   0.310   3.184
  407SOL     OW 1564   0.255   1.348   2.152
  407SOL    HW1 1565   0.159   1.349   2.125
  407SOL    HW2 1566   0.267   1.401   2.236
  408SOL     OW 1567   0.105   1.013   3.588
  408SOL    HW1 1568   0.028   0.980   3.642
  408SOL    HW2 1569   0.190   0.983   3.630
  409SOL     OW 1570   0.672   0.203   3.351
  409SOL    HW1 1571   0.762   0.187   3.311
  409SOL    HW2 1572   0.680   0.208   3.450
  410SOL     OW 1573   0.075   0.345   1.895
  410SOL    HW1 1574  -0.017   0.317   1.866
  410SOL    HW2 1575   0.106   0.422   1.839
  411SOL     OW 1576   1.440   0.856   3.260
  411SOL    HW1 1577   1.383   0.908   3.197
  411SOL    HW2 1578   1.536   0.868   3.236
  412SOL     OW 1579   0.072   0.166   2.180
  412SOL    HW1 1580   0.055   0.249   2.126
  412SOL    HW2 1581   0.162   0.129   2.158
  413SOL     OW 1582   1.183   1.335   1.981
  413SOL    HW1 1583   1.084   1.324   1.983
  413SOL    HW2 1584   1.217   1.350   2.074
  414SOL     OW 1585   0.613   0.842   3.293
  414SOL    HW1 1586   0.669   0.923   3.276
  414SOL    HW2 1587   0.672   0.762   3.296
  415SOL     OW 1588   1.493   1.767   2.821
  415SOL    HW1 1589   1.526   1.831   2.752
  415SOL    HW2 1590   1.559   1.761   2.896
  416SOL     OW 1591   0.716   0.565   3.570
  416SOL    HW1 1592   0.735   0.630   3.644
  416SOL    HW2 1593   0.776   0.485   3.579
  417SOL     OW 1594   1.450   1.220   3.495
  417SOL    HW1 1595   1.441   1.210   3.594
  417SOL    HW2 1596   1.546   1.213   3.469
  418SOL     OW 1597   0.390   1.741   3.422
  418SOL    HW1 1598   0.299   1.782   3.420
  418SOL    HW2 1599   0.383   1.647   3.454
  419SOL     OW 1600   1.674   0.883   3.116
  419SOL    HW1 1601   1.647   0.794   3.079
  419SOL    HW2 1602   1.675   0.951   3.043
  420SOL     OW 1603   1.225   0.325   2.311
  420SOL    HW1 1604   1.290   0.251   2.300
  420SOL    HW2 1605   1.245   0.375   2.395
  421SOL     OW 1606   0.594   0.745   2.514
  421SOL    HW1 1607   0.644   0.830   2.495
  421SOL    HW2 1608   0.506   0.747   2.466
  422SOL     OW 1609   1.777   0.342   3.504
  422SOL    HW1 1610   1.760   0.373   3.410
  422SOL    HW2 1611   1.693   0.305   3.542
  423SOL     OW 1612   1.730   0.934   3.379
  423SOL    HW1 1613   1.768   1.025   3.394
  423SOL    HW2 1614   1.722   0.917   3.280
  424SOL     OW 1615   0.859   1.374   1.878
  424SOL    HW1 1616   0.813   1.389   1.966
  424SOL    HW2 1617   0.903   1.459   1.848
  425SOL     OW 1618   0.661   1.790   2.815
  425SOL    HW1 1619   0.615   1.878   2.802
  425SOL    HW2 1620   0.760   1.802   2.808
  426SOL     OW 1621   0.859   0.956   2.723
  426SOL    HW1 1622   0.913   0.887   2.771
  426SOL    HW2 1623   0.827   1.025   2.789
  427SOL     OW 1624   1.083   0.984   1.949
  427SOL    HW1 1625   1.060   1.037   1.867
  427SOL    HW2 1626   1.164   0.928   1.930
  428SOL     OW 1627   1.861   1.569   2.713
  428SOL    HW1 1628   1.790   1.557   2.643
  428SOL    HW2 1629   1.862   1.490   2.773
  429SOL     OW 1630   0.221   1.314   3.706
  429SOL    HW1 1631   0.156   1.241   3.685
  429SOL    HW2 1632   0.225   1.328   3.804
  430SOL     OW 1633   0.079   1.240   2.515
  430SOL    HW1 1634   0.078   1.193   2.603
  430SOL    HW2 1635   0.161   1.212   2.464
  431SOL     OW 1636   0.672   1.391   3.486
  431SOL    HW1 1637   0.594   1.341   3.524
  431SOL    HW2 1638   0.669   1.486   3.517
  432SOL     OW 1639   1.824   0.192   3.089
  432SOL    HW1 1640   1.820   0.102   3.133
  432SOL    HW2 1641   1.827   0.181   2.990
  433SOL     OW 1642   0.428   0.424   2.382
  433SOL    HW1 1643   0.458   0.352   2.320
  433SOL    HW2 1644   0.389   0.384   2.465
  434SOL     OW 1645   1.705   1.487   2.966
  434SOL    HW1 1646   1.612   1.462   2.939
  434SOL    HW2 1647   1.731   1.437   3.048
  435SOL     OW 1648   0.317   0.547   3.142
  435SOL    HW1 1649   0.355   0.488   3.214
  435SOL    HW2 1650   0.357   0.521   3.054
  436SOL     OW 1651   0.812   1.586   2.549
  436SOL    HW1 1652   0.844   1.596   2.455
  436SOL    HW2 1653   0.733   1.524   2.551
  437SOL     OW 1654   1.424   0.214   2.974
  437SOL    HW1 1655   1.476   0.149   3.029
  437SOL    HW2 1656   1.375   0.277   3.035
  438SOL     OW 1657   1.001   0.034   3.016
  438SOL    HW1 1658   0.938  -0.038   2.985
  438SOL    HW2 1659   1.094  -0.002   3.016
  439SOL     OW 1660   0.618   1.567   3.146
  439SOL    HW1 1661   0.613   1.649   3.203
  439SOL    HW2 1662   0.707   1.564   3.101
  440SOL     OW 1663   1.352   0.052   2.030
  440SOL    HW1 1664   1.387   0.011   1.946
  440SOL    HW2 1665   1.262   0.014   2.050
  441SOL     OW 1666   1.300   0.453   2.553
  441SOL    HW1 1667   1.241   0.533   2.557
  441SOL    HW2 1668   1.315   0.418   2.646
  442SOL     OW 1669   1.593   0.221   2.744
  442SOL    HW1 1670   1.509   0.220   2.798
  442SOL    HW2 1671   1.595   0.304   2.688
  443SOL     OW 1672   0.039   1.077   2.162
  443SOL    HW1 1673   0.138   1.066   2.153
  443SOL    HW2 1674  -0.001   0.991   2.194
  444SOL     OW 1675   0.875   1.646   2.199
  444SOL    HW1 1676   0.798   1.611   2.145
  444SOL    HW2 1677   0.843   1.717   2.261
  445SOL     OW 1678   0.230   0.628   3.837
  445SOL    HW1 1679   0.137   0.626   3.874
  445SOL    HW2 1680   0.231   0.589   3.745
  446SOL     OW 1681   0.225   0.275   4.720
  446SOL    HW1 1682   0.260   0.258   4.812
  446SOL    HW2 1683   0.137   0.230   4.708
  447SOL     OW 1684   0.019   0.368   4.371
  447SOL    HW1 1685  -0.063   0.411   4.410
  447SOL    HW2 1686  -0.009   0.295   4.308
  448SOL     OW 1687   0.569   1.275   4.889
  448SOL    HW1 1688   0.476   1.268   4.852
  448SOL    HW2 1689   0.580   1.364   4.933
  449SOL     OW 1690   1.555   1.511   4.427
  449SOL    HW1 1691   1.498   1.495   4.508
  449SOL    HW2 1692   1.496   1.521   4.347
  450SOL     OW 1693   1.135   0.703   4.441
  450SOL    HW1 1694   1.192   0.781   4.416
  450SOL    HW2 1695   1.075   0.729   4.517
  451SOL     OW 1696   1.755   0.607   3.955
  451SOL    HW1 1697   1.743   0.594   3.856
  451SOL    HW2 1698   1.725   0.526   4.004
  452SOL     OW 1699   0.768   1.144   4.747
  452SOL    HW1 1700   0.690   1.161   4.807
  452SOL    HW2 1701   0.802   1.231   4.711
  453SOL     OW 1702   0.850   0.798   5.547
  453SOL    HW1 1703   0.846   0.874   5.612
  453SOL    HW2 1704   0.872   0.834   5.456
  454SOL     OW 1705   0.685   1.012   4.389
  454SOL    HW1 1706   0.754   0.996   4.459
  454SOL    HW2 1707   0.612   1.069   4.427
  455SOL     OW 1708   0.686   1.161   5.527
  455SOL    HW1 1709   0.746   1.240   5.541
  455SOL    HW2 1710   0.600   1.192   5.486
  456SOL     OW 1711   0.335   1.435   4.785
  456SOL    HW1 1712   0.257   1.404   4.732
  456SOL    HW2 1713   0.393   1.493   4.728
  457SOL     OW 1714   1.460   1.505   5.063
  457SOL    HW1 1715   1.484   1.599   5.089
  457SOL    HW2 1716   1.444   1.451   5.145
  458SOL     OW 1717   0.438   0.392   5.223
  458SOL    HW1 1718   0.520   0.336   5.232
  458SOL    HW2 1719   0.357   0.334   5.227
  459SOL     OW 1720   1.603   0.447   4.461
  459SOL    HW1 1721   1.529   0.493   4.411
  459SOL    HW2 1722   1.654   0.515   4.514
  460SOL     OW 1723   0.231   1.713   4.207
  460SOL    HW1 1724   0.265   1.790   4.261
  460SOL    HW2 1725   0.275   1.713   4.117
  461SOL     OW 1726   1.127   1.341   5.414
  461SOL    HW1 1727   1.174   1.341   5.502
  461SOL    HW2 1728   1.079   1.254   5.403
  462SOL     OW 1729   0.230   1.434   4.262
  462SOL    HW1 1730   0.204   1.530   4.262
  462SOL    HW2 1731   0.159   1.380   4.307
  463SOL     OW 1732   0.240   1.091   4.610
  463SOL    HW1 1733   0.254   1.007   4.662
  463SOL    HW2 1734   0.185   1.155   4.665
  464SOL     OW 1735   0.606   0.964   3.847
  464SOL    HW1 1736   0.613   1.048   3.793
  464SOL    HW2 1737   0.652   0.977   3.935
  465SOL     OW 1738   1.594   0.114   5.204
  465SOL    HW1 1739   1.576   0.181   5.132
  465SOL    HW2 1740   1.591   0.160   5.293
  466SOL     OW 1741   0.122   0.643   4.287
  466SOL    HW1 1742   0.077   0.555   4.304
  466SOL    HW2 1743   0.121   0.697   4.371
  467SOL     OW 1744   1.842   1.767   4.083
  467SOL    HW1 1745   1.896   1.738   4.163
  467SOL    HW2 1746   1.872   1.857   4.054
  468SOL     OW 1747   0.027   1.596   3.841
  468SOL    HW1 1748   0.008   1.500   3.862
  468SOL    HW2 1749  -0.006   1.654   3.916
  469SOL     OW 1750   1.689   0.922   4.336
  469SOL    HW1 1751   1.784   0.893   4.344
  469SOL    HW2 1752   1.681   0.987   4.261
  470SOL     OW 1753   1.641   1.108   4.156
  470SOL    HW1 1754   1.727   1.110   4.104
  470SOL    HW2 1755   1.655   1.155   4.244
  471SOL     OW 1756   0.113   0.737   5.321
  471SOL    HW1 1757   0.201   0.724   5.366
  471SOL    HW2 1758   0.100   0.834   5.299
  472SOL     OW 1759   0.613   1.365   4.450
  472SOL    HW1 1760   0.564   1.278   4.459
  472SOL    HW2 1761   0.590   1.408   4.363
  473SOL     OW 1762   1.293   1.228   5.147
  473SOL    HW1 1763   1.330   1.155   5.089
  473SOL    HW2 1764   1.345   1.233   5.232
  474SOL     OW 1765   0.809   0.004   4.226
  474SOL    HW1 1766   0.849   0.095   4.217
  474SOL    HW2 1767   0.709   0.012   4.232
  475SOL     OW 1768   0.197   0.976   4.988
  475SOL    HW1 1769   0.286   0.931   4.974
  475SOL    HW2 1770   0.124   0.911   4.969
  476SOL     OW 1771   1.525   0.999   3.914
  476SOL    HW1 1772   1.462   0.923   3.927
  476SOL    HW2 1773   1.573   1.017   4.000
  477SOL     OW 1774   1.187   1.792   5.340
  477SOL    HW1 1775   1.211   1.852   5.264
  477SOL    HW2 1776   1.194   1.697   5.310
  478SOL     OW 1777   0.317   0.251   5.525
  478SOL    HW1 1778   0.388   0.322   5.531
  478SOL    HW2 1779   0.229   0.290   5.553
  479SOL     OW 1780   1.466   1.417   4.677
  479SOL    HW1 1781   1.407   1.423   4.757
  479SOL    HW2 1782   1.451   1.329   4.631
  480SOL     OW 1783   1.667   1.714   4.296
  480SOL    HW1 1784   1.626   1.691   4.208
  480SOL    HW2 1785   1.649   1.640   4.361
  481SOL     OW 1786   0.598   0.729   3.994
  481SOL    HW1 1787   0.622   0.798   3.926
  481SOL    HW2 1788   0.520   0.762   4.048
  482SOL     OW 1789   1.281   0.345   4.668
  482SOL    HW1 1790   1.195   0.295   4.655
  482SOL    HW2 1791   1.343   0.291   4.724
  483SOL     OW 1792   1.576   1.662   4.031
  483SOL    HW1 1793   1.665   1.708   4.034
  483SOL    HW2 1794   1.555   1.638   3.936
  484SOL     OW 1795   0.807   0.605   5.189
  484SOL    HW1 1796   0.760   0.602   5.278
  484SOL    HW2 1797   0.756   0.550   5.123
  485SOL     OW 1798   1.394   0.469   5.398
  485SOL    HW1 1799   1.374   0.512   5.486
  485SOL    HW2 1800   1.472   0.407   5.407
  486SOL     OW 1801   0.973   0.890   5.296
  486SOL    HW1 1802   1.019   0.806   5.267
  486SOL    HW2 1803   0.917   0.924   5.221
  487SOL     OW 1804   0.991   0.410   4.966
  487SOL    HW1 1805   0.914   0.444   5.020
  487SOL    HW2 1806   0.957   0.359   4.887
  488SOL     OW 1807   1.041   0.701   4.153
  488SOL    HW1 1808   1.067   0.697   4.249
  488SOL    HW2 1809   0.956   0.650   4.139
  489SOL     OW 1810   0.076   0.811   4.513
  489SOL    HW1 1811   0.175   0.799   4.522
  489SOL    HW2 1812   0.052   0.906   4.534
  490SOL     OW 1813   0.130   1.821   5.295
  490SOL    HW1 1814   0.120   1.806   5.394
  490SOL    HW2 1815   0.044   1.857   5.259
  491SOL     OW 1816   0.865   0.348   3.919
  491SOL    HW1 1817   0.924   0.411   3.870
  491SOL    HW2 1818   0.884   0.254   3.890
  492SOL     OW 1819   1.719   0.585   5.555
  492SOL    HW1 1820   1.693   0.674   5.519
  492SOL    HW2 1821   1.717   0.517   5.482
  493SOL     OW 1822   1.362   1.144   4.269
  493SOL    HW1 1823   1.445   1.115   4.221
  493SOL    HW2 1824   1.313   1.211   4.213
  494SOL     OW 1825   0.550   0.196   4.609
  494SOL    HW1 1826   0.545   0.191   4.709
  494SOL    HW2 1827   0.552   0.292   4.580
  495SOL     OW 1828   1.008   1.456   4.201
  495SOL    HW1 1829   0.962   1.528   4.149
  495SOL    HW2 1830   1.004   1.476   4.299
  496SOL     OW 1831   0.351   1.801   4.577
  496SOL    HW1 1832   0.401   1.715   4.583
  496SOL    HW2 1833   0.416   1.878   4.574
  497SOL     OW 1834   1.795   1.066   4.597
  497SOL    HW1 1835   1.733   1.051   4.521
  497SOL    HW2 1836   1.743   1.077   4.682
  498SOL     OW 1837   1.227   1.550   5.230
  498SOL    HW1 1838   1.233   1.473   5.294
  498SOL    HW2 1839   1.175   1.524   5.150
  499SOL     OW 1840   0.321   0.943   3.966
  499SOL    HW1 1841   0.403   0.982   3.924
  499SOL    HW2 1842   0.294   0.861   3.917
  500SOL     OW 1843   1.458   0.735   4.452
  500SOL    HW1 1844   1.453   0.670   4.527
  500SOL    HW2 1845   1.538   0.794   4.465
  501SOL     OW 1846   0.461   1.266   5.451
  501SOL    HW1 1847   0.411   1.267   5.365
  501SOL    HW2 1848   0.398   1.248   5.527
  502SOL     OW 1849   1.111   1.776   3.961
  502SOL    HW1 1850   1.051   1.714   4.011
  502SOL    HW2 1851   1.142   1.732   3.876
  503SOL     OW 1852   0.202   0.285   5.222
  503SOL    HW1 1853   0.122   0.345   5.209
  503SOL    HW2 1854   0.192   0.236   5.308
  504SOL     OW 1855   1.632   1.377   3.805
  504SOL    HW1 1856   1.600   1.471   3.795
  504SOL    HW2 1857   1.556   1.314   3.793
  505SOL     OW 1858   0.464   1.743   4.047
  505SOL    HW1 1859   0.497   1.782   4.133
  505SOL    HW2 1860   0.540   1.736   3.982
  506SOL     OW 1861   1.400   0.107   4.150
  506SOL    HW1 1862   1.376   0.070   4.060
  506SOL    HW2 1863   1.499   0.123   4.154
  507SOL     OW 1864   0.249   1.785   4.965
  507SOL    HW1 1865   0.306   1.720   5.015
  507SOL    HW2 1866   0.233   1.752   4.872
  508SOL     OW 1867   0.940   1.698   4.628
  508SOL    HW1 1868   1.020   1.641   4.649
  508SOL    HW2 1869   0.891   1.658   4.551
  509SOL     OW 1870   0.382   0.700   4.204
  509SOL    HW1 1871   0.427   0.610   4.201
  509SOL    HW2 1872   0.288   0.689   4.237
  510SOL     OW 1873   1.547   0.222   5.453
  510SOL    HW1 1874   1.542   0.259   5.545
  510SOL    HW2 1875   1.475   0.153   5.441
  511SOL     OW 1876   0.614   0.122   3.841
  511SOL    HW1 1877   0.712   0.100   3.848
  511SOL    HW2 1878   0.583   0.105   3.748
  512SOL     OW 1879   0.781   0.264   5.473
  512SOL    HW1 1880   0.848   0.203   5.516
  512SOL    HW2 1881   0.708   0.283   5.538
  513SOL     OW 1882   0.888   1.514   4.919
  513SOL    HW1 1883   0.865   1.489   4.825
  513SOL    HW2 1884   0.949   1.445   4.958
  514SOL     OW 1885   1.351   0.590   5.157
  514SOL    HW1 1886   1.379   0.547   5.242
  514SOL    HW2 1887   1.376   0.686   5.158
  515SOL     OW 1888   0.803   1.402   4.648
  515SOL    HW1 1889   0.893   1.416   4.606
  515SOL    HW2 1890   0.732   1.404   4.577
  516SOL     OW 1891   0.922   0.503   4.623
  516SOL    HW1 1892   0.897   0.494   4.527
  516SOL    HW2 1893   0.970   0.421   4.654
  517SOL     OW 1894   0.539   0.064   4.236
  517SOL    HW1 1895   0.458   0.065   4.294
  517SOL    HW2 1896   0.542   0.147   4.181
  518SOL     OW 1897   1.434   1.188   3.765
  518SOL    HW1 1898   1.466   1.112   3.822
  518SOL    HW2 1899   1.342   1.215   3.795
  519SOL     OW 1900   0.297   0.035   3.895
  519SOL    HW1 1901   0.346   0.119   3.874
  519SOL    HW2 1902   0.359  -0.030   3.940
  520SOL     OW 1903   0.935   0.236   4.204
  520SOL    HW1 1904   0.887   0.277   4.126
  520SOL    HW2 1905   1.034   0.234   4.185
  521SOL     OW 1906   1.076   0.683   5.188
  521SOL    HW1 1907   0.996   0.622   5.191
  521SOL    HW2 1908   1.157   0.630   5.164
  522SOL     OW 1909   1.227   1.570   4.517
  522SOL    HW1 1910   1.248   1.644   4.452
  522SOL    HW2 1911   1.295   1.570   4.590
  523SOL     OW 1912   0.459   1.152   4.465
  523SOL    HW1 1913   0.388   1.125   4.530
  523SOL    HW2 1914   0.433   1.124   4.372
  524SOL     OW 1915   1.271   1.797   4.315
  524SOL    HW1 1916   1.315   1.861   4.251
  524SOL    HW2 1917   1.221   1.849   4.385
  525SOL     OW 1918   1.032   0.549   3.740
  525SOL    HW1 1919   0.991   0.631   3.701
  525SOL    HW2 1920   1.096   0.575   3.813
  526SOL     OW 1921   0.078   0.556   5.110
  526SOL    HW1 1922   0.170   0.555   5.069
  526SOL    HW2 1923   0.072   0.630   5.177
  527SOL     OW 1924   0.561   0.222   4.871
  527SOL    HW1 1925   0.599   0.138   4.908
  527SOL    HW2 1926   0.473   0.241   4.915
  528SOL     OW 1927   0.866   0.454   4.366
  528SOL    HW1 1928   0.834   0.526   4.304
  528SOL    HW2 1929   0.890   0.373   4.313
  529SOL     OW 1930   1.017   0.039   4.477
  529SOL    HW1 1931   0.945   0.044   4.408
  529SOL    HW2 1932   0.993  -0.030   4.546
  530SOL     OW 1933   1.429   1.173   4.591
  530SOL    HW1 1934   1.374   1.089   4.584
  530SOL    HW2 1935   1.455   1.202   4.499
  531SOL     OW 1936   1.466   0.590   4.716
  531SOL    HW1 1937   1.436   0.495   4.723
  531SOL    HW2 1938   1.539   0.606   4.782
  532SOL     OW 1939   1.857   0.833   4.101
  532SOL    HW1 1940   1.899   0.769   4.165
  532SOL    HW2 1941   1.819   0.782   4.023
  533SOL     OW 1942   0.488   1.385   3.898
  533SOL    HW1 1943   0.401   1.370   3.945
  533SOL    HW2 1944   0.471   1.411   3.803
  534SOL     OW 1945   1.664   1.280   4.381
  534SOL    HW1 1946   1.763   1.288   4.395
  534SOL    HW2 1947   1.619   1.364   4.412
  535SOL     OW 1948   1.390   0.575   3.802
  535SOL    HW1 1949   1.336   0.554   3.883
  535SOL    HW2 1950   1.481   0.534   3.811
  536SOL     OW 1951   0.527   0.256   4.052
  536SOL    HW1 1952   0.554   0.197   3.977
  536SOL    HW2 1953   0.527   0.351   4.021
  537SOL     OW 1954   1.754   1.223   5.312
  537SOL    HW1 1955   1.845   1.184   5.299
  537SOL    HW2 1956   1.762   1.319   5.336
  538SOL     OW 1957   1.064   1.347   5.064
  538SOL    HW1 1958   0.984   1.324   5.119
  538SOL    HW2 1959   1.147   1.321   5.113
  539SOL     OW 1960   1.592   1.629   5.349
  539SOL    HW1 1961   1.619   1.663   5.259
  539SOL    HW2 1962   1.671   1.591   5.395
  540SOL     OW 1963   1.111   1.195   4.824
  540SOL    HW1 1964   1.071   1.239   4.905
  540SOL    HW2 1965   1.070   1.232   4.741
  541SOL     OW 1966   1.638   1.099   4.803
  541SOL    HW1 1967   1.643   1.180   4.862
  541SOL    HW2 1968   1.552   1.101   4.752
  542SOL     OW 1969   0.915   0.089   5.126
  542SOL    HW1 1970   0.940   0.069   5.031
  542SOL    HW2 1971   0.987   0.145   5.168
  543SOL     OW 1972   0.980   1.116   5.443
  543SOL    HW1 1973   0.881   1.122   5.453
  543SOL    HW2 1974   1.003   1.036   5.387
  544SOL     OW 1975   0.705   1.050   4.092
  544SOL    HW1 1976   0.691   1.057   4.191
  544SOL    HW2 1977   0.789   0.999   4.074
  545SOL     OW 1978   0.410   0.813   4.975
  545SOL    HW1 1979   0.496   0.825   5.025
  545SOL    HW2 1980   0.368   0.726   5.002
  546SOL     OW 1981   1.274   0.386   4.986
  546SOL    HW1 1982   1.295   0.460   5.050
  546SOL    HW2 1983   1.185   0.403   4.943
  547SOL     OW 1984   0.064   1.564   5.055
  547SOL    HW1 1985   0.018   1.646   5.021
  547SOL    HW2 1986   0.162   1.583   5.064
  548SOL     OW 1987   0.367   1.100   4.225
  548SOL    HW1 1988   0.360   1.183   4.169
  548SOL    HW2 1989   0.371   1.020   4.165
  549SOL     OW 1990   0.566   0.537   4.589
  549SOL    HW1 1991   0.578   0.603   4.515
  549SOL    HW2 1992   0.612   0.571   4.672
  550SOL     OW 1993   1.252   1.348   4.112
  550SOL    HW1 1994   1.302   1.425   4.152
  550SOL    HW2 1995   1.157   1.350   4.144
  551SOL     OW 1996   1.272   1.445   4.866
  551SOL    HW1 1997   1.319   1.458   4.953
  551SOL    HW2 1998   1.206   1.371   4.875
  552SOL     OW 1999   1.582   0.639   4.196
  552SOL    HW1 2000   1.551   0.700   4.269
  552SOL    HW2 2001   1.632   0.691   4.127
  553SOL     OW 2002   0.354   1.510   5.053
  553SOL    HW1 2003   0.333   1.466   4.966
  553SOL    HW2 2004   0.451   1.536   5.056
  554SOL     OW 2005   0.402   0.751   5.322
  554SOL    HW1 2006   0.470   0.806   5.275
  554SOL    HW2 2007   0.442   0.663   5.349
  555SOL     OW 2008   1.587   0.779   5.394
  555SOL    HW1 2009   1.495   0.817   5.389
  555SOL    HW2 2010   1.647   0.826   5.329
  556SOL     OW 2011   1.013   0.105   5.494
  556SOL    HW1 2012   1.019   0.190   5.442
  556SOL    HW2 2013   1.045   0.029   5.437
  557SOL     OW 2014   0.504   0.050   5.464
  557SOL    HW1 2015   0.462  -0.007   5.394
  557SOL    HW2 2016   0.438   0.119   5.496
  558SOL     OW 2017   0.573   0.870   4.753
  558SOL    HW1 2018   0.617   0.959   4.744
  558SOL    HW2 2019   0.510   0.870   4.830
  559SOL     OW 2020   1.360   0.862   4.769
  559SOL    HW1 2021   1.285   0.862   4.703
  559SOL    HW2 2022   1.397   0.770   4.778
  560SOL     OW 2023   1.209   0.525   3.999
  560SOL    HW1 2024   1.222   0.441   4.053
  560SOL    HW2 2025   1.180   0.599   4.059
  561SOL     OW 2026   0.307   0.213   4.955
  561SOL    HW1 2027   0.284   0.250   5.045
  561SOL    HW2 2028   0.277   0.118   4.949
  562SOL     OW 2029   0.037   1.310   5.006
  562SOL    HW1 2030   0.090   1.261   5.074
  562SOL    HW2 2031   0.059   1.408   5.011
  563SOL     OW 2032   0.732   0.634   4.788
  563SOL    HW1 2033   0.791   0.608   4.712
  563SOL    HW2 2034   0.704   0.730   4.777
  564SOL     OW 2035   1.728   0.935   5.578
  564SOL    HW1 2036   1.682   0.928   5.489
  564SOL    HW2 2037   1.666   0.979   5.644
  565SOL     OW 2038   0.307   0.063   4.342
  565SOL    HW1 2039   0.296   0.157   4.375
  565SOL    HW2 2040   0.302   0.000   4.419
  566SOL     OW 2041   1.622   0.367   4.098
  566SOL    HW1 2042   1.624   0.291   4.162
  566SOL    HW2 2043   1.574   0.444   4.138
  567SOL     OW 2044   1.023   0.766   4.690
  567SOL    HW1 2045   1.038   0.787   4.786
  567SOL    HW2 2046   0.993   0.671   4.681
  568SOL     OW 2047   0.980   1.573   5.424
  568SOL    HW1 2048   0.960   1.617   5.336
  568SOL    HW2 2049   1.019   1.482   5.408
  569SOL     OW 2050   1.859   1.518   5.329
  569SOL    HW1 2051   1.873   1.545   5.234
  569SOL    HW2 2052   1.942   1.540   5.382
  570SOL     OW 2053   0.350   0.898   5.528
  570SOL    HW1 2054   0.426   0.942   5.576
  570SOL    HW2 2055   0.385   0.851   5.446
  571SOL     OW 2056   1.540   0.274   3.849
  571SOL    HW1 2057   1.479   0.199   3.872
  571SOL    HW2 2058   1.562   0.326   3.932
  572SOL     OW 2059   1.303   0.838   3.766
  572SOL    HW1 2060   1.337   0.745   3.781
  572SOL    HW2 2061   1.321   0.865   3.671
  573SOL     OW 2062   1.068   1.333   4.573
  573SOL    HW1 2063   1.075   1.249   4.518
  573SOL    HW2 2064   1.130   1.402   4.537
  574SOL     OW 2065   0.319   0.810   4.673
  574SOL    HW1 2066   0.412   0.846   4.678
  574SOL    HW2 2067   0.313   0.725   4.725
  575SOL     OW 2068   0.339   0.509   4.730
  575SOL    HW1 2069   0.287   0.426   4.713
  575SOL    HW2 2070   0.416   0.514   4.666
  576SOL     OW 2071   1.138   0.380   5.402
  576SOL    HW1 2072   1.093   0.443   5.466
  576SOL    HW2 2073   1.231   0.411   5.385
  577SOL     OW 2074   1.160   0.207   5.201
  577SOL    HW1 2075   1.160   0.271   5.278
  577SOL    HW2 2076   1.188   0.255   5.118
  578SOL     OW 2077   0.008   1.326   3.924
  578SOL    HW1 2078  -0.085   1.347   3.893
  578SOL    HW2 2079   0.018   1.227   3.937
  579SOL     OW 2080   0.088   1.801   4.651
  579SOL    HW1 2081   0.046   1.715   4.624
  579SOL    HW2 2082   0.182   1.804   4.617
  580SOL     OW 2083   0.504   1.568   4.634
  580SOL    HW1 2084   0.570   1.642   4.643
  580SOL    HW2 2085   0.548   1.489   4.592
  581SOL     OW 2086   1.002   0.796   4.962
  581SOL    HW1 2087   1.043   0.764   5.048
  581SOL    HW2 2088   0.906   0.769   4.959
  582SOL     OW 2089   0.040   0.544   4.838
  582SOL    HW1 2090   0.125   0.511   4.797
  582SOL    HW2 2091   0.053   0.559   4.936
  583SOL     OW 2092   0.189   0.520   5.446
  583SOL    HW1 2093   0.248   0.480   5.376
  583SOL    HW2 2094   0.131   0.591   5.405
  584SOL     OW 2095   1.369   0.950   5.384
  584SOL    HW1 2096   1.408   1.039   5.404
  584SOL    HW2 2097   1.379   0.930   5.287
  585SOL     OW 2098   0.815   0.572   4.049
  585SOL    HW1 2099   0.822   0.483   4.003
  585SOL    HW2 2100   0.721   0.606   4.041
  586SOL     OW 2101   1.657   0.604   4.930
  586SOL    HW1 2102   1.619   0.535   4.992
  586SOL    HW2 2103   1.739   0.568   4.886
  587SOL     OW 2104   0.252   1.564   5.468
  587SOL    HW1 2105   0.222   1.621   5.544
  587SOL    HW2 2106   0.245   1.467   5.494
  588SOL     OW 2107   0.671   0.464   4.993
  588SOL    HW1 2108   0.637   0.375   4.963
  588SOL    HW2 2109   0.697   0.518   4.913
  589SOL     OW 2110   0.930   1.678   5.189
  589SOL    HW1 2111   0.906   1.660   5.094
  589SOL    HW2 2112   0.960   1.772   5.199
  590SOL     OW 2113   0.473   0.500   3.915
  590SOL    HW1 2114   0.534   0.580   3.919
  590SOL    HW2 2115   0.378   0.531   3.922
  591SOL     OW 2116   0.159   1.137   5.190
  591SOL    HW1 2117   0.181   1.076   5.266
  591SOL    HW2 2118   0.169   1.088   5.104
  592SOL     OW 2119   1.347   1.059   4.958
  592SOL    HW1 2120   1.371   0.996   4.884
  592SOL    HW2 2121   1.257   1.099   4.940
  593SOL     OW 2122   1.302   0.855   4.033
  593SOL    HW1 2123   1.216   0.824   4.075
  593SOL    HW2 2124   1.298   0.841   3.934
  594SOL     OW 2125   1.759   1.747   4.878
  594SOL    HW1 2126   1.820   1.777   4.805
  594SOL    HW2 2127   1.721   1.658   4.856
  595SOL     OW 2128   1.252   1.731   4.852
  595SOL    HW1 2129   1.336   1.736   4.798
  595SOL    HW2 2130   1.229   1.635   4.870
  596SOL     OW 2131   0.083   1.258   4.746
  596SOL    HW1 2132   0.078   1.257   4.846
  596SOL    HW2 2133   0.000   1.217   4.708
  597SOL     OW 2134   0.688   1.662   5.440
  597SOL    HW1 2135   0.632   1.743   5.449
  597SOL    HW2 2136   0.740   1.666   5.354
  598SOL     OW 2137   1.726   0.135   4.247
  598SOL    HW1 2138   1.799   0.118   4.180
  598SOL    HW2 2139   1.695   0.048   4.285
  599SOL     OW 2140   1.388   1.573   4.201
  599SOL    HW1 2141   1.455   1.585   4.127
  599SOL    HW2 2142   1.348   1.662   4.224
  600SOL     OW 2143   0.130   1.794   5.575
  600SOL    HW1 2144   0.089   1.720   5.628
  600SOL    HW2 2145   0.194   1.845   5.633
  601SOL     OW 2146   1.280   0.927   4.396
  601SOL    HW1 2147   1.340   0.846   4.398
  601SOL    HW2 2148   1.320   0.996   4.336
  602SOL     OW 2149   0.830   1.273   5.146
  602SOL    HW1 2150   0.825   1.306   5.241
  602SOL    HW2 2151   0.744   1.292   5.100
  603SOL     OW 2152   0.672   1.616   3.878
  603SOL    HW1 2153   0.681   1.626   3.779
  603SOL    HW2 2154   0.632   1.527   3.899
  604SOL     OW 2155   1.650   1.720   5.118
  604SOL    HW1 2156   1.703   1.730   5.034
  604SOL    HW2 2157   1.623   1.810   5.152
  605SOL     OW 2158   1.841   0.175   4.687
  605SOL    HW1 2159   1.880   0.090   4.651
  605SOL    HW2 2160   1.743   0.177   4.668
  606SOL     OW 2161   0.263   0.326   4.444
  606SOL    HW1 2162   0.184   0.377   4.410
  606SOL    HW2 2163   0.254   0.311   4.542
  607SOL     OW 2164   1.194   1.612   3.755
  607SOL    HW1 2165   1.200   1.519   3.792
  607SOL    HW2 2166   1.135   1.612   3.675
  608SOL     OW 2167   0.822   1.002   5.096
  608SOL    HW1 2168   0.862   1.001   5.004
  608SOL    HW2 2169   0.832   1.094   5.136
  609SOL     OW 2170   0.916   0.910   4.015
  609SOL    HW1 2171   0.979   0.948   3.947
  609SOL    HW2 2172   0.956   0.827   4.054
  610SOL     OW 2173   1.504   1.607   3.768
  610SOL    HW1 2174   1.412   1.644   3.775
  610SOL    HW2 2175   1.542   1.627   3.678
  611SOL     OW 2176   0.372   1.288   5.214
  611SOL    HW1 2177   0.359   1.381   5.180
  611SOL    HW2 2178   0.288   1.236   5.201
  612SOL     OW 2179   1.614   1.292   5.013
  612SOL    HW1 2180   1.674   1.295   5.093
  612SOL    HW2 2181   1.539   1.356   5.026
  613SOL     OW 2182   1.039   1.098   4.420
  613SOL    HW1 2183   0.969   1.051   4.474
  613SOL    HW2 2184   1.098   1.030   4.377
  614SOL     OW 2185   1.014   0.236   4.695
  614SOL    HW1 2186   1.006   0.200   4.602
  614SOL    HW2 2187   1.012   0.160   4.760
  615SOL     OW 2188   0.590   1.487   4.215
  615SOL    HW1 2189   0.632   1.429   4.145
  615SOL    HW2 2190   0.546   1.566   4.171
  616SOL     OW 2191   1.709   0.385   5.105
  616SOL    HW1 2192   1.782   0.454   5.109
  616SOL    HW2 2193   1.737   0.310   5.046
  617SOL     OW 2194   0.255   1.348   4.014
  617SOL    HW1 2195   0.159   1.349   3.987
  617SOL    HW2 2196   0.267   1.401   4.098
  618SOL     OW 2197   0.105   1.013   5.450
  618SOL    HW1 2198   0.028   0.980   5.504
  618SOL    HW2 2199   0.190   0.983   5.492
  619SOL     OW 2200   0.672   0.203   5.213
  619SOL    HW1 2201   0.762   0.187   5.173
  619SOL    HW2 2202   0.680   0.208   5.312
  620SOL     OW 2203   0.075   0.345   3.757
  620SOL    HW1 2204  -0.017   0.317   3.728
  620SOL    HW2 2205   0.106   0.422   3.701
  621SOL     OW 2206   1.440   0.856   5.122
  621SOL    HW1 2207   1.383   0.908   5.059
  621SOL    HW2 2208   1.536   0.868   5.098
  622SOL     OW 2209   0.072   0.166   4.042
  622SOL    HW1 2210   0.055   0.249   3.988
  622SOL    HW2 2211   0.162   0.129   4.020
  623SOL     OW 2212   1.183   1.335   3.843
  623SOL    HW1 2213   1.084   1.324   3.845
  623SOL    HW2 2214   1.217   1.350   3.936
  624SOL     OW 2215   0.613   0.842   5.155
  624SOL    HW1 2216   0.669   0.923   5.138
  624SOL    HW2 2217   0.672   0.762   5.158
  625SOL     OW 2218   1.493   1.767   4.683
  625SOL    HW1 2219   1.526   1.831   4.614
  625SOL    HW2 2220   1.559   1.761   4.758
  626SOL     OW 2221   0.716   0.565   5.432
  626SOL    HW1 2222   0.735   0.630   5.506
  626SOL    HW2 2223   0.776   0.485   5.441
  627SOL     OW 2224   1.450   1.220   5.357
  627SOL    HW1 2225   1.441   1.210   5.456
  627SOL    HW2 2226   1.546   1.213   5.331
  628SOL     OW 2227   0.390   1.741   5.284
  628SOL    HW1 2228   0.299   1.782   5.282
  628SOL    HW2 2229   0.383   1.647   5.316
  629SOL     OW 2230   1.674   0.883   4.978
  629SOL    HW1 2231   1.647   0.794   4.941
  629SOL    HW2 2232   1.675   0.951   4.905
  630SOL     OW 2233   1.225   0.325   4.173
  630SOL    HW1 2234   1.290   0.251   4.162
  630SOL    HW2 2235   1.245   0.375   4.257
  631SOL     OW 2236   0.594   0.745   4.376
  631SOL    HW1 2237   0.644   0.830   4.357
  631SOL    HW2 2238   0.506   0.747   4.328
  632SOL     OW 2239   1.777   0.342   5.366
  632SOL    HW1 2240   1.760   0.373   5.272
  632SOL    HW2 2241   1.693   0.305   5.404
  633SOL     OW 2242   1.730   0.934   5.241
  633SOL    HW1 2243   1.768   1.025   5.256
  633SOL    HW2 2244   1.722   0.917   5.142
  634SOL     OW 2245   0.859   1.374   3.740
  634SOL    HW1 2246   0.813   1.389   3.828
  634SOL    HW2 2247   0.903   1.459   3.710
  635SOL     OW 2248   0.661   1.790   4.677
  635SOL    HW1 2249   0.615   1.878   4.664
  635SOL    HW2 2250   0.760   1.802   4.670
  636SOL     OW 2251   0.859   0.956   4.585
  636SOL    HW1 2252   0.913   0.887   4.633
  636SOL    HW2 2253   0.827   1.025   4.651
  637SOL     OW 2254   1.083   0.984   3.811
  637SOL    HW1 2255   1.060   1.037   3.729
  637SOL    HW2 2256   1.164   0.928   3.792
  638SOL     OW 2257   1.861   1.569   4.575
  638SOL    HW1 2258   1.790   1.557   4.505
  638SOL    HW2 2259   1.862   1.490   4.635
  639SOL     OW 2260   0.221   1.314   5.568
  639SOL    HW1 2261   0.156   1.241   5.547
  639SOL    HW2 2262   0.225   1.328   5.666
  640SOL     OW 2263   0.079   1.240   4.377
  640SOL    HW1 2264   0.078   1.193   4.465
  640SOL    HW2 2265   0.161   1.212   4.326
  641SOL     OW 2266   0.672   1.391   5.348
  641SOL    HW1 2267   0.594   1.341   5.386
  641SOL    HW2 2268   0.669   1.486   5.379
  642SOL     OW 2269   1.824   0.192   4.951
  642SOL    HW1 2270   1.820   0.102   4.995
  642SOL    HW2 2271   1.827   0.181   4.852
  643SOL     OW 2272   0.428   0.424   4.244
  643SOL    HW1 2273   0.458   0.352   4.182
  643SOL    HW2 2274   0.389   0.384   4.327
  644SOL     OW 2275   1.705   1.487   4.828
  644SOL    HW1 2276   1.612   1.462   4.801
  644SOL    HW2 2277   1.731   1.437   4.910
  645SOL     OW 2278   0.317   0.547   5.004
  645SOL    HW1 2279   0.355   0.488   5.076
  645SOL    HW2 2280   0.357   0.521   4.916
  646SOL     OW 2281   0.812   1.586   4.411
  646SOL    HW1 2282   0.844   1.596   4.317
  646SOL    HW2 2283   0.733   1.524   4.413
  647SOL     OW 2284   1.424   0.214   4.836
  647SOL    HW1 2285   1.476   0.149   4.891
  647SOL    HW2 2286   1.375   0.277   4.897
  648SOL     OW 2287   1.001   0.034   4.878
  648SOL    HW1 2288   0.938  -0.038   4.847
  648SOL    HW2 2289   1.094  -0.002   4.878
  649SOL     OW 2290   0.770   1.330   4.025
  649SOL    HW1 2291   0.724   1.243   4.042
  649SOL    HW2 2292   0.861   1.327   4.066
  650SOL     OW 2293   0.618   1.567   5.008
  650SOL    HW1 2294   0.613   1.649   5.065
  650SOL    HW2 2295   0.707   1.564   4.963
  651SOL     OW 2296   1.352   0.052   3.892
  651SOL    HW1 2297   1.387   0.011   3.808
  651SOL    HW2 2298   1.262   0.014   3.912
  652SOL     OW 2299   1.300   0.453   4.415
  652SOL    HW1 2300   1.241   0.533   4.419
  652SOL    HW2 2301   1.315   0.418   4.508
  653SOL     OW 2302   1.593   0.221   4.606
  653SOL    HW1 2303   1.509   0.220   4.660
  653SOL    HW2 2304   1.595   0.304   4.550
  654SOL     OW 2305   0.039   1.077   4.024
  654SOL    HW1 2306   0.138   1.066   4.015
  654SOL    HW2 2307  -0.001   0.991   4.056
  655SOL     OW 2308   0.875   1.646   4.061
  655SOL    HW1 2309   0.798   1.611   4.007
  655SOL    HW2 2310   0.843   1.717   4.123
  656SOL     OW 2311   0.230   0.628   5.699
  656SOL    HW1 2312   0.137   0.626   5.736
  656SOL    HW2 2313   0.231   0.589   5.607
  657SOL     OW 2314   0.225   0.275   6.582
  657SOL    HW1 2315   0.260   0.258   6.674
  657SOL    HW2 2316   0.137   0.230   6.570
  658SOL     OW 2317   0.019   0.368   6.233
  658SOL    HW1 2318  -0.063   0.411   6.272
  658SOL    HW2 2319  -0.009   0.295   6.170
  659SOL     OW 2320   0.569   1.275   6.751
  659SOL    HW1 2321   0.476   1.268   6.714
  659SOL    HW2 2322   0.580   1.364   6.795
  660SOL     OW 2323   1.555   1.511   6.289
  660SOL    HW1 2324   1.498   1.495   6.370
  660SOL    HW2 2325   1.496   1.521   6.209
  661SOL     OW 2326   1.135   0.703   6.303
  661SOL    HW1 2327   1.192   0.781   6.278
  661SOL    HW2 2328   1.075   0.729   6.379
  662SOL     OW 2329   1.755   0.607   5.817
  662SOL    HW1 2330   1.743   0.594   5.718
  662SOL    HW2 2331   1.725   0.526   5.866
  663SOL     OW 2332   0.768   1.144   6.609
  663SOL    HW1 2333   0.690   1.161   6.669
  663SOL    HW2 2334   0.802   1.231   6.573
  664SOL     OW 2335   0.685   1.012   6.251
  664SOL    HW1 2336   0.754   0.996   6.321
  664SOL    HW2 2337   0.612   1.069   6.289
  665SOL     OW 2338   0.335   1.435   6.647
  665SOL    HW1 2339   0.257   1.404   6.594
  665SOL    HW2 2340   0.393   1.493   6.590
  666SOL     OW 2341   1.603   0.447   6.323
  666SOL    HW1 2342   1.529   0.493   6.273
  666SOL    HW2 2343   1.654   0.515   6.376
  667SOL     OW 2344   0.231   1.713   6.069
  667SOL    HW1 2345   0.265   1.790   6.123
  667SOL    HW2 2346   0.275   1.713   5.979
  668SOL     OW 2347   0.230   1.434   6.124
  668SOL    HW1 2348   0.204   1.530   6.124
  668SOL    HW2 2349   0.159   1.380   6.169
  669SOL     OW 2350   0.240   1.091   6.472
  669SOL    HW1 2351   0.254   1.007   6.524
  669SOL    HW2 2352   0.185   1.155   6.527
  670SOL     OW 2353   0.606   0.964   5.709
  670SOL    HW1 2354   0.613   1.048   5.655
  670SOL    HW2 2355   0.652   0.977   5.797
  671SOL     OW 2356   0.122   0.643   6.149
  671SOL    HW1 2357   0.077   0.555   6.166
  671SOL    HW2 2358   0.121   0.697   6.233
  672SOL     OW 2359   1.842   1.767   5.945
  672SOL    HW1 2360   1.896   1.738   6.025
  672SOL    HW2 2361   1.872   1.857   5.916
  673SOL     OW 2362   0.027   1.596   5.703
  673SOL    HW1 2363   0.008   1.500   5.724
  673SOL    HW2 2364  -0.006   1.654   5.778
  674SOL     OW 2365   1.689   0.922   6.198
  674SOL    HW1 2366   1.784   0.893   6.206
  674SOL    HW2 2367   1.681   0.987   6.123
  675SOL     OW 2368   1.641   1.108   6.018
  675SOL    HW1 2369   1.727   1.110   5.966
  675SOL    HW2 2370   1.655   1.155   6.106
  676SOL     OW 2371   0.613   1.365   6.312
  676SOL    HW1 2372   0.564   1.278   6.321
  676SOL    HW2 2373   0.590   1.408   6.225
  677SOL     OW 2374   0.809   0.004   6.088
  677SOL    HW1 2375   0.849   0.095   6.079
  677SOL    HW2 2376   0.709   0.012   6.094
  678SOL     OW 2377   1.525   0.999   5.776
  678SOL    HW1 2378   1.462   0.923   5.789
  678SOL    HW2 2379   1.573   1.017   5.862
  679SOL     OW 2380   1.466   1.417   6.539
  679SOL    HW1 2381   1.407   1.423   6.619
  679SOL    HW2 2382   1.451   1.329   6.493
  680SOL     OW 2383   1.667   1.714   6.158
  680SOL    HW1 2384   1.626   1.691   6.070
  680SOL    HW2 2385   1.649   1.640   6.223
  681SOL     OW 2386   0.598   0.729   5.856
  681SOL    HW1 2387   0.622   0.798   5.788
  681SOL    HW2 2388   0.520   0.762   5.910
  682SOL     OW 2389   1.281   0.345   6.530
  682SOL    HW1 2390   1.195   0.295   6.517
  682SOL    HW2 2391   1.343   0.291   6.586
  683SOL     OW 2392   1.576   1.662   5.893
  683SOL    HW1 2393   1.665   1.708   5.896
  683SOL    HW2 2394   1.555   1.638   5.798
  684SOL     OW 2395   0.991   0.410   6.828
  684SOL    HW1 2396   0.914   0.444   6.882
  684SOL    HW2 2397   0.957   0.359   6.749
  685SOL     OW 2398   1.041   0.701   6.015
  685SOL    HW1 2399   1.067   0.697   6.111
  685SOL    HW2 2400   0.956   0.650   6.001
  686SOL     OW 2401   0.076   0.811   6.375
  686SOL    HW1 2402   0.175   0.799   6.384
  686SOL    HW2 2403   0.052   0.906   6.396
  687SOL     OW 2404   0.865   0.348   5.781
  687SOL    HW1 2405   0.924   0.411   5.732
  687SOL    HW2 2406   0.884   0.254   5.752
  688SOL     OW 2407   1.362   1.144   6.131
  688SOL    HW1 2408   1.445   1.115   6.083
  688SOL    HW2 2409   1.313   1.211   6.075
  689SOL     OW 2410   0.550   0.196   6.471
  689SOL    HW1 2411   0.545   0.191   6.571
  689SOL    HW2 2412   0.552   0.292   6.442
  690SOL     OW 2413   1.008   1.456   6.063
  690SOL    HW1 2414   0.962   1.528   6.011
  690SOL    HW2 2415   1.004   1.476   6.161
  691SOL     OW 2416   0.351   1.801   6.439
  691SOL    HW1 2417   0.401   1.715   6.445
  691SOL    HW2 2418   0.416   1.878   6.436
  692SOL     OW 2419   1.795   1.066   6.459
  692SOL    HW1 2420   1.733   1.051   6.383
  692SOL    HW2 2421   1.743   1.077   6.544
  693SOL     OW 2422   0.321   0.943   5.828
  693SOL    HW1 2423   0.403   0.982   5.786
  693SOL    HW2 2424   0.294   0.861   5.779
  694SOL     OW 2425   1.458   0.735   6.314
  694SOL    HW1 2426   1.453   0.670   6.389
  694SOL    HW2 2427   1.538   0.794   6.327
  695SOL     OW 2428   1.111   1.776   5.823
  695SOL    HW1 2429   1.051   1.714   5.873
  695SOL    HW2 2430   1.142   1.732   5.738
  696SOL     OW 2431   1.632   1.377   5.667
  696SOL    HW1 2432   1.600   1.471   5.657
  696SOL    HW2 2433   1.556   1.314   5.655
  697SOL     OW 2434   0.464   1.743   5.909
  697SOL    HW1 2435   0.497   1.782   5.995
  697SOL    HW2 2436   0.540   1.736   5.844
  698SOL     OW 2437   1.400   0.107   6.012
  698SOL    HW1 2438   1.376   0.070   5.922
  698SOL    HW2 2439   1.499   0.123   6.016
  699SOL     OW 2440   0.249   1.785   6.827
  699SOL    HW1 2441   0.306   1.720   6.877
  699SOL    HW2 2442   0.233   1.752   6.734
  700SOL     OW 2443   0.940   1.698   6.490
  700SOL    HW1 2444   1.020   1.641   6.511
  700SOL    HW2 2445   0.891   1.658   6.413
  701SOL     OW 2446   0.382   0.700   6.066
  701SOL    HW1 2447   0.427   0.610   6.063
  701SOL    HW2 2448   0.288   0.689   6.099
  702SOL     OW 2449   0.614   0.122   5.703
  702SOL    HW1 2450   0.712   0.100   5.710
  702SOL    HW2 2451   0.583   0.105   5.610
  703SOL     OW 2452   0.888   1.514   6.781
  703SOL    HW1 2453   0.865   1.489   6.687
  703SOL    HW2 2454   0.949   1.445   6.820
  704SOL     OW 2455   0.803   1.402   6.510
  704SOL    HW1 2456   0.893   1.416   6.468
  704SOL    HW2 2457   0.732   1.404   6.439
  705SOL     OW 2458   0.922   0.503   6.485
  705SOL    HW1 2459   0.897   0.494   6.389
  705SOL    HW2 2460   0.970   0.421   6.516
  706SOL     OW 2461   0.539   0.064   6.098
  706SOL    HW1 2462   0.458   0.065   6.156
  706SOL    HW2 2463   0.542   0.147   6.043
  707SOL     OW 2464   1.434   1.188   5.627
  707SOL    HW1 2465   1.466   1.112   5.684
  707SOL    HW2 2466   1.342   1.215   5.657
  708SOL     OW 2467   0.297   0.035   5.757
  708SOL    HW1 2468   0.346   0.119   5.736
  708SOL    HW2 2469   0.359  -0.030   5.802
  709SOL     OW 2470   0.935   0.236   6.066
  709SOL    HW1 2471   0.887   0.277   5.988
  709SOL    HW2 2472   1.034   0.234   6.047
  710SOL     OW 2473   1.227   1.570   6.379
  710SOL    HW1 2474   1.248   1.644   6.314
  710SOL    HW2 2475   1.295   1.570   6.452
  711SOL     OW 2476   0.459   1.152   6.327
  711SOL    HW1 2477   0.388   1.125   6.392
  711SOL    HW2 2478   0.433   1.124   6.234
  712SOL     OW 2479   1.271   1.797   6.177
  712SOL    HW1 2480   1.315   1.861   6.113
  712SOL    HW2 2481   1.221   1.849   6.247
  713SOL     OW 2482   1.032   0.549   5.602
  713SOL    HW1 2483   0.991   0.631   5.563
  713SOL    HW2 2484   1.096   0.575   5.675
  714SOL     OW 2485   0.561   0.222   6.733
  714SOL    HW1 2486   0.599   0.138   6.770
  714SOL    HW2 2487   0.473   0.241   6.777
  715SOL     OW 2488   0.866   0.454   6.228
  715SOL    HW1 2489   0.834   0.526   6.166
  715SOL    HW2 2490   0.890   0.373   6.175
  716SOL     OW 2491   1.017   0.039   6.339
  716SOL    HW1 2492   0.945   0.044   6.270
  716SOL    HW2 2493   0.993  -0.030   6.408
  717SOL     OW 2494   1.429   1.173   6.453
  717SOL    HW1 2495   1.374   1.089   6.446
  717SOL    HW2 2496   1.455   1.202   6.361
  718SOL     OW 2497   1.466   0.590   6.578
  718SOL    HW1 2498   1.436   0.495   6.585
  718SOL    HW2 2499   1.539   0.606   6.644
  719SOL     OW 2500   1.857   0.833   5.963
  719SOL    HW1 2501   1.899   0.769   6.027
  719SOL    HW2 2502   1.819   0.782   5.885
  720SOL     OW 2503   0.488   1.385   5.760
  720SOL    HW1 2504   0.401   1.370   5.807
  720SOL    HW2 2505   0.471   1.411   5.665
  721SOL     OW 2506   1.664   1.280   6.243
  721SOL    HW1 2507   1.763   1.288   6.257
  721SOL    HW2 2508   1.619   1.364   6.274
  722SOL     OW 2509   1.390   0.575   5.664
  722SOL    HW1 2510   1.336   0.554   5.745
  722SOL    HW2 2511   1.481   0.534   5.673
  723SOL     OW 2512   0.527   0.256   5.914
  723SOL    HW1 2513   0.554   0.197   5.839
  723SOL    HW2 2514   0.527   0.351   5.883
  724SOL     OW 2515   1.111   1.195   6.686
  724SOL    HW1 2516   1.071   1.239   6.767
  724SOL    HW2 2517   1.070   1.232   6.603
  725SOL     OW 2518   1.638   1.099   6.665
  725SOL    HW1 2519   1.643   1.180   6.724
  725SOL    HW2 2520   1.552   1.101   6.614
  726SOL     OW 2521   0.705   1.050   5.954
  726SOL    HW1 2522   0.691   1.057   6.053
  726SOL    HW2 2523   0.789   0.999   5.936
  727SOL     OW 2524   0.367   1.100   6.087
  727SOL    HW1 2525   0.360   1.183   6.031
  727SOL    HW2 2526   0.371   1.020   6.027
  728SOL     OW 2527   0.566   0.537   6.451
  728SOL    HW1 2528   0.578   0.603   6.377
  728SOL    HW2 2529   0.612   0.571   6.534
  729SOL     OW 2530   1.252   1.348   5.974
  729SOL    HW1 2531   1.302   1.425   6.014
  729SOL    HW2 2532   1.157   1.350   6.006
  730SOL     OW 2533   1.272   1.445   6.728
  730SOL    HW1 2534   1.319   1.458   6.815
  730SOL    HW2 2535   1.206   1.371   6.737
  731SOL     OW 2536   1.582   0.639   6.058
  731SOL    HW1 2537   1.551   0.700   6.131
  731SOL    HW2 2538   1.632   0.691   5.989
  732SOL     OW 2539   0.573   0.870   6.615
  732SOL    HW1 2540   0.617   0.959   6.606
  732SOL    HW2 2541   0.510   0.870   6.692
  733SOL     OW 2542   1.360   0.862   6.631
  733SOL    HW1 2543   1.285   0.862   6.565
  733SOL    HW2 2544   1.397   0.770   6.640
  734SOL     OW 2545   1.209   0.525   5.861
  734SOL    HW1 2546   1.222   0.441   5.915
  734SOL    HW2 2547   1.180   0.599   5.921
  735SOL     OW 2548   0.732   0.634   6.650
  735SOL    HW1 2549   0.791   0.608   6.574
  735SOL    HW2 2550   0.704   0.730   6.639
  736SOL     OW 2551   0.307   0.063   6.204
  736SOL    HW1 2552   0.296   0.157   6.237
  736SOL    HW2 2553   0.302   0.000   6.281
  737SOL     OW 2554   1.622   0.367   5.960
  737SOL    HW1 2555   1.624   0.291   6.024
  737SOL    HW2 2556   1.574   0.444   6.000
  738SOL     OW 2557   1.023   0.766   6.552
  738SOL    HW1 2558   1.038   0.787   6.648
  738SOL    HW2 2559   0.993   0.671   6.543
  739SOL     OW 2560   1.540   0.274   5.711
  739SOL    HW1 2561   1.479   0.199   5.734
  739SOL    HW2 2562   1.562   0.326   5.794
  740SOL     OW 2563   1.303   0.838   5.628
  740SOL    HW1 2564   1.337   0.745   5.643
  740SOL    HW2 2565   1.321   0.865   5.533
  741SOL     OW 2566   1.068   1.333   6.435
  741SOL    HW1 2567   1.075   1.249   6.380
  741SOL    HW2 2568   1.130   1.402   6.399
  742SOL     OW 2569   0.319   0.810   6.535
  742SOL    HW1 2570   0.412   0.846   6.540
  742SOL    HW2 2571   0.313   0.725   6.587
  743SOL     OW 2572   0.339   0.509   6.592
  743SOL    HW1 2573   0.287   0.426   6.575
  743SOL    HW2 2574   0.416   0.514   6.528
  744SOL     OW 2575   0.008   1.326   5.786
  744SOL    HW1 2576  -0.085   1.347   5.755
  744SOL    HW2 2577   0.018   1.227   5.799
  745SOL     OW 2578   0.088   1.801   6.513
  745SOL    HW1 2579   0.046   1.715   6.486
  745SOL    HW2 2580   0.182   1.804   6.479
  746SOL     OW 2581   0.504   1.568   6.496
  746SOL    HW1 2582   0.570   1.642   6.505
  746SOL    HW2 2583   0.548   1.489   6.454
  747SOL     OW 2584   0.040   0.544   6.700
  747SOL    HW1 2585   0.125   0.511   6.659
  747SOL    HW2 2586   0.053   0.559   6.798
  748SOL     OW 2587   0.815   0.572   5.911
  748SOL    HW1 2588   0.822   0.483   5.865
  748SOL    HW2 2589   0.721   0.606   5.903
  749SOL     OW 2590   1.657   0.604   6.792
  749SOL    HW1 2591   1.619   0.535   6.854
  749SOL    HW2 2592   1.739   0.568   6.748
  750SOL     OW 2593   0.671   0.464   6.855
  750SOL    HW1 2594   0.637   0.375   6.825
  750SOL    HW2 2595   0.697   0.518   6.775
  751SOL     OW 2596   0.473   0.500   5.777
  751SOL    HW1 2597   0.534   0.580   5.781
  751SOL    HW2 2598   0.378   0.531   5.784
  752SOL     OW 2599   1.347   1.059   6.820
  752SOL    HW1 2600   1.371   0.996   6.746
  752SOL    HW2 2601   1.257   1.099   6.802
  753SOL     OW 2602   1.302   0.855   5.895
  753SOL    HW1 2603   1.216   0.824   5.937
  753SOL    HW2 2604   1.298   0.841   5.796
  754SOL     OW 2605   1.759   1.747   6.740
  754SOL    HW1 2606   1.820   1.777   6.667
  754SOL    HW2 2607   1.721   1.658   6.718
  755SOL     OW 2608   1.252   1.731   6.714
  755SOL    HW1 2609   1.336   1.736   6.660
  755SOL    HW2 2610   1.229   1.635   6.732
  756SOL     OW 2611   0.083   1.258   6.608
  756SOL    HW1 2612   0.078   1.257   6.708
  756SOL    HW2 2613   0.000   1.217   6.570
  757SOL     OW 2614   1.726   0.135   6.109
  757SOL    HW1 2615   1.799   0.118   6.042
  757SOL    HW2 2616   1.695   0.048   6.147
  758SOL     OW 2617   1.388   1.573   6.063
  758SOL    HW1 2618   1.455   1.585   5.989
  758SOL    HW2 2619   1.348   1.662   6.086
  759SOL     OW 2620   1.280   0.927   6.258
  759SOL    HW1 2621   1.340   0.846   6.260
  759SOL    HW2 2622   1.320   0.996   6.198
  760SOL     OW 2623   0.672   1.616   5.740
  760SOL    HW1 2624   0.681   1.626   5.641
  760SOL    HW2 2625   0.632   1.527   5.761
  761SOL     OW 2626   1.841   0.175   6.549
  761SOL    HW1 2627   1.880   0.090   6.513
  761SOL    HW2 2628   1.743   0.177   6.530
  762SOL     OW 2629   0.263   0.326   6.306
  762SOL    HW1 2630   0.184   0.377   6.272
  762SOL    HW2 2631   0.254   0.311   6.404
  763SOL     OW 2632   1.194   1.612   5.617
  763SOL    HW1 2633   1.200   1.519   5.654
  763SOL    HW2 2634   1.135   1.612   5.537
  764SOL     OW 2635   0.916   0.910   5.877
  764SOL    HW1 2636   0.979   0.948   5.809
  764SOL    HW2 2637   0.956   0.827   5.916
  765SOL     OW 2638   1.504   1.607   5.630
  765SOL    HW1 2639   1.412   1.644   5.637
  765SOL    HW2 2640   1.542   1.627   5.540
  766SOL     OW 2641   1.039   1.098   6.282
  766SOL    HW1 2642   0.969   1.051   6.336
  766SOL    HW2 2643   1.098   1.030   6.239
  767SOL     OW 2644   1.014   0.236   6.557
  767SOL    HW1 2645   1.006   0.200   6.464
  767SOL    HW2 2646   1.012   0.160   6.622
  768SOL     OW 2647   0.590   1.487   6.077
  768SOL    HW1 2648   0.632   1.429   6.007
  768SOL    HW2 2649   0.546   1.566   6.033
  769SOL     OW 2650   0.255   1.348   5.876
  769SOL    HW1 2651   0.159   1.349   5.849
  769SOL    HW2 2652   0.267   1.401   5.960
  770SOL     OW 2653   0.075   0.345   5.619
  770SOL    HW1 2654  -0.017   0.317   5.590
  770SOL    HW2 2655   0.106   0.422   5.563
  771SOL     OW 2656   0.072   0.166   5.904
  771SOL    HW1 2657   0.055   0.249   5.850
  771SOL    HW2 2658   0.162   0.129   5.882
  772SOL     OW 2659   1.183   1.335   5.705
  772SOL    HW1 2660   1.084   1.324   5.707
  772SOL    HW2 2661   1.217   1.350   5.798
  773SOL     OW 2662   1.493   1.767   6.545
  773SOL    HW1 2663   1.526   1.831   6.476
  773SOL    HW2 2664   1.559   1.761   6.620
  774SOL     OW 2665   1.674   0.883   6.840
  774SOL    HW1 2666   1.647   0.794   6.803
  774SOL    HW2 2667   1.675   0.951   6.767
  775SOL     OW 2668   1.225   0.325   6.035
  775SOL    HW1 2669   1.290   0.251   6.024
  775SOL    HW2 2670   1.245   0.375   6.119
  776SOL     OW 2671   0.594   0.745   6.238
  776SOL    HW1 2672   0.644   0.830   6.219
  776SOL    HW2 2673   0.506   0.747   6.190
  777SOL     OW 2674   0.859   1.374   5.602
  777SOL    HW1 2675   0.813   1.389   5.690
  777SOL    HW2 2676   0.903   1.459   5.572
  778SOL     OW 2677   0.661   1.790   6.539
  778SOL    HW1 2678   0.615   1.878   6.526
  778SOL    HW2 2679   0.760   1.802   6.532
  779SOL     OW 2680   0.859   0.956   6.447
  779SOL    HW1 2681   0.913   0.887   6.495
  779SOL    HW2 2682   0.827   1.025   6.513
  780SOL     OW 2683   1.083   0.984   5.673
  780SOL    HW1 2684   1.060   1.037   5.591
  780SOL    HW2 2685   1.164   0.928   5.654
  781SOL     OW 2686   1.861   1.569   6.437
  781SOL    HW1 2687   1.790   1.557   6.367
  781SOL    HW2 2688   1.862   1.490   6.497
  782SOL     OW 2689   0.079   1.240   6.239
  782SOL    HW1 2690   0.078   1.193   6.327
  782SOL    HW2 2691   0.161   1.212   6.188
  783SOL     OW 2692   1.824   0.192   6.813
  783SOL    HW1 2693   1.820   0.102   6.857
  783SOL    HW2 2694   1.827   0.181   6.714
  784SOL     OW 2695   0.428   0.424   6.106
  784SOL    HW1 2696   0.458   0.352   6.044
  784SOL    HW2 2697   0.389   0.384   6.189
  785SOL     OW 2698   1.705   1.487   6.690
  785SOL    HW1 2699   1.612   1.462   6.663
  785SOL    HW2 2700   1.731   1.437   6.772
  786SOL     OW 2701   0.317   0.547   6.866
  786SOL    HW1 2702   0.355   0.488   6.938
  786SOL    HW2 2703   0.357   0.521   6.778
  787SOL     OW 2704   0.812   1.586   6.273
  787SOL    HW1 2705   0.844   1.596   6.179
  787SOL    HW2 2706   0.733   1.524   6.275
  788SOL     OW 2707   1.424   0.214   6.698
  788SOL    HW1 2708   1.476   0.149   6.753
  788SOL    HW2 2709   1.375   0.277   6.759
  789SOL     OW 2710   1.001   0.034   6.740
  789SOL    HW1 2711   0.938  -0.038   6.709
  789SOL    HW2 2712   1.094  -0.002   6.740
  790SOL     OW 2713   0.770   1.330   5.887
  790SOL    HW1 2714   0.724   1.243   5.904
  790SOL    HW2 2715   0.861   1.327   5.928
  791SOL     OW 2716   1.352   0.052   5.754
  791SOL    HW1 2717   1.387   0.011   5.670
  791SOL    HW2 2718   1.262   0.014   5.774
  792SOL     OW 2719   1.300   0.453   6.277
  792SOL    HW1 2720   1.241   0.533   6.281
  792SOL    HW2 2721   1.315   0.418   6.370
  793SOL     OW 2722   1.593   0.221   6.468
  793SOL    HW1 2723   1.509   0.220   6.522
  793SOL    HW2 2724   1.595   0.304   6.412
  794SOL     OW 2725   0.039   1.077   5.886
  794SOL    HW1 2726   0.138   1.066   5.877
  794SOL    HW2 2727  -0.001   0.991   5.918
  795SOL     OW 2728   0.875   1.646   5.923
  795SOL    HW1 2729   0.798   1.611   5.869
  795SOL    HW2 2730   0.843   1.717   5.985
  796SOL     OW 2731   0.230   2.490   0.113
  796SOL    HW1 2732   0.137   2.488   0.150
  796SOL    HW2 2733   0.231   2.451   0.021
  797SOL     OW 2734   0.225   2.137   0.996
  797SOL    HW1 2735   0.260   2.120   1.088
  797SOL    HW2 2736   0.137   2.092   0.984
  798SOL     OW 2737   0.019   2.230   0.647
  798SOL    HW1 2738  -0.063   2.273   0.686
  798SOL    HW2 2739  -0.009   2.157   0.584
  799SOL     OW 2740   0.569   3.137   1.165
  799SOL    HW1 2741   0.476   3.130   1.128
  799SOL    HW2 2742   0.580   3.226   1.209
  800SOL     OW 2743   1.555   3.373   0.703
  800SOL    HW1 2744   1.498   3.357   0.784
  800SOL    HW2 2745   1.496   3.383   0.623
  801SOL     OW 2746   1.135   2.565   0.717
  801SOL    HW1 2747   1.192   2.643   0.692
  801SOL    HW2 2748   1.075   2.591   0.793
  802SOL     OW 2749   1.755   2.469   0.231
  802SOL    HW1 2750   1.743   2.456   0.132
  802SOL    HW2 2751   1.725   2.388   0.280
  803SOL     OW 2752   0.768   3.006   1.023
  803SOL    HW1 2753   0.690   3.023   1.083
  803SOL    HW2 2754   0.802   3.093   0.987
  804SOL     OW 2755   0.850   2.660   1.823
  804SOL    HW1 2756   0.846   2.736   1.888
  804SOL    HW2 2757   0.872   2.696   1.732
  805SOL     OW 2758   0.685   2.874   0.665
  805SOL    HW1 2759   0.754   2.858   0.735
  805SOL    HW2 2760   0.612   2.931   0.703
  806SOL     OW 2761   0.686   3.023   1.803
  806SOL    HW1 2762   0.746   3.102   1.817
  806SOL    HW2 2763   0.600   3.054   1.762
  807SOL     OW 2764   0.335   3.297   1.061
  807SOL    HW1 2765   0.257   3.266   1.008
  807SOL    HW2 2766   0.393   3.355   1.004
  808SOL     OW 2767   1.460   3.367   1.339
  808SOL    HW1 2768   1.484   3.461   1.365
  808SOL    HW2 2769   1.444   3.313   1.421
  809SOL     OW 2770   0.438   2.254   1.499
  809SOL    HW1 2771   0.520   2.198   1.508
  809SOL    HW2 2772   0.357   2.196   1.503
  810SOL     OW 2773   1.603   2.309   0.737
  810SOL    HW1 2774   1.529   2.355   0.687
  810SOL    HW2 2775   1.654   2.377   0.790
  811SOL     OW 2776   0.231   3.575   0.483
  811SOL    HW1 2777   0.265   3.652   0.537
  811SOL    HW2 2778   0.275   3.575   0.393
  812SOL     OW 2779   1.127   3.203   1.690
  812SOL    HW1 2780   1.174   3.203   1.778
  812SOL    HW2 2781   1.079   3.116   1.679
  813SOL     OW 2782   0.230   3.296   0.538
  813SOL    HW1 2783   0.204   3.392   0.538
  813SOL    HW2 2784   0.159   3.242   0.583
  814SOL     OW 2785   0.240   2.953   0.886
  814SOL    HW1 2786   0.254   2.869   0.938
  814SOL    HW2 2787   0.185   3.017   0.941
  815SOL     OW 2788   0.620   3.648   1.439
  815SOL    HW1 2789   0.528   3.631   1.474
  815SOL    HW2 2790   0.648   3.740   1.465
  816SOL     OW 2791   0.606   2.826   0.123
  816SOL    HW1 2792   0.613   2.910   0.069
  816SOL    HW2 2793   0.652   2.839   0.211
  817SOL     OW 2794   1.594   1.976   1.480
  817SOL    HW1 2795   1.576   2.043   1.408
  817SOL    HW2 2796   1.591   2.022   1.569
  818SOL     OW 2797   0.122   2.505   0.563
  818SOL    HW1 2798   0.077   2.417   0.580
  818SOL    HW2 2799   0.121   2.559   0.647
  819SOL     OW 2800   1.842   3.629   0.359
  819SOL    HW1 2801   1.896   3.600   0.439
  819SOL    HW2 2802   1.872   3.719   0.330
  820SOL     OW 2803   0.027   3.458   0.117
  820SOL    HW1 2804   0.008   3.362   0.138
  820SOL    HW2 2805  -0.006   3.516   0.192
  821SOL     OW 2806   1.689   2.784   0.612
  821SOL    HW1 2807   1.784   2.755   0.620
  821SOL    HW2 2808   1.681   2.849   0.537
  822SOL     OW 2809   1.641   2.970   0.432
  822SOL    HW1 2810   1.727   2.972   0.380
  822SOL    HW2 2811   1.655   3.017   0.520
  823SOL     OW 2812   0.113   2.599   1.597
  823SOL    HW1 2813   0.201   2.586   1.642
  823SOL    HW2 2814   0.100   2.696   1.575
  824SOL     OW 2815   0.613   3.227   0.726
  824SOL    HW1 2816   0.564   3.140   0.735
  824SOL    HW2 2817   0.590   3.270   0.639
  825SOL     OW 2818   1.293   3.090   1.423
  825SOL    HW1 2819   1.330   3.017   1.365
  825SOL    HW2 2820   1.345   3.095   1.508
  826SOL     OW 2821   0.809   1.866   0.502
  826SOL    HW1 2822   0.849   1.957   0.493
  826SOL    HW2 2823   0.709   1.874   0.508
  827SOL     OW 2824   0.197   2.838   1.264
  827SOL    HW1 2825   0.286   2.793   1.250
  827SOL    HW2 2826   0.124   2.773   1.245
  828SOL     OW 2827   1.525   2.861   0.190
  828SOL    HW1 2828   1.462   2.785   0.203
  828SOL    HW2 2829   1.573   2.879   0.276
  829SOL     OW 2830   1.187   3.654   1.616
  829SOL    HW1 2831   1.211   3.714   1.540
  829SOL    HW2 2832   1.194   3.559   1.586
  830SOL     OW 2833   0.317   2.113   1.801
  830SOL    HW1 2834   0.388   2.184   1.807
  830SOL    HW2 2835   0.229   2.152   1.829
  831SOL     OW 2836   1.466   3.279   0.953
  831SOL    HW1 2837   1.407   3.285   1.033
  831SOL    HW2 2838   1.451   3.191   0.907
  832SOL     OW 2839   1.667   3.576   0.572
  832SOL    HW1 2840   1.626   3.553   0.484
  832SOL    HW2 2841   1.649   3.502   0.637
  833SOL     OW 2842   0.598   2.591   0.270
  833SOL    HW1 2843   0.622   2.660   0.202
  833SOL    HW2 2844   0.520   2.624   0.324
  834SOL     OW 2845   1.281   2.207   0.944
  834SOL    HW1 2846   1.195   2.157   0.931
  834SOL    HW2 2847   1.343   2.153   1.000
  835SOL     OW 2848   0.807   2.467   1.465
  835SOL    HW1 2849   0.760   2.464   1.554
  835SOL    HW2 2850   0.756   2.412   1.399
  836SOL     OW 2851   1.394   2.331   1.674
  836SOL    HW1 2852   1.374   2.374   1.762
  836SOL    HW2 2853   1.472   2.269   1.683
  837SOL     OW 2854   0.973   2.752   1.572
  837SOL    HW1 2855   1.019   2.668   1.543
  837SOL    HW2 2856   0.917   2.786   1.497
  838SOL     OW 2857   0.991   2.272   1.242
  838SOL    HW1 2858   0.914   2.306   1.296
  838SOL    HW2 2859   0.957   2.221   1.163
  839SOL     OW 2860   1.041   2.563   0.429
  839SOL    HW1 2861   1.067   2.559   0.525
  839SOL    HW2 2862   0.956   2.512   0.415
  840SOL     OW 2863   0.076   2.673   0.789
  840SOL    HW1 2864   0.175   2.661   0.798
  840SOL    HW2 2865   0.052   2.768   0.810
  841SOL     OW 2866   0.130   3.683   1.571
  841SOL    HW1 2867   0.120   3.668   1.670
  841SOL    HW2 2868   0.044   3.719   1.535
  842SOL     OW 2869   0.865   2.210   0.195
  842SOL    HW1 2870   0.924   2.273   0.146
  842SOL    HW2 2871   0.884   2.116   0.166
  843SOL     OW 2872   1.719   2.447   1.831
  843SOL    HW1 2873   1.693   2.536   1.795
  843SOL    HW2 2874   1.717   2.379   1.758
  844SOL     OW 2875   1.362   3.006   0.545
  844SOL    HW1 2876   1.445   2.977   0.497
  844SOL    HW2 2877   1.313   3.073   0.489
  845SOL     OW 2878   0.550   2.058   0.885
  845SOL    HW1 2879   0.545   2.053   0.985
  845SOL    HW2 2880   0.552   2.154   0.856
  846SOL     OW 2881   1.008   3.318   0.477
  846SOL    HW1 2882   0.962   3.390   0.425
  846SOL    HW2 2883   1.004   3.338   0.575
  847SOL     OW 2884   0.351   3.663   0.853
  847SOL    HW1 2885   0.401   3.577   0.859
  847SOL    HW2 2886   0.416   3.740   0.850
  848SOL     OW 2887   1.795   2.928   0.873
  848SOL    HW1 2888   1.733   2.913   0.797
  848SOL    HW2 2889   1.743   2.939   0.958
  849SOL     OW 2890   1.227   3.412   1.506
  849SOL    HW1 2891   1.233   3.335   1.570
  849SOL    HW2 2892   1.175   3.386   1.426
  850SOL     OW 2893   0.321   2.805   0.242
  850SOL    HW1 2894   0.403   2.844   0.200
  850SOL    HW2 2895   0.294   2.723   0.193
  851SOL     OW 2896   1.458   2.597   0.728
  851SOL    HW1 2897   1.453   2.532   0.803
  851SOL    HW2 2898   1.538   2.656   0.741
  852SOL     OW 2899   0.461   3.128   1.727
  852SOL    HW1 2900   0.411   3.129   1.641
  852SOL    HW2 2901   0.398   3.110   1.803
  853SOL     OW 2902   1.111   3.638   0.237
  853SOL    HW1 2903   1.051   3.576   0.287
  853SOL    HW2 2904   1.142   3.594   0.152
  854SOL     OW 2905   0.202   2.147   1.498
  854SOL    HW1 2906   0.122   2.207   1.485
  854SOL    HW2 2907   0.192   2.098   1.584
  855SOL     OW 2908   1.632   3.239   0.081
  855SOL    HW1 2909   1.600   3.333   0.071
  855SOL    HW2 2910   1.556   3.176   0.069
  856SOL     OW 2911   0.464   3.605   0.323
  856SOL    HW1 2912   0.497   3.644   0.409
  856SOL    HW2 2913   0.540   3.598   0.258
  857SOL     OW 2914   1.400   1.969   0.426
  857SOL    HW1 2915   1.376   1.932   0.336
  857SOL    HW2 2916   1.499   1.985   0.430
  858SOL     OW 2917   0.249   3.647   1.241
  858SOL    HW1 2918   0.306   3.582   1.291
  858SOL    HW2 2919   0.233   3.614   1.148
  859SOL     OW 2920   0.940   3.560   0.904
  859SOL    HW1 2921   1.020   3.503   0.925
  859SOL    HW2 2922   0.891   3.520   0.827
  860SOL     OW 2923   0.382   2.562   0.480
  860SOL    HW1 2924   0.427   2.472   0.477
  860SOL    HW2 2925   0.288   2.551   0.513
  861SOL     OW 2926   1.547   2.084   1.729
  861SOL    HW1 2927   1.542   2.121   1.821
  861SOL    HW2 2928   1.475   2.015   1.717
  862SOL     OW 2929   0.614   1.984   0.117
  862SOL    HW1 2930   0.712   1.962   0.124
  862SOL    HW2 2931   0.583   1.967   0.024
  863SOL     OW 2932   0.781   2.126   1.749
  863SOL    HW1 2933   0.848   2.065   1.792
  863SOL    HW2 2934   0.708   2.145   1.814
  864SOL     OW 2935   0.888   3.376   1.195
  864SOL    HW1 2936   0.865   3.351   1.101
  864SOL    HW2 2937   0.949   3.307   1.234
  865SOL     OW 2938   1.351   2.452   1.433
  865SOL    HW1 2939   1.379   2.409   1.518
  865SOL    HW2 2940   1.376   2.548   1.434
  866SOL     OW 2941   0.803   3.264   0.924
  866SOL    HW1 2942   0.893   3.278   0.882
  866SOL    HW2 2943   0.732   3.266   0.853
  867SOL     OW 2944   0.922   2.365   0.899
  867SOL    HW1 2945   0.897   2.356   0.803
  867SOL    HW2 2946   0.970   2.283   0.930
  868SOL     OW 2947   0.539   1.926   0.512
  868SOL    HW1 2948   0.458   1.927   0.570
  868SOL    HW2 2949   0.542   2.009   0.457
  869SOL     OW 2950   1.434   3.050   0.041
  869SOL    HW1 2951   1.466   2.974   0.098
  869SOL    HW2 2952   1.342   3.077   0.071
  870SOL     OW 2953   0.297   1.897   0.171
  870SOL    HW1 2954   0.346   1.981   0.150
  870SOL    HW2 2955   0.359   1.832   0.216
  871SOL     OW 2956   0.935   2.098   0.480
  871SOL    HW1 2957   0.887   2.139   0.402
  871SOL    HW2 2958   1.034   2.096   0.461
  872SOL     OW 2959   1.076   2.545   1.464
  872SOL    HW1 2960   0.996   2.484   1.467
  872SOL    HW2 2961   1.157   2.492   1.440
  873SOL     OW 2962   1.227   3.432   0.793
  873SOL    HW1 2963   1.248   3.506   0.728
  873SOL    HW2 2964   1.295   3.432   0.866
  874SOL     OW 2965   0.459   3.014   0.741
  874SOL    HW1 2966   0.388   2.987   0.806
  874SOL    HW2 2967   0.433   2.986   0.648
  875SOL     OW 2968   1.271   3.659   0.591
  875SOL    HW1 2969   1.315   3.723   0.527
  875SOL    HW2 2970   1.221   3.711   0.661
  876SOL     OW 2971   1.032   2.411   0.016
  876SOL    HW1 2972   0.991   2.493  -0.023
  876SOL    HW2 2973   1.096   2.437   0.089
  877SOL     OW 2974   0.078   2.418   1.386
  877SOL    HW1 2975   0.170   2.417   1.345
  877SOL    HW2 2976   0.072   2.492   1.453
  878SOL     OW 2977   0.561   2.084   1.147
  878SOL    HW1 2978   0.599   2.000   1.184
  878SOL    HW2 2979   0.473   2.103   1.191
  879SOL     OW 2980   0.866   2.316   0.642
  879SOL    HW1 2981   0.834   2.388   0.580
  879SOL    HW2 2982   0.890   2.235   0.589
  880SOL     OW 2983   1.017   1.901   0.753
  880SOL    HW1 2984   0.945   1.906   0.684
  880SOL    HW2 2985   0.993   1.832   0.822
  881SOL     OW 2986   1.429   3.035   0.867
  881SOL    HW1 2987   1.374   2.951   0.860
  881SOL    HW2 2988   1.455   3.064   0.775
  882SOL     OW 2989   1.466   2.452   0.992
  882SOL    HW1 2990   1.436   2.357   0.999
  882SOL    HW2 2991   1.539   2.468   1.058
  883SOL     OW 2992   1.857   2.695   0.377
  883SOL    HW1 2993   1.899   2.631   0.441
  883SOL    HW2 2994   1.819   2.644   0.299
  884SOL     OW 2995   0.488   3.247   0.174
  884SOL    HW1 2996   0.401   3.232   0.221
  884SOL    HW2 2997   0.471   3.273   0.079
  885SOL     OW 2998   1.664   3.142   0.657
  885SOL    HW1 2999   1.763   3.150   0.671
  885SOL    HW2 3000   1.619   3.226   0.688
  886SOL     OW 3001   1.390   2.437   0.078
  886SOL    HW1 3002   1.336   2.416   0.159
  886SOL    HW2 3003   1.481   2.396   0.087
  887SOL     OW 3004   0.527   2.118   0.328
  887SOL    HW1 3005   0.554   2.059   0.253
  887SOL    HW2 3006   0.527   2.213   0.297
  888SOL     OW 3007   1.754   3.085   1.588
  888SOL    HW1 3008   1.845   3.046   1.575
  888SOL    HW2 3009   1.762   3.181   1.612
  889SOL     OW 3010   1.064   3.209   1.340
  889SOL    HW1 3011   0.984   3.186   1.395
  889SOL    HW2 3012   1.147   3.183   1.389
  890SOL     OW 3013   1.592   3.491   1.625
  890SOL    HW1 3014   1.619   3.525   1.535
  890SOL    HW2 3015   1.671   3.453   1.671
  891SOL     OW 3016   1.111   3.057   1.100
  891SOL    HW1 3017   1.071   3.101   1.181
  891SOL    HW2 3018   1.070   3.094   1.017
  892SOL     OW 3019   1.638   2.961   1.079
  892SOL    HW1 3020   1.643   3.042   1.138
  892SOL    HW2 3021   1.552   2.963   1.028
  893SOL     OW 3022   0.915   1.951   1.402
  893SOL    HW1 3023   0.940   1.931   1.307
  893SOL    HW2 3024   0.987   2.007   1.444
  894SOL     OW 3025   0.980   2.978   1.719
  894SOL    HW1 3026   0.881   2.984   1.729
  894SOL    HW2 3027   1.003   2.898   1.663
  895SOL     OW 3028   0.705   2.912   0.368
  895SOL    HW1 3029   0.691   2.919   0.467
  895SOL    HW2 3030   0.789   2.861   0.350
  896SOL     OW 3031   0.410   2.675   1.251
  896SOL    HW1 3032   0.496   2.687   1.301
  896SOL    HW2 3033   0.368   2.588   1.278
  897SOL     OW 3034   1.274   2.248   1.262
  897SOL    HW1 3035   1.295   2.322   1.326
  897SOL    HW2 3036   1.185   2.265   1.219
  898SOL     OW 3037   0.064   3.426   1.331
  898SOL    HW1 3038   0.018   3.508   1.297
  898SOL    HW2 3039   0.162   3.445   1.340
  899SOL     OW 3040   0.367   2.962   0.501
  899SOL    HW1 3041   0.360   3.045   0.445
  899SOL    HW2 3042   0.371   2.882   0.441
  900SOL     OW 3043   0.566   2.399   0.865
  900SOL    HW1 3044   0.578   2.465   0.791
  900SOL    HW2 3045   0.612   2.433   0.948
  901SOL     OW 3046   1.252   3.210   0.388
  901SOL    HW1 3047   1.302   3.287   0.428
  901SOL    HW2 3048   1.157   3.212   0.420
  902SOL     OW 3049   1.272   3.307   1.142
  902SOL    HW1 3050   1.319   3.320   1.229
  902SOL    HW2 3051   1.206   3.233   1.151
  903SOL     OW 3052   1.582   2.501   0.472
  903SOL    HW1 3053   1.551   2.562   0.545
  903SOL    HW2 3054   1.632   2.553   0.403
  904SOL     OW 3055   0.354   3.372   1.329
  904SOL    HW1 3056   0.333   3.328   1.242
  904SOL    HW2 3057   0.451   3.398   1.332
  905SOL     OW 3058   0.402   2.613   1.598
  905SOL    HW1 3059   0.470   2.668   1.551
  905SOL    HW2 3060   0.442   2.525   1.625
  906SOL     OW 3061   1.587   2.641   1.670
  906SOL    HW1 3062   1.495   2.679   1.665
  906SOL    HW2 3063   1.647   2.688   1.605
  907SOL     OW 3064   1.013   1.967   1.770
  907SOL    HW1 3065   1.019   2.052   1.718
  907SOL    HW2 3066   1.045   1.891   1.713
  908SOL     OW 3067   0.504   1.912   1.740
  908SOL    HW1 3068   0.462   1.855   1.670
  908SOL    HW2 3069   0.438   1.981   1.772
  909SOL     OW 3070   0.573   2.732   1.029
  909SOL    HW1 3071   0.617   2.821   1.020
  909SOL    HW2 3072   0.510   2.732   1.106
  910SOL     OW 3073   1.360   2.724   1.045
  910SOL    HW1 3074   1.285   2.724   0.979
  910SOL    HW2 3075   1.397   2.632   1.054
  911SOL     OW 3076   1.209   2.387   0.275
  911SOL    HW1 3077   1.222   2.303   0.329
  911SOL    HW2 3078   1.180   2.461   0.335
  912SOL     OW 3079   0.307   2.075   1.231
  912SOL    HW1 3080   0.284   2.112   1.321
  912SOL    HW2 3081   0.277   1.980   1.225
  913SOL     OW 3082   0.037   3.172   1.282
  913SOL    HW1 3083   0.090   3.123   1.350
  913SOL    HW2 3084   0.059   3.270   1.287
  914SOL     OW 3085   0.732   2.496   1.064
  914SOL    HW1 3086   0.791   2.470   0.988
  914SOL    HW2 3087   0.704   2.592   1.053
  915SOL     OW 3088   1.728   2.797   1.854
  915SOL    HW1 3089   1.682   2.790   1.765
  915SOL    HW2 3090   1.666   2.841   1.920
  916SOL     OW 3091   0.307   1.925   0.618
  916SOL    HW1 3092   0.296   2.019   0.651
  916SOL    HW2 3093   0.302   1.862   0.695
  917SOL     OW 3094   1.622   2.229   0.374
  917SOL    HW1 3095   1.624   2.153   0.438
  917SOL    HW2 3096   1.574   2.306   0.414
  918SOL     OW 3097   1.023   2.628   0.966
  918SOL    HW1 3098   1.038   2.649   1.062
  918SOL    HW2 3099   0.993   2.533   0.957
  919SOL     OW 3100   0.980   3.435   1.700
  919SOL    HW1 3101   0.960   3.479   1.612
  919SOL    HW2 3102   1.019   3.344   1.684
  920SOL     OW 3103   1.859   3.380   1.605
  920SOL    HW1 3104   1.873   3.407   1.510
  920SOL    HW2 3105   1.942   3.402   1.658
  921SOL     OW 3106   0.350   2.760   1.804
  921SOL    HW1 3107   0.426   2.804   1.852
  921SOL    HW2 3108   0.385   2.713   1.722
  922SOL     OW 3109   1.540   2.136   0.125
  922SOL    HW1 3110   1.479   2.061   0.148
  922SOL    HW2 3111   1.562   2.188   0.208
  923SOL     OW 3112   1.303   2.700   0.042
  923SOL    HW1 3113   1.337   2.607   0.057
  923SOL    HW2 3114   1.321   2.727  -0.053
  924SOL     OW 3115   1.068   3.195   0.849
  924SOL    HW1 3116   1.075   3.111   0.794
  924SOL    HW2 3117   1.130   3.264   0.813
  925SOL     OW 3118   0.319   2.672   0.949
  925SOL    HW1 3119   0.412   2.708   0.954
  925SOL    HW2 3120   0.313   2.587   1.001
  926SOL     OW 3121   0.339   2.371   1.006
  926SOL    HW1 3122   0.287   2.288   0.989
  926SOL    HW2 3123   0.416   2.376   0.942
  927SOL     OW 3124   1.138   2.242   1.678
  927SOL    HW1 3125   1.093   2.305   1.742
  927SOL    HW2 3126   1.231   2.273   1.661
  928SOL     OW 3127   1.160   2.069   1.477
  928SOL    HW1 3128   1.160   2.133   1.554
  928SOL    HW2 3129   1.188   2.117   1.394
  929SOL     OW 3130   0.008   3.188   0.200
  929SOL    HW1 3131  -0.085   3.209   0.169
  929SOL    HW2 3132   0.018   3.089   0.213
  930SOL     OW 3133   0.088   3.663   0.927
  930SOL    HW1 3134   0.046   3.577   0.900
  930SOL    HW2 3135   0.182   3.666   0.893
  931SOL     OW 3136   0.504   3.430   0.910
  931SOL    HW1 3137   0.570   3.504   0.919
  931SOL    HW2 3138   0.548   3.351   0.868
  932SOL     OW 3139   1.002   2.658   1.238
  932SOL    HW1 3140   1.043   2.626   1.324
  932SOL    HW2 3141   0.906   2.631   1.235
  933SOL     OW 3142   0.040   2.406   1.114
  933SOL    HW1 3143   0.125   2.373   1.073
  933SOL    HW2 3144   0.053   2.421   1.212
  934SOL     OW 3145   0.189   2.382   1.722
  934SOL    HW1 3146   0.248   2.342   1.652
  934SOL    HW2 3147   0.131   2.453   1.681
  935SOL     OW 3148   1.369   2.812   1.660
  935SOL    HW1 3149   1.408   2.901   1.680
  935SOL    HW2 3150   1.379   2.792   1.563
  936SOL     OW 3151   0.815   2.434   0.325
  936SOL    HW1 3152   0.822   2.345   0.279
  936SOL    HW2 3153   0.721   2.468   0.317
  937SOL     OW 3154   1.657   2.466   1.206
  937SOL    HW1 3155   1.619   2.397   1.268
  937SOL    HW2 3156   1.739   2.430   1.162
  938SOL     OW 3157   0.252   3.426   1.744
  938SOL    HW1 3158   0.222   3.483   1.820
  938SOL    HW2 3159   0.245   3.329   1.770
  939SOL     OW 3160   0.671   2.326   1.269
  939SOL    HW1 3161   0.637   2.237   1.239
  939SOL    HW2 3162   0.697   2.380   1.189
  940SOL     OW 3163   0.930   3.540   1.465
  940SOL    HW1 3164   0.906   3.522   1.370
  940SOL    HW2 3165   0.960   3.634   1.475
  941SOL     OW 3166   0.473   2.362   0.191
  941SOL    HW1 3167   0.534   2.442   0.195
  941SOL    HW2 3168   0.378   2.393   0.198
  942SOL     OW 3169   0.159   2.999   1.466
  942SOL    HW1 3170   0.181   2.938   1.542
  942SOL    HW2 3171   0.169   2.950   1.380
  943SOL     OW 3172   1.347   2.921   1.234
  943SOL    HW1 3173   1.371   2.858   1.160
  943SOL    HW2 3174   1.257   2.961   1.216
  944SOL     OW 3175   1.302   2.717   0.309
  944SOL    HW1 3176   1.216   2.686   0.351
  944SOL    HW2 3177   1.298   2.703   0.210
  945SOL     OW 3178   1.759   3.609   1.154
  945SOL    HW1 3179   1.820   3.639   1.081
  945SOL    HW2 3180   1.721   3.520   1.132
  946SOL     OW 3181   1.252   3.593   1.128
  946SOL    HW1 3182   1.336   3.598   1.074
  946SOL    HW2 3183   1.229   3.497   1.146
  947SOL     OW 3184   0.083   3.120   1.022
  947SOL    HW1 3185   0.078   3.119   1.122
  947SOL    HW2 3186   0.000   3.079   0.984
  948SOL     OW 3187   0.688   3.524   1.716
  948SOL    HW1 3188   0.632   3.605   1.725
  948SOL    HW2 3189   0.740   3.528   1.630
  949SOL     OW 3190   0.903   1.948   0.133
  949SOL    HW1 3191   0.954   1.949   0.047
  949SOL    HW2 3192   0.959   1.906   0.204
  950SOL     OW 3193   1.726   1.997   0.523
  950SOL    HW1 3194   1.799   1.980   0.456
  950SOL    HW2 3195   1.695   1.910   0.561
  951SOL     OW 3196   1.388   3.435   0.477
  951SOL    HW1 3197   1.455   3.447   0.403
  951SOL    HW2 3198   1.348   3.524   0.500
  952SOL     OW 3199   0.130   3.656   1.851
  952SOL    HW1 3200   0.089   3.582   1.904
  952SOL    HW2 3201   0.194   3.707   1.909
  953SOL     OW 3202   1.280   2.789   0.672
  953SOL    HW1 3203   1.340   2.708   0.674
  953SOL    HW2 3204   1.320   2.858   0.612
  954SOL     OW 3205   0.830   3.135   1.422
  954SOL    HW1 3206   0.825   3.168   1.517
  954SOL    HW2 3207   0.744   3.154   1.376
  955SOL     OW 3208   0.672   3.478   0.154
  955SOL    HW1 3209   0.681   3.488   0.055
  955SOL    HW2 3210   0.632   3.389   0.175
  956SOL     OW 3211   1.650   3.582   1.394
  956SOL    HW1 3212   1.703   3.592   1.310
  956SOL    HW2 3213   1.623   3.672   1.428
  957SOL     OW 3214   1.841   2.037   0.963
  957SOL    HW1 3215   1.880   1.952   0.927
  957SOL    HW2 3216   1.743   2.039   0.944
  958SOL     OW 3217   0.263   2.188   0.720
  958SOL    HW1 3218   0.184   2.239   0.686
  958SOL    HW2 3219   0.254   2.173   0.818
  959SOL     OW 3220   1.194   3.474   0.031
  959SOL    HW1 3221   1.200   3.381   0.068
  959SOL    HW2 3222   1.135   3.474  -0.049
  960SOL     OW 3223   0.822   2.864   1.372
  960SOL    HW1 3224   0.862   2.863   1.280
  960SOL    HW2 3225   0.832   2.956   1.412
  961SOL     OW 3226   0.916   2.772   0.291
  961SOL    HW1 3227   0.979   2.810   0.223
  961SOL    HW2 3228   0.956   2.689   0.330
  962SOL     OW 3229   1.504   3.469   0.044
  962SOL    HW1 3230   1.412   3.506   0.051
  962SOL    HW2 3231   1.542   3.489  -0.046
  963SOL     OW 3232   0.372   3.150   1.490
  963SOL    HW1 3233   0.359   3.243   1.456
  963SOL    HW2 3234   0.288   3.098   1.477
  964SOL     OW 3235   1.614   3.154   1.289
  964SOL    HW1 3236   1.674   3.157   1.369
  964SOL    HW2 3237   1.539   3.218   1.302
  965SOL     OW 3238   1.039   2.960   0.696
  965SOL    HW1 3239   0.969   2.913   0.750
  965SOL    HW2 3240   1.098   2.892   0.653
  966SOL     OW 3241   1.014   2.098   0.971
  966SOL    HW1 3242   1.006   2.062   0.878
  966SOL    HW2 3243   1.012   2.022   1.036
  967SOL     OW 3244   0.590   3.349   0.491
  967SOL    HW1 3245   0.632   3.291   0.421
  967SOL    HW2 3246   0.546   3.428   0.447
  968SOL     OW 3247   1.709   2.247   1.381
  968SOL    HW1 3248   1.782   2.316   1.385
  968SOL    HW2 3249   1.737   2.172   1.322
  969SOL     OW 3250   0.255   3.210   0.290
  969SOL    HW1 3251   0.159   3.211   0.263
  969SOL    HW2 3252   0.267   3.263   0.374
  970SOL     OW 3253   0.105   2.875   1.726
  970SOL    HW1 3254   0.028   2.842   1.780
  970SOL    HW2 3255   0.190   2.845   1.768
  971SOL     OW 3256   0.672   2.065   1.489
  971SOL    HW1 3257   0.762   2.049   1.449
  971SOL    HW2 3258   0.680   2.070   1.588
  972SOL     OW 3259   0.075   2.207   0.033
  972SOL    HW1 3260  -0.017   2.179   0.004
  972SOL    HW2 3261   0.106   2.284  -0.023
  973SOL     OW 3262   1.440   2.718   1.398
  973SOL    HW1 3263   1.383   2.770   1.335
  973SOL    HW2 3264   1.536   2.730   1.374
  974SOL     OW 3265   0.072   2.028   0.318
  974SOL    HW1 3266   0.055   2.111   0.264
  974SOL    HW2 3267   0.162   1.991   0.296
  975SOL     OW 3268   1.183   3.197   0.119
  975SOL    HW1 3269   1.084   3.186   0.121
  975SOL    HW2 3270   1.217   3.212   0.212
  976SOL     OW 3271   0.613   2.704   1.431
  976SOL    HW1 3272   0.669   2.785   1.414
  976SOL    HW2 3273   0.672   2.624   1.434
  977SOL     OW 3274   1.493   3.629   0.959
  977SOL    HW1 3275   1.526   3.693   0.890
  977SOL    HW2 3276   1.559   3.623   1.034
  978SOL     OW 3277   0.716   2.427   1.708
  978SOL    HW1 3278   0.735   2.492   1.782
  978SOL    HW2 3279   0.776   2.347   1.717
  979SOL     OW 3280   1.450   3.082   1.633
  979SOL    HW1 3281   1.441   3.072   1.732
  979SOL    HW2 3282   1.546   3.075   1.607
  980SOL     OW 3283   0.390   3.603   1.560
  980SOL    HW1 3284   0.299   3.644   1.558
  980SOL    HW2 3285   0.383   3.509   1.592
  981SOL     OW 3286   1.674   2.745   1.254
  981SOL    HW1 3287   1.647   2.656   1.217
  981SOL    HW2 3288   1.675   2.813   1.181
  982SOL     OW 3289   1.225   2.187   0.449
  982SOL    HW1 3290   1.290   2.113   0.438
  982SOL    HW2 3291   1.245   2.237   0.533
  983SOL     OW 3292   0.594   2.607   0.652
  983SOL    HW1 3293   0.644   2.692   0.633
  983SOL    HW2 3294   0.506   2.609   0.604
  984SOL     OW 3295   1.777   2.204   1.642
  984SOL    HW1 3296   1.760   2.235   1.548
  984SOL    HW2 3297   1.693   2.167   1.680
  985SOL     OW 3298   1.730   2.796   1.517
  985SOL    HW1 3299   1.768   2.887   1.532
  985SOL    HW2 3300   1.722   2.779   1.418
  986SOL     OW 3301   0.859   3.236   0.016
  986SOL    HW1 3302   0.813   3.251   0.104
  986SOL    HW2 3303   0.903   3.321  -0.014
  987SOL     OW 3304   0.661   3.652   0.953
  987SOL    HW1 3305   0.615   3.740   0.940
  987SOL    HW2 3306   0.760   3.664   0.946
  988SOL     OW 3307   0.859   2.818   0.861
  988SOL    HW1 3308   0.913   2.749   0.909
  988SOL    HW2 3309   0.827   2.887   0.927
  989SOL     OW 3310   1.083   2.846   0.087
  989SOL    HW1 3311   1.060   2.899   0.005
  989SOL    HW2 3312   1.164   2.790   0.068
  990SOL     OW 3313   1.861   3.431   0.851
  990SOL    HW1 3314   1.790   3.419   0.781
  990SOL    HW2 3315   1.862   3.352   0.911
  991SOL     OW 3316   0.221   3.176   1.844
  991SOL    HW1 3317   0.156   3.103   1.823
  991SOL    HW2 3318   0.225   3.190   1.942
  992SOL     OW 3319   0.079   3.102   0.653
  992SOL    HW1 3320   0.078   3.055   0.741
  992SOL    HW2 3321   0.161   3.074   0.602
  993SOL     OW 3322   0.672   3.253   1.624
  993SOL    HW1 3323   0.594   3.203   1.662
  993SOL    HW2 3324   0.669   3.348   1.655
  994SOL     OW 3325   1.824   2.054   1.227
  994SOL    HW1 3326   1.820   1.964   1.271
  994SOL    HW2 3327   1.827   2.043   1.128
  995SOL     OW 3328   0.428   2.286   0.520
  995SOL    HW1 3329   0.458   2.214   0.458
  995SOL    HW2 3330   0.389   2.246   0.603
  996SOL     OW 3331   1.705   3.349   1.104
  996SOL    HW1 3332   1.612   3.324   1.077
  996SOL    HW2 3333   1.731   3.299   1.186
  997SOL     OW 3334   0.317   2.409   1.280
  997SOL    HW1 3335   0.355   2.350   1.352
  997SOL    HW2 3336   0.357   2.383   1.192
  998SOL     OW 3337   0.812   3.448   0.687
  998SOL    HW1 3338   0.844   3.458   0.593
  998SOL    HW2 3339   0.733   3.386   0.689
  999SOL     OW 3340   1.424   2.076   1.112
  999SOL    HW1 3341   1.476   2.011   1.167
  999SOL    HW2 3342   1.375   2.139   1.173
 1000SOL     OW 3343   1.001   1.896   1.154
 1000SOL    HW1 3344   0.938   1.824   1.123
 1000SOL    HW2 3345   1.094   1.860   1.154
 1001SOL     OW 3346   0.770   3.192   0.301
 1001SOL    HW1 3347   0.724   3.105   0.318
 1001SOL    HW2 3348   0.861   3.189   0.342
 1002SOL     OW 3349   0.618   3.429   1.284
 1002SOL    HW1 3350   0.613   3.511   1.341
 1002SOL    HW2 3351   0.707   3.426   1.239
 1003SOL     OW 3352   1.352   1.914   0.168
 1003SOL    HW1 3353   1.387   1.873   0.084
 1003SOL    HW2 3354   1.262   1.876   0.188
 1004SOL     OW 3355   1.300   2.315   0.691
 1004SOL    HW1 3356   1.241   2.395   0.695
 1004SOL    HW2 3357   1.315   2.280   0.784
 1005SOL     OW 3358   1.593   2.083   0.882
 1005SOL    HW1 3359   1.509   2.082   0.936
 1005SOL    HW2 3360   1.595   2.166   0.826
 1006SOL     OW 3361   0.039   2.939   0.300
 1006SOL    HW1 3362   0.138   2.928   0.291
 1006SOL    HW2 3363  -0.001   2.853   0.332
 1007SOL     OW 3364   0.875   3.508   0.337
 1007SOL    HW1 3365   0.798   3.473   0.283
 1007SOL    HW2 3366   0.843   3.579   0.399
 1008SOL     OW 3367   0.230   2.490   1.975
 1008SOL    HW1 3368   0.137   2.488   2.012
 1008SOL    HW2 3369   0.231   2.451   1.883
 1009SOL     OW 3370   0.225   2.137   2.858
 1009SOL    HW1 3371   0.260   2.120   2.950
 1009SOL    HW2 3372   0.137   2.092   2.846
 1010SOL     OW 3373   0.019   2.230   2.509
 1010SOL    HW1 3374  -0.063   2.273   2.548
 1010SOL    HW2 3375  -0.009   2.157   2.446
 1011SOL     OW 3376   0.569   3.137   3.027
 1011SOL    HW1 3377   0.476   3.130   2.990
 1011SOL    HW2 3378   0.580   3.226   3.071
 1012SOL     OW 3379   1.555   3.373   2.565
 1012SOL    HW1 3380   1.498   3.357   2.646
 1012SOL    HW2 3381   1.496   3.383   2.485
 1013SOL     OW 3382   1.135   2.565   2.579
 1013SOL    HW1 3383   1.192   2.643   2.554
 1013SOL    HW2 3384   1.075   2.591   2.655
 1014SOL     OW 3385   1.755   2.469   2.093
 1014SOL    HW1 3386   1.743   2.456   1.994
 1014SOL    HW2 3387   1.725   2.388   2.142
 1015SOL     OW 3388   0.768   3.006   2.885
 1015SOL    HW1 3389   0.690   3.023   2.945
 1015SOL    HW2 3390   0.802   3.093   2.849
 1016SOL     OW 3391   0.850   2.660   3.685
 1016SOL    HW1 3392   0.846   2.736   3.750
 1016SOL    HW2 3393   0.872   2.696   3.594
 1017SOL     OW 3394   0.685   2.874   2.527
 1017SOL    HW1 3395   0.754   2.858   2.597
 1017SOL    HW2 3396   0.612   2.931   2.565
 1018SOL     OW 3397   0.686   3.023   3.665
 1018SOL    HW1 3398   0.746   3.102   3.679
 1018SOL    HW2 3399   0.600   3.054   3.624
 1019SOL     OW 3400   0.335   3.297   2.923
 1019SOL    HW1 3401   0.257   3.266   2.870
 1019SOL    HW2 3402   0.393   3.355   2.866
 1020SOL     OW 3403   1.460   3.367   3.201
 1020SOL    HW1 3404   1.484   3.461   3.227
 1020SOL    HW2 3405   1.444   3.313   3.283
 1021SOL     OW 3406   0.438   2.254   3.361
 1021SOL    HW1 3407   0.520   2.198   3.370
 1021SOL    HW2 3408   0.357   2.196   3.365
 1022SOL     OW 3409   1.603   2.309   2.599
 1022SOL    HW1 3410   1.529   2.355   2.549
 1022SOL    HW2 3411   1.654   2.377   2.652
 1023SOL     OW 3412   0.231   3.575   2.345
 1023SOL    HW1 3413   0.265   3.652   2.399
 1023SOL    HW2 3414   0.275   3.575   2.255
 1024SOL     OW 3415   1.127   3.203   3.552
 1024SOL    HW1 3416   1.174   3.203   3.640
 1024SOL    HW2 3417   1.079   3.116   3.541
 1025SOL     OW 3418   0.230   3.296   2.400
 1025SOL    HW1 3419   0.204   3.392   2.400
 1025SOL    HW2 3420   0.159   3.242   2.445
 1026SOL     OW 3421   0.240   2.953   2.748
 1026SOL    HW1 3422   0.254   2.869   2.800
 1026SOL    HW2 3423   0.185   3.017   2.803
 1027SOL     OW 3424   0.620   3.648   3.301
 1027SOL    HW1 3425   0.528   3.631   3.336
 1027SOL    HW2 3426   0.648   3.740   3.327
 1028SOL     OW 3427   0.606   2.826   1.985
 1028SOL    HW1 3428   0.613   2.910   1.931
 1028SOL    HW2 3429   0.652   2.839   2.073
 1029SOL     OW 3430   1.594   1.976   3.342
 1029SOL    HW1 3431   1.576   2.043   3.270
 1029SOL    HW2 3432   1.591   2.022   3.431
 1030SOL     OW 3433   0.122   2.505   2.425
 1030SOL    HW1 3434   0.077   2.417   2.442
 1030SOL    HW2 3435   0.121   2.559   2.509
 1031SOL     OW 3436   1.842   3.629   2.221
 1031SOL    HW1 3437   1.896   3.600   2.301
 1031SOL    HW2 3438   1.872   3.719   2.192
 1032SOL     OW 3439   0.027   3.458   1.979
 1032SOL    HW1 3440   0.008   3.362   2.000
 1032SOL    HW2 3441  -0.006   3.516   2.054
 1033SOL     OW 3442   1.689   2.784   2.474
 1033SOL    HW1 3443   1.784   2.755   2.482
 1033SOL    HW2 3444   1.681   2.849   2.399
 1034SOL     OW 3445   0.113   2.599   3.459
 1034SOL    HW1 3446   0.201   2.586   3.504
 1034SOL    HW2 3447   0.100   2.696   3.437
 1035SOL     OW 3448   0.613   3.227   2.588
 1035SOL    HW1 3449   0.564   3.140   2.597
 1035SOL    HW2 3450   0.590   3.270   2.501
 1036SOL     OW 3451   1.293   3.090   3.285
 1036SOL    HW1 3452   1.330   3.017   3.227
 1036SOL    HW2 3453   1.345   3.095   3.370
 1037SOL     OW 3454   0.809   1.866   2.364
 1037SOL    HW1 3455   0.849   1.957   2.355
 1037SOL    HW2 3456   0.709   1.874   2.370
 1038SOL     OW 3457   1.525   2.861   2.052
 1038SOL    HW1 3458   1.462   2.785   2.065
 1038SOL    HW2 3459   1.573   2.879   2.138
 1039SOL     OW 3460   1.187   3.654   3.478
 1039SOL    HW1 3461   1.211   3.714   3.402
 1039SOL    HW2 3462   1.194   3.559   3.448
 1040SOL     OW 3463   0.317   2.113   3.663
 1040SOL    HW1 3464   0.388   2.184   3.669
 1040SOL    HW2 3465   0.229   2.152   3.691
 1041SOL     OW 3466   1.466   3.279   2.815
 1041SOL    HW1 3467   1.407   3.285   2.895
 1041SOL    HW2 3468   1.451   3.191   2.769
 1042SOL     OW 3469   1.667   3.576   2.434
 1042SOL    HW1 3470   1.626   3.553   2.346
 1042SOL    HW2 3471   1.649   3.502   2.499
 1043SOL     OW 3472   0.598   2.591   2.132
 1043SOL    HW1 3473   0.622   2.660   2.064
 1043SOL    HW2 3474   0.520   2.624   2.186
 1044SOL     OW 3475   1.281   2.207   2.806
 1044SOL    HW1 3476   1.195   2.157   2.793
 1044SOL    HW2 3477   1.343   2.153   2.862
 1045SOL     OW 3478   1.576   3.524   2.169
 1045SOL    HW1 3479   1.665   3.570   2.172
 1045SOL    HW2 3480   1.555   3.500   2.074
 1046SOL     OW 3481   0.807   2.467   3.327
 1046SOL    HW1 3482   0.760   2.464   3.416
 1046SOL    HW2 3483   0.756   2.412   3.261
 1047SOL     OW 3484   1.394   2.331   3.536
 1047SOL    HW1 3485   1.374   2.374   3.624
 1047SOL    HW2 3486   1.472   2.269   3.545
 1048SOL     OW 3487   0.973   2.752   3.434
 1048SOL    HW1 3488   1.019   2.668   3.405
 1048SOL    HW2 3489   0.917   2.786   3.359
 1049SOL     OW 3490   0.991   2.272   3.104
 1049SOL    HW1 3491   0.914   2.306   3.158
 1049SOL    HW2 3492   0.957   2.221   3.025
 1050SOL     OW 3493   1.041   2.563   2.291
 1050SOL    HW1 3494   1.067   2.559   2.387
 1050SOL    HW2 3495   0.956   2.512   2.277
 1051SOL     OW 3496   0.076   2.673   2.651
 1051SOL    HW1 3497   0.175   2.661   2.660
 1051SOL    HW2 3498   0.052   2.768   2.672
 1052SOL     OW 3499   0.130   3.683   3.433
 1052SOL    HW1 3500   0.120   3.668   3.532
 1052SOL    HW2 3501   0.044   3.719   3.397
 1053SOL     OW 3502   0.865   2.210   2.057
 1053SOL    HW1 3503   0.924   2.273   2.008
 1053SOL    HW2 3504   0.884   2.116   2.028
 1054SOL     OW 3505   1.719   2.447   3.693
 1054SOL    HW1 3506   1.693   2.536   3.657
 1054SOL    HW2 3507   1.717   2.379   3.620
 1055SOL     OW 3508   1.362   3.006   2.407
 1055SOL    HW1 3509   1.445   2.977   2.359
 1055SOL    HW2 3510   1.313   3.073   2.351
 1056SOL     OW 3511   0.550   2.058   2.747
 1056SOL    HW1 3512   0.545   2.053   2.847
 1056SOL    HW2 3513   0.552   2.154   2.718
 1057SOL     OW 3514   1.008   3.318   2.339
 1057SOL    HW1 3515   0.962   3.390   2.287
 1057SOL    HW2 3516   1.004   3.338   2.437
 1058SOL     OW 3517   0.351   3.663   2.715
 1058SOL    HW1 3518   0.401   3.577   2.721
 1058SOL    HW2 3519   0.416   3.740   2.712
 1059SOL     OW 3520   1.795   2.928   2.735
 1059SOL    HW1 3521   1.733   2.913   2.659
 1059SOL    HW2 3522   1.743   2.939   2.820
 1060SOL     OW 3523   1.227   3.412   3.368
 1060SOL    HW1 3524   1.233   3.335   3.432
 1060SOL    HW2 3525   1.175   3.386   3.288
 1061SOL     OW 3526   0.321   2.805   2.104
 1061SOL    HW1 3527   0.403   2.844   2.062
 1061SOL    HW2 3528   0.294   2.723   2.055
 1062SOL     OW 3529   1.458   2.597   2.590
 1062SOL    HW1 3530   1.453   2.532   2.665
 1062SOL    HW2 3531   1.538   2.656   2.603
 1063SOL     OW 3532   0.461   3.128   3.589
 1063SOL    HW1 3533   0.411   3.129   3.503
 1063SOL    HW2 3534   0.398   3.110   3.665
 1064SOL     OW 3535   1.111   3.638   2.099
 1064SOL    HW1 3536   1.051   3.576   2.149
 1064SOL    HW2 3537   1.142   3.594   2.014
 1065SOL     OW 3538   0.202   2.147   3.360
 1065SOL    HW1 3539   0.122   2.207   3.347
 1065SOL    HW2 3540   0.192   2.098   3.446
 1066SOL     OW 3541   1.632   3.239   1.943
 1066SOL    HW1 3542   1.600   3.333   1.933
 1066SOL    HW2 3543   1.556   3.176   1.931
 1067SOL     OW 3544   0.464   3.605   2.185
 1067SOL    HW1 3545   0.497   3.644   2.271
 1067SOL    HW2 3546   0.540   3.598   2.120
 1068SOL     OW 3547   1.400   1.969   2.288
 1068SOL    HW1 3548   1.376   1.932   2.198
 1068SOL    HW2 3549   1.499   1.985   2.292
 1069SOL     OW 3550   0.249   3.647   3.103
 1069SOL    HW1 3551   0.306   3.582   3.153
 1069SOL    HW2 3552   0.233   3.614   3.010
 1070SOL     OW 3553   0.940   3.560   2.766
 1070SOL    HW1 3554   1.020   3.503   2.787
 1070SOL    HW2 3555   0.891   3.520   2.689
 1071SOL     OW 3556   0.382   2.562   2.342
 1071SOL    HW1 3557   0.427   2.472   2.339
 1071SOL    HW2 3558   0.288   2.551   2.375
 1072SOL     OW 3559   1.547   2.084   3.591
 1072SOL    HW1 3560   1.542   2.121   3.683
 1072SOL    HW2 3561   1.475   2.015   3.579
 1073SOL     OW 3562   0.614   1.984   1.979
 1073SOL    HW1 3563   0.712   1.962   1.986
 1073SOL    HW2 3564   0.583   1.967   1.886
 1074SOL     OW 3565   0.781   2.126   3.611
 1074SOL    HW1 3566   0.848   2.065   3.654
 1074SOL    HW2 3567   0.708   2.145   3.676
 1075SOL     OW 3568   0.888   3.376   3.057
 1075SOL    HW1 3569   0.865   3.351   2.963
 1075SOL    HW2 3570   0.949   3.307   3.096
 1076SOL     OW 3571   1.351   2.452   3.295
 1076SOL    HW1 3572   1.379   2.409   3.380
 1076SOL    HW2 3573   1.376   2.548   3.296
 1077SOL     OW 3574   0.803   3.264   2.786
 1077SOL    HW1 3575   0.893   3.278   2.744
 1077SOL    HW2 3576   0.732   3.266   2.715
 1078SOL     OW 3577   0.922   2.365   2.761
 1078SOL    HW1 3578   0.897   2.356   2.665
 1078SOL    HW2 3579   0.970   2.283   2.792
 1079SOL     OW 3580   0.539   1.926   2.374
 1079SOL    HW1 3581   0.458   1.927   2.432
 1079SOL    HW2 3582   0.542   2.009   2.319
 1080SOL     OW 3583   1.434   3.050   1.903
 1080SOL    HW1 3584   1.466   2.974   1.960
 1080SOL    HW2 3585   1.342   3.077   1.933
 1081SOL     OW 3586   0.297   1.897   2.033
 1081SOL    HW1 3587   0.346   1.981   2.012
 1081SOL    HW2 3588   0.359   1.832   2.078
 1082SOL     OW 3589   0.935   2.098   2.342
 1082SOL    HW1 3590   0.887   2.139   2.264
 1082SOL    HW2 3591   1.034   2.096   2.323
 1083SOL     OW 3592   1.076   2.545   3.326
 1083SOL    HW1 3593   0.996   2.484   3.329
 1083SOL    HW2 3594   1.157   2.492   3.302
 1084SOL     OW 3595   1.227   3.432   2.655
 1084SOL    HW1 3596   1.248   3.506   2.590
 1084SOL    HW2 3597   1.295   3.432   2.728
 1085SOL     OW 3598   0.459   3.014   2.603
 1085SOL    HW1 3599   0.388   2.987   2.668
 1085SOL    HW2 3600   0.433   2.986   2.510
 1086SOL     OW 3601   1.271   3.659   2.453
 1086SOL    HW1 3602   1.315   3.723   2.389
 1086SOL    HW2 3603   1.221   3.711   2.523
 1087SOL     OW 3604   1.032   2.411   1.878
 1087SOL    HW1 3605   0.991   2.493   1.839
 1087SOL    HW2 3606   1.096   2.437   1.951
 1088SOL     OW 3607   0.078   2.418   3.248
 1088SOL    HW1 3608   0.170   2.417   3.207
 1088SOL    HW2 3609   0.072   2.492   3.315
 1089SOL     OW 3610   0.561   2.084   3.009
 1089SOL    HW1 3611   0.599   2.000   3.046
 1089SOL    HW2 3612   0.473   2.103   3.053
 1090SOL     OW 3613   0.866   2.316   2.504
 1090SOL    HW1 3614   0.834   2.388   2.442
 1090SOL    HW2 3615   0.890   2.235   2.451
 1091SOL     OW 3616   1.017   1.901   2.615
 1091SOL    HW1 3617   0.945   1.906   2.546
 1091SOL    HW2 3618   0.993   1.832   2.684
 1092SOL     OW 3619   1.429   3.035   2.729
 1092SOL    HW1 3620   1.374   2.951   2.722
 1092SOL    HW2 3621   1.455   3.064   2.637
 1093SOL     OW 3622   1.466   2.452   2.854
 1093SOL    HW1 3623   1.436   2.357   2.861
 1093SOL    HW2 3624   1.539   2.468   2.920
 1094SOL     OW 3625   1.857   2.695   2.239
 1094SOL    HW1 3626   1.899   2.631   2.303
 1094SOL    HW2 3627   1.819   2.644   2.161
 1095SOL     OW 3628   0.488   3.247   2.036
 1095SOL    HW1 3629   0.401   3.232   2.083
 1095SOL    HW2 3630   0.471   3.273   1.941
 1096SOL     OW 3631   1.664   3.142   2.519
 1096SOL    HW1 3632   1.763   3.150   2.533
 1096SOL    HW2 3633   1.619   3.226   2.550
 1097SOL     OW 3634   1.390   2.437   1.940
 1097SOL    HW1 3635   1.336   2.416   2.021
 1097SOL    HW2 3636   1.481   2.396   1.949
 1098SOL     OW 3637   0.527   2.118   2.190
 1098SOL    HW1 3638   0.554   2.059   2.115
 1098SOL    HW2 3639   0.527   2.213   2.159
 1099SOL     OW 3640   1.754   3.085   3.450
 1099SOL    HW1 3641   1.845   3.046   3.437
 1099SOL    HW2 3642   1.762   3.181   3.474
 1100SOL     OW 3643   1.064   3.209   3.202
 1100SOL    HW1 3644   0.984   3.186   3.257
 1100SOL    HW2 3645   1.147   3.183   3.251
 1101SOL     OW 3646   1.592   3.491   3.487
 1101SOL    HW1 3647   1.619   3.525   3.397
 1101SOL    HW2 3648   1.671   3.453   3.533
 1102SOL     OW 3649   1.111   3.057   2.962
 1102SOL    HW1 3650   1.071   3.101   3.043
 1102SOL    HW2 3651   1.070   3.094   2.879
 1103SOL     OW 3652   1.638   2.961   2.941
 1103SOL    HW1 3653   1.643   3.042   3.000
 1103SOL    HW2 3654   1.552   2.963   2.890
 1104SOL     OW 3655   0.915   1.951   3.264
 1104SOL    HW1 3656   0.940   1.931   3.169
 1104SOL    HW2 3657   0.987   2.007   3.306
 1105SOL     OW 3658   0.980   2.978   3.581
 1105SOL    HW1 3659   0.881   2.984   3.591
 1105SOL    HW2 3660   1.003   2.898   3.525
 1106SOL     OW 3661   0.705   2.912   2.230
 1106SOL    HW1 3662   0.691   2.919   2.329
 1106SOL    HW2 3663   0.789   2.861   2.212
 1107SOL     OW 3664   0.410   2.675   3.113
 1107SOL    HW1 3665   0.496   2.687   3.163
 1107SOL    HW2 3666   0.368   2.588   3.140
 1108SOL     OW 3667   1.274   2.248   3.124
 1108SOL    HW1 3668   1.295   2.322   3.188
 1108SOL    HW2 3669   1.185   2.265   3.081
 1109SOL     OW 3670   0.064   3.426   3.193
 1109SOL    HW1 3671   0.018   3.508   3.159
 1109SOL    HW2 3672   0.162   3.445   3.202
 1110SOL     OW 3673   0.367   2.962   2.363
 1110SOL    HW1 3674   0.360   3.045   2.307
 1110SOL    HW2 3675   0.371   2.882   2.303
 1111SOL     OW 3676   0.566   2.399   2.727
 1111SOL    HW1 3677   0.578   2.465   2.653
 1111SOL    HW2 3678   0.612   2.433   2.810
 1112SOL     OW 3679   1.252   3.210   2.250
 1112SOL    HW1 3680   1.302   3.287   2.290
 1112SOL    HW2 3681   1.157   3.212   2.282
 1113SOL     OW 3682   1.272   3.307   3.004
 1113SOL    HW1 3683   1.319   3.320   3.091
 1113SOL    HW2 3684   1.206   3.233   3.013
 1114SOL     OW 3685   1.582   2.501   2.334
 1114SOL    HW1 3686   1.551   2.562   2.407
 1114SOL    HW2 3687   1.632   2.553   2.265
 1115SOL     OW 3688   0.354   3.372   3.191
 1115SOL    HW1 3689   0.333   3.328   3.104
 1115SOL    HW2 3690   0.451   3.398   3.194
 1116SOL     OW 3691   0.402   2.613   3.460
 1116SOL    HW1 3692   0.470   2.668   3.413
 1116SOL    HW2 3693   0.442   2.525   3.487
 1117SOL     OW 3694   1.587   2.641   3.532
 1117SOL    HW1 3695   1.495   2.679   3.527
 1117SOL    HW2 3696   1.647   2.688   3.467
 1118SOL     OW 3697   1.013   1.967   3.632
 1118SOL    HW1 3698   1.019   2.052   3.580
 1118SOL    HW2 3699   1.045   1.891   3.575
 1119SOL     OW 3700   0.504   1.912   3.602
 1119SOL    HW1 3701   0.462   1.855   3.532
 1119SOL    HW2 3702   0.438   1.981   3.634
 1120SOL     OW 3703   0.573   2.732   2.891
 1120SOL    HW1 3704   0.617   2.821   2.882
 1120SOL    HW2 3705   0.510   2.732   2.968
 1121SOL     OW 3706   1.360   2.724   2.907
 1121SOL    HW1 3707   1.285   2.724   2.841
 1121SOL    HW2 3708   1.397   2.632   2.916
 1122SOL     OW 3709   1.209   2.387   2.137
 1122SOL    HW1 3710   1.222   2.303   2.191
 1122SOL    HW2 3711   1.180   2.461   2.197
 1123SOL     OW 3712   0.307   2.075   3.093
 1123SOL    HW1 3713   0.284   2.112   3.183
 1123SOL    HW2 3714   0.277   1.980   3.087
 1124SOL     OW 3715   0.037   3.172   3.144
 1124SOL    HW1 3716   0.090   3.123   3.212
 1124SOL    HW2 3717   0.059   3.270   3.149
 1125SOL     OW 3718   0.732   2.496   2.926
 1125SOL    HW1 3719   0.791   2.470   2.850
 1125SOL    HW2 3720   0.704   2.592   2.915
 1126SOL     OW 3721   1.728   2.797   3.716
 1126SOL    HW1 3722   1.682   2.790   3.627
 1126SOL    HW2 3723   1.666   2.841   3.782
 1127SOL     OW 3724   0.307   1.925   2.480
 1127SOL    HW1 3725   0.296   2.019   2.513
 1127SOL    HW2 3726   0.302   1.862   2.557
 1128SOL     OW 3727   1.622   2.229   2.236
 1128SOL    HW1 3728   1.624   2.153   2.300
 1128SOL    HW2 3729   1.574   2.306   2.276
 1129SOL     OW 3730   1.023   2.628   2.828
 1129SOL    HW1 3731   1.038   2.649   2.924
 1129SOL    HW2 3732   0.993   2.533   2.819
 1130SOL     OW 3733   0.980   3.435   3.562
 1130SOL    HW1 3734   0.960   3.479   3.474
 1130SOL    HW2 3735   1.019   3.344   3.546
 1131SOL     OW 3736   1.859   3.380   3.467
 1131SOL    HW1 3737   1.873   3.407   3.372
 1131SOL    HW2 3738   1.942   3.402   3.520
 1132SOL     OW 3739   0.350   2.760   3.666
 1132SOL    HW1 3740   0.426   2.804   3.714
 1132SOL    HW2 3741   0.385   2.713   3.584
 1133SOL     OW 3742   1.540   2.136   1.987
 1133SOL    HW1 3743   1.479   2.061   2.010
 1133SOL    HW2 3744   1.562   2.188   2.070
 1134SOL     OW 3745   1.303   2.700   1.904
 1134SOL    HW1 3746   1.337   2.607   1.919
 1134SOL    HW2 3747   1.321   2.727   1.809
 1135SOL     OW 3748   1.068   3.195   2.711
 1135SOL    HW1 3749   1.075   3.111   2.656
 1135SOL    HW2 3750   1.130   3.264   2.675
 1136SOL     OW 3751   0.319   2.672   2.811
 1136SOL    HW1 3752   0.412   2.708   2.816
 1136SOL    HW2 3753   0.313   2.587   2.863
 1137SOL     OW 3754   0.339   2.371   2.868
 1137SOL    HW1 3755   0.287   2.288   2.851
 1137SOL    HW2 3756   0.416   2.376   2.804
 1138SOL     OW 3757   1.138   2.242   3.540
 1138SOL    HW1 3758   1.093   2.305   3.604
 1138SOL    HW2 3759   1.231   2.273   3.523
 1139SOL     OW 3760   1.160   2.069   3.339
 1139SOL    HW1 3761   1.160   2.133   3.416
 1139SOL    HW2 3762   1.188   2.117   3.256
 1140SOL     OW 3763   0.008   3.188   2.062
 1140SOL    HW1 3764  -0.085   3.209   2.031
 1140SOL    HW2 3765   0.018   3.089   2.075
 1141SOL     OW 3766   0.088   3.663   2.789
 1141SOL    HW1 3767   0.046   3.577   2.762
 1141SOL    HW2 3768   0.182   3.666   2.755
 1142SOL     OW 3769   0.504   3.430   2.772
 1142SOL    HW1 3770   0.570   3.504   2.781
 1142SOL    HW2 3771   0.548   3.351   2.730
 1143SOL     OW 3772   1.002   2.658   3.100
 1143SOL    HW1 3773   1.043   2.626   3.186
 1143SOL    HW2 3774   0.906   2.631   3.097
 1144SOL     OW 3775   0.040   2.406   2.976
 1144SOL    HW1 3776   0.125   2.373   2.935
 1144SOL    HW2 3777   0.053   2.421   3.074
 1145SOL     OW 3778   0.189   2.382   3.584
 1145SOL    HW1 3779   0.248   2.342   3.514
 1145SOL    HW2 3780   0.131   2.453   3.543
 1146SOL     OW 3781   1.369   2.812   3.522
 1146SOL    HW1 3782   1.408   2.901   3.542
 1146SOL    HW2 3783   1.379   2.792   3.425
 1147SOL     OW 3784   0.815   2.434   2.187
 1147SOL    HW1 3785   0.822   2.345   2.141
 1147SOL    HW2 3786   0.721   2.468   2.179
 1148SOL     OW 3787   1.657   2.466   3.068
 1148SOL    HW1 3788   1.619   2.397   3.130
 1148SOL    HW2 3789   1.739   2.430   3.024
 1149SOL     OW 3790   0.252   3.426   3.606
 1149SOL    HW1 3791   0.222   3.483   3.682
 1149SOL    HW2 3792   0.245   3.329   3.632
 1150SOL     OW 3793   0.671   2.326   3.131
 1150SOL    HW1 3794   0.637   2.237   3.101
 1150SOL    HW2 3795   0.697   2.380   3.051
 1151SOL     OW 3796   0.930   3.540   3.327
 1151SOL    HW1 3797   0.906   3.522   3.232
 1151SOL    HW2 3798   0.960   3.634   3.337
 1152SOL     OW 3799   0.473   2.362   2.053
 1152SOL    HW1 3800   0.534   2.442   2.057
 1152SOL    HW2 3801   0.378   2.393   2.060
 1153SOL     OW 3802   0.159   2.999   3.328
 1153SOL    HW1 3803   0.181   2.938   3.404
 1153SOL    HW2 3804   0.169   2.950   3.242
 1154SOL     OW 3805   1.347   2.921   3.096
 1154SOL    HW1 3806   1.371   2.858   3.022
 1154SOL    HW2 3807   1.257   2.961   3.078
 1155SOL     OW 3808   1.302   2.717   2.171
 1155SOL    HW1 3809   1.216   2.686   2.213
 1155SOL    HW2 3810   1.298   2.703   2.072
 1156SOL     OW 3811   1.759   3.609   3.016
 1156SOL    HW1 3812   1.820   3.639   2.943
 1156SOL    HW2 3813   1.721   3.520   2.994
 1157SOL     OW 3814   1.252   3.593   2.990
 1157SOL    HW1 3815   1.336   3.598   2.936
 1157SOL    HW2 3816   1.229   3.497   3.008
 1158SOL     OW 3817   0.083   3.120   2.884
 1158SOL    HW1 3818   0.078   3.119   2.984
 1158SOL    HW2 3819   0.000   3.079   2.846
 1159SOL     OW 3820   0.688   3.524   3.578
 1159SOL    HW1 3821   0.632   3.605   3.587
 1159SOL    HW2 3822   0.740   3.528   3.492
 1160SOL     OW 3823   1.726   1.997   2.385
 1160SOL    HW1 3824   1.799   1.980   2.318
 1160SOL    HW2 3825   1.695   1.910   2.423
 1161SOL     OW 3826   1.388   3.435   2.339
 1161SOL    HW1 3827   1.455   3.447   2.265
 1161SOL    HW2 3828   1.348   3.524   2.362
 1162SOL     OW 3829   0.130   3.656   3.713
 1162SOL    HW1 3830   0.089   3.582   3.766
 1162SOL    HW2 3831   0.194   3.707   3.771
 1163SOL     OW 3832   1.280   2.789   2.534
 1163SOL    HW1 3833   1.340   2.708   2.536
 1163SOL    HW2 3834   1.320   2.858   2.474
 1164SOL     OW 3835   0.830   3.135   3.284
 1164SOL    HW1 3836   0.825   3.168   3.379
 1164SOL    HW2 3837   0.744   3.154   3.238
 1165SOL     OW 3838   0.672   3.478   2.016
 1165SOL    HW1 3839   0.681   3.488   1.917
 1165SOL    HW2 3840   0.632   3.389   2.037
 1166SOL     OW 3841   1.650   3.582   3.256
 1166SOL    HW1 3842   1.703   3.592   3.172
 1166SOL    HW2 3843   1.623   3.672   3.290
 1167SOL     OW 3844   1.841   2.037   2.825
 1167SOL    HW1 3845   1.880   1.952   2.789
 1167SOL    HW2 3846   1.743   2.039   2.806
 1168SOL     OW 3847   0.263   2.188   2.582
 1168SOL    HW1 3848   0.184   2.239   2.548
 1168SOL    HW2 3849   0.254   2.173   2.680
 1169SOL     OW 3850   1.194   3.474   1.893
 1169SOL    HW1 3851   1.200   3.381   1.930
 1169SOL    HW2 3852   1.135   3.474   1.813
 1170SOL     OW 3853   0.822   2.864   3.234
 1170SOL    HW1 3854   0.862   2.863   3.142
 1170SOL    HW2 3855   0.832   2.956   3.274
 1171SOL     OW 3856   0.916   2.772   2.153
 1171SOL    HW1 3857   0.979   2.810   2.085
 1171SOL    HW2 3858   0.956   2.689   2.192
 1172SOL     OW 3859   1.504   3.469   1.906
 1172SOL    HW1 3860   1.412   3.506   1.913
 1172SOL    HW2 3861   1.542   3.489   1.816
 1173SOL     OW 3862   0.372   3.150   3.352
 1173SOL    HW1 3863   0.359   3.243   3.318
 1173SOL    HW2 3864   0.288   3.098   3.339
 1174SOL     OW 3865   1.614   3.154   3.151
 1174SOL    HW1 3866   1.674   3.157   3.231
 1174SOL    HW2 3867   1.539   3.218   3.164
 1175SOL     OW 3868   1.039   2.960   2.558
 1175SOL    HW1 3869   0.969   2.913   2.612
 1175SOL    HW2 3870   1.098   2.892   2.515
 1176SOL     OW 3871   1.014   2.098   2.833
 1176SOL    HW1 3872   1.006   2.062   2.740
 1176SOL    HW2 3873   1.012   2.022   2.898
 1177SOL     OW 3874   0.590   3.349   2.353
 1177SOL    HW1 3875   0.632   3.291   2.283
 1177SOL    HW2 3876   0.546   3.428   2.309
 1178SOL     OW 3877   1.709   2.247   3.243
 1178SOL    HW1 3878   1.782   2.316   3.247
 1178SOL    HW2 3879   1.737   2.172   3.184
 1179SOL     OW 3880   0.255   3.210   2.152
 1179SOL    HW1 3881   0.159   3.211   2.125
 1179SOL    HW2 3882   0.267   3.263   2.236
 1180SOL     OW 3883   0.105   2.875   3.588
 1180SOL    HW1 3884   0.028   2.842   3.642
 1180SOL    HW2 3885   0.190   2.845   3.630
 1181SOL     OW 3886   0.672   2.065   3.351
 1181SOL    HW1 3887   0.762   2.049   3.311
 1181SOL    HW2 3888   0.680   2.070   3.450
 1182SOL     OW 3889   0.075   2.207   1.895
 1182SOL    HW1 3890  -0.017   2.179   1.866
 1182SOL    HW2 3891   0.106   2.284   1.839
 1183SOL     OW 3892   1.440   2.718   3.260
 1183SOL    HW1 3893   1.383   2.770   3.197
 1183SOL    HW2 3894   1.536   2.730   3.236
 1184SOL     OW 3895   0.072   2.028   2.180
 1184SOL    HW1 3896   0.055   2.111   2.126
 1184SOL    HW2 3897   0.162   1.991   2.158
 1185SOL     OW 3898   1.183   3.197   1.981
 1185SOL    HW1 3899   1.084   3.186   1.983
 1185SOL    HW2 3900   1.217   3.212   2.074
 1186SOL     OW 3901   0.613   2.704   3.293
 1186SOL    HW1 3902   0.669   2.785   3.276
 1186SOL    HW2 3903   0.672   2.624   3.296
 1187SOL     OW 3904   1.493   3.629   2.821
 1187SOL    HW1 3905   1.526   3.693   2.752
 1187SOL    HW2 3906   1.559   3.623   2.896
 1188SOL     OW 3907   0.716   2.427   3.570
 1188SOL    HW1 3908   0.735   2.492   3.644
 1188SOL    HW2 3909   0.776   2.347   3.579
 1189SOL     OW 3910   1.450   3.082   3.495
 1189SOL    HW1 3911   1.441   3.072   3.594
 1189SOL    HW2 3912   1.546   3.075   3.469
 1190SOL     OW 3913   0.390   3.603   3.422
 1190SOL    HW1 3914   0.299   3.644   3.420
 1190SOL    HW2 3915   0.383   3.509   3.454
 1191SOL     OW 3916   1.674   2.745   3.116
 1191SOL    HW1 3917   1.647   2.656   3.079
 1191SOL    HW2 3918   1.675   2.813   3.043
 1192SOL     OW 3919   1.225   2.187   2.311
 1192SOL    HW1 3920   1.290   2.113   2.300
 1192SOL    HW2 3921   1.245   2.237   2.395
 1193SOL     OW 3922   0.594   2.607   2.514
 1193SOL    HW1 3923   0.644   2.692   2.495
 1193SOL    HW2 3924   0.506   2.609   2.466
 1194SOL     OW 3925   1.777   2.204   3.504
 1194SOL    HW1 3926   1.760   2.235   3.410
 1194SOL    HW2 3927   1.693   2.167   3.542
 1195SOL     OW 3928   1.730   2.796   3.379
 1195SOL    HW1 3929   1.768   2.887   3.394
 1195SOL    HW2 3930   1.722   2.779   3.280
 1196SOL     OW 3931   0.859   3.236   1.878
 1196SOL    HW1 3932   0.813   3.251   1.966
 1196SOL    HW2 3933   0.903   3.321   1.848
 1197SOL     OW 3934   0.661   3.652   2.815
 1197SOL    HW1 3935   0.615   3.740   2.802
 1197SOL    HW2 3936   0.760   3.664   2.808
 1198SOL     OW 3937   0.859   2.818   2.723
 1198SOL    HW1 3938   0.913   2.749   2.771
 1198SOL    HW2 3939   0.827   2.887   2.789
 1199SOL     OW 3940   1.083   2.846   1.949
 1199SOL    HW1 3941   1.060   2.899   1.867
 1199SOL    HW2 3942   1.164   2.790   1.930
 1200SOL     OW 3943   1.861   3.431   2.713
 1200SOL    HW1 3944   1.790   3.419   2.643
 1200SOL    HW2 3945   1.862   3.352   2.773
 1201SOL     OW 3946   0.221   3.176   3.706
 1201SOL    HW1 3947   0.156   3.103   3.685
 1201SOL    HW2 3948   0.225   3.190   3.804
 1202SOL     OW 3949   0.079   3.102   2.515
 1202SOL    HW1 3950   0.078   3.055   2.603
 1202SOL    HW2 3951   0.161   3.074   2.464
 1203SOL     OW 3952   0.672   3.253   3.486
 1203SOL    HW1 3953   0.594   3.203   3.524
 1203SOL    HW2 3954   0.669   3.348   3.517
 1204SOL     OW 3955   1.824   2.054   3.089
 1204SOL    HW1 3956   1.820   1.964   3.133
 1204SOL    HW2 3957   1.827   2.043   2.990
 1205SOL     OW 3958   0.428   2.286   2.382
 1205SOL    HW1 3959   0.458   2.214   2.320
 1205SOL    HW2 3960   0.389   2.246   2.465
 1206SOL     OW 3961   0.317   2.409   3.142
 1206SOL    HW1 3962   0.355   2.350   3.214
 1206SOL    HW2 3963   0.357   2.383   3.054
 1207SOL     OW 3964   0.812   3.448   2.549
 1207SOL    HW1 3965   0.844   3.458   2.455
 1207SOL    HW2 3966   0.733   3.386   2.551
 1208SOL     OW 3967   1.424   2.076   2.974
 1208SOL    HW1 3968   1.476   2.011   3.029
 1208SOL    HW2 3969   1.375   2.139   3.035
 1209SOL     OW 3970   1.001   1.896   3.016
 1209SOL    HW1 3971   0.938   1.824   2.985
 1209SOL    HW2 3972   1.094   1.860   3.016
 1210SOL     OW 3973   0.770   3.192   2.163
 1210SOL    HW1 3974   0.724   3.105   2.180
 1210SOL    HW2 3975   0.861   3.189   2.204
 1211SOL     OW 3976   0.618   3.429   3.146
 1211SOL    HW1 3977   0.613   3.511   3.203
 1211SOL    HW2 3978   0.707   3.426   3.101
 1212SOL     OW 3979   1.352   1.914   2.030
 1212SOL    HW1 3980   1.387   1.873   1.946
 1212SOL    HW2 3981   1.262   1.876   2.050
 1213SOL     OW 3982   1.300   2.315   2.553
 1213SOL    HW1 3983   1.241   2.395   2.557
 1213SOL    HW2 3984   1.315   2.280   2.646
 1214SOL     OW 3985   1.593   2.083   2.744
 1214SOL    HW1 3986   1.509   2.082   2.798
 1214SOL    HW2 3987   1.595   2.166   2.688
 1215SOL     OW 3988   0.039   2.939   2.162
 1215SOL    HW1 3989   0.138   2.928   2.153
 1215SOL    HW2 3990  -0.001   2.853   2.194
 1216SOL     OW 3991   0.875   3.508   2.199
 1216SOL    HW1 3992   0.798   3.473   2.145
 1216SOL    HW2 3993   0.843   3.579   2.261
 1217SOL     OW 3994   0.230   2.490   3.837
 1217SOL    HW1 3995   0.137   2.488   3.874
 1217SOL    HW2 3996   0.231   2.451   3.745
 1218SOL     OW 3997   0.225   2.137   4.720
 1218SOL    HW1 3998   0.260   2.120   4.812
 1218SOL    HW2 3999   0.137   2.092   4.708
 1219SOL     OW 4000   0.019   2.230   4.371
 1219SOL    HW1 4001  -0.063   2.273   4.410
 1219SOL    HW2 4002  -0.009   2.157   4.308
 1220SOL     OW 4003   0.569   3.137   4.889
 1220SOL    HW1 4004   0.476   3.130   4.852
 1220SOL    HW2 4005   0.580   3.226   4.933
 1221SOL     OW 4006   1.555   3.373   4.427
 1221SOL    HW1 4007   1.498   3.357   4.508
 1221SOL    HW2 4008   1.496   3.383   4.347
 1222SOL     OW 4009   1.135   2.565   4.441
 1222SOL    HW1 4010   1.192   2.643   4.416
 1222SOL    HW2 4011   1.075   2.591   4.517
 1223SOL     OW 4012   1.755   2.469   3.955
 1223SOL    HW1 4013   1.743   2.456   3.856
 1223SOL    HW2 4014   1.725   2.388   4.004
 1224SOL     OW 4015   0.768   3.006   4.747
 1224SOL    HW1 4016   0.690   3.023   4.807
 1224SOL    HW2 4017   0.802   3.093   4.711
 1225SOL     OW 4018   0.850   2.660   5.547
 1225SOL    HW1 4019   0.846   2.736   5.612
 1225SOL    HW2 4020   0.872   2.696   5.456
 1226SOL     OW 4021   0.685   2.874   4.389
 1226SOL    HW1 4022   0.754   2.858   4.459
 1226SOL    HW2 4023   0.612   2.931   4.427
 1227SOL     OW 4024   0.686   3.023   5.527
 1227SOL    HW1 4025   0.746   3.102   5.541
 1227SOL    HW2 4026   0.600   3.054   5.486
 1228SOL     OW 4027   0.335   3.297   4.785
 1228SOL    HW1 4028   0.257   3.266   4.732
 1228SOL    HW2 4029   0.393   3.355   4.728
 1229SOL     OW 4030   1.460   3.367   5.063
 1229SOL    HW1 4031   1.484   3.461   5.089
 1229SOL    HW2 4032   1.444   3.313   5.145
 1230SOL     OW 4033   0.438   2.254   5.223
 1230SOL    HW1 4034   0.520   2.198   5.232
 1230SOL    HW2 4035   0.357   2.196   5.227
 1231SOL     OW 4036   1.603   2.309   4.461
 1231SOL    HW1 4037   1.529   2.355   4.411
 1231SOL    HW2 4038   1.654   2.377   4.514
 1232SOL     OW 4039   0.231   3.575   4.207
 1232SOL    HW1 4040   0.265   3.652   4.261
 1232SOL    HW2 4041   0.275   3.575   4.117
 1233SOL     OW 4042   1.127   3.203   5.414
 1233SOL    HW1 4043   1.174   3.203   5.502
 1233SOL    HW2 4044   1.079   3.116   5.403
 1234SOL     OW 4045   0.230   3.296   4.262
 1234SOL    HW1 4046   0.204   3.392   4.262
 1234SOL    HW2 4047   0.159   3.242   4.307
 1235SOL     OW 4048   0.240   2.953   4.610
 1235SOL    HW1 4049   0.254   2.869   4.662
 1235SOL    HW2 4050   0.185   3.017   4.665
 1236SOL     OW 4051   0.620   3.648   5.163
 1236SOL    HW1 4052   0.528   3.631   5.198
 1236SOL    HW2 4053   0.648   3.740   5.189
 1237SOL     OW 4054   0.606   2.826   3.847
 1237SOL    HW1 4055   0.613   2.910   3.793
 1237SOL    HW2 4056   0.652   2.839   3.935
 1238SOL     OW 4057   1.594   1.976   5.204
 1238SOL    HW1 4058   1.576   2.043   5.132
 1238SOL    HW2 4059   1.591   2.022   5.293
 1239SOL     OW 4060   0.122   2.505   4.287
 1239SOL    HW1 4061   0.077   2.417   4.304
 1239SOL    HW2 4062   0.121   2.559   4.371
 1240SOL     OW 4063   1.842   3.629   4.083
 1240SOL    HW1 4064   1.896   3.600   4.163
 1240SOL    HW2 4065   1.872   3.719   4.054
 1241SOL     OW 4066   0.027   3.458   3.841
 1241SOL    HW1 4067   0.008   3.362   3.862
 1241SOL    HW2 4068  -0.006   3.516   3.916
 1242SOL     OW 4069   1.689   2.784   4.336
 1242SOL    HW1 4070   1.784   2.755   4.344
 1242SOL    HW2 4071   1.681   2.849   4.261
 1243SOL     OW 4072   1.641   2.970   4.156
 1243SOL    HW1 4073   1.727   2.972   4.104
 1243SOL    HW2 4074   1.655   3.017   4.244
 1244SOL     OW 4075   0.113   2.599   5.321
 1244SOL    HW1 4076   0.201   2.586   5.366
 1244SOL    HW2 4077   0.100   2.696   5.299
 1245SOL     OW 4078   0.613   3.227   4.450
 1245SOL    HW1 4079   0.564   3.140   4.459
 1245SOL    HW2 4080   0.590   3.270   4.363
 1246SOL     OW 4081   1.293   3.090   5.147
 1246SOL    HW1 4082   1.330   3.017   5.089
 1246SOL    HW2 4083   1.345   3.095   5.232
 1247SOL     OW 4084   0.809   1.866   4.226
 1247SOL    HW1 4085   0.849   1.957   4.217
 1247SOL    HW2 4086   0.709   1.874   4.232
 1248SOL     OW 4087   0.197   2.838   4.988
 1248SOL    HW1 4088   0.286   2.793   4.974
 1248SOL    HW2 4089   0.124   2.773   4.969
 1249SOL     OW 4090   1.525   2.861   3.914
 1249SOL    HW1 4091   1.462   2.785   3.927
 1249SOL    HW2 4092   1.573   2.879   4.000
 1250SOL     OW 4093   1.187   3.654   5.340
 1250SOL    HW1 4094   1.211   3.714   5.264
 1250SOL    HW2 4095   1.194   3.559   5.310
 1251SOL     OW 4096   0.317   2.113   5.525
 1251SOL    HW1 4097   0.388   2.184   5.531
 1251SOL    HW2 4098   0.229   2.152   5.553
 1252SOL     OW 4099   1.466   3.279   4.677
 1252SOL    HW1 4100   1.407   3.285   4.757
 1252SOL    HW2 4101   1.451   3.191   4.631
 1253SOL     OW 4102   1.667   3.576   4.296
 1253SOL    HW1 4103   1.626   3.553   4.208
 1253SOL    HW2 4104   1.649   3.502   4.361
 1254SOL     OW 4105   0.598   2.591   3.994
 1254SOL    HW1 4106   0.622   2.660   3.926
 1254SOL    HW2 4107   0.520   2.624   4.048
 1255SOL     OW 4108   1.281   2.207   4.668
 1255SOL    HW1 4109   1.195   2.157   4.655
 1255SOL    HW2 4110   1.343   2.153   4.724
 1256SOL     OW 4111   1.576   3.524   4.031
 1256SOL    HW1 4112   1.665   3.570   4.034
 1256SOL    HW2 4113   1.555   3.500   3.936
 1257SOL     OW 4114   0.807   2.467   5.189
 1257SOL    HW1 4115   0.760   2.464   5.278
 1257SOL    HW2 4116   0.756   2.412   5.123
 1258SOL     OW 4117   1.394   2.331   5.398
 1258SOL    HW1 4118   1.374   2.374   5.486
 1258SOL    HW2 4119   1.472   2.269   5.407
 1259SOL     OW 4120   0.973   2.752   5.296
 1259SOL    HW1 4121   1.019   2.668   5.267
 1259SOL    HW2 4122   0.917   2.786   5.221
 1260SOL     OW 4123   0.991   2.272   4.966
 1260SOL    HW1 4124   0.914   2.306   5.020
 1260SOL    HW2 4125   0.957   2.221   4.887
 1261SOL     OW 4126   1.041   2.563   4.153
 1261SOL    HW1 4127   1.067   2.559   4.249
 1261SOL    HW2 4128   0.956   2.512   4.139
 1262SOL     OW 4129   0.076   2.673   4.513
 1262SOL    HW1 4130   0.175   2.661   4.522
 1262SOL    HW2 4131   0.052   2.768   4.534
 1263SOL     OW 4132   0.130   3.683   5.295
 1263SOL    HW1 4133   0.120   3.668   5.394
 1263SOL    HW2 4134   0.044   3.719   5.259
 1264SOL     OW 4135   0.865   2.210   3.919
 1264SOL    HW1 4136   0.924   2.273   3.870
 1264SOL    HW2 4137   0.884   2.116   3.890
 1265SOL     OW 4138   1.719   2.447   5.555
 1265SOL    HW1 4139   1.693   2.536   5.519
 1265SOL    HW2 4140   1.717   2.379   5.482
 1266SOL     OW 4141   1.362   3.006   4.269
 1266SOL    HW1 4142   1.445   2.977   4.221
 1266SOL    HW2 4143   1.313   3.073   4.213
 1267SOL     OW 4144   0.550   2.058   4.609
 1267SOL    HW1 4145   0.545   2.053   4.709
 1267SOL    HW2 4146   0.552   2.154   4.580
 1268SOL     OW 4147   1.008   3.318   4.201
 1268SOL    HW1 4148   0.962   3.390   4.149
 1268SOL    HW2 4149   1.004   3.338   4.299
 1269SOL     OW 4150   0.351   3.663   4.577
 1269SOL    HW1 4151   0.401   3.577   4.583
 1269SOL    HW2 4152   0.416   3.740   4.574
 1270SOL     OW 4153   1.795   2.928   4.597
 1270SOL    HW1 4154   1.733   2.913   4.521
 1270SOL    HW2 4155   1.743   2.939   4.682
 1271SOL     OW 4156   1.227   3.412   5.230
 1271SOL    HW1 4157   1.233   3.335   5.294
 1271SOL    HW2 4158   1.175   3.386   5.150
 1272SOL     OW 4159   0.321   2.805   3.966
 1272SOL    HW1 4160   0.403   2.844   3.924
 1272SOL    HW2 4161   0.294   2.723   3.917
 1273SOL     OW 4162   1.458   2.597   4.452
 1273SOL    HW1 4163   1.453   2.532   4.527
 1273SOL    HW2 4164   1.538   2.656   4.465
 1274SOL     OW 4165   0.461   3.128   5.451
 1274SOL    HW1 4166   0.411   3.129   5.365
 1274SOL    HW2 4167   0.398   3.110   5.527
 1275SOL     OW 4168   1.111   3.638   3.961
 1275SOL    HW1 4169   1.051   3.576   4.011
 1275SOL    HW2 4170   1.142   3.594   3.876
 1276SOL     OW 4171   0.202   2.147   5.222
 1276SOL    HW1 4172   0.122   2.207   5.209
 1276SOL    HW2 4173   0.192   2.098   5.308
 1277SOL     OW 4174   1.632   3.239   3.805
 1277SOL    HW1 4175   1.600   3.333   3.795
 1277SOL    HW2 4176   1.556   3.176   3.793
 1278SOL     OW 4177   0.464   3.605   4.047
 1278SOL    HW1 4178   0.497   3.644   4.133
 1278SOL    HW2 4179   0.540   3.598   3.982
 1279SOL     OW 4180   1.400   1.969   4.150
 1279SOL    HW1 4181   1.376   1.932   4.060
 1279SOL    HW2 4182   1.499   1.985   4.154
 1280SOL     OW 4183   0.249   3.647   4.965
 1280SOL    HW1 4184   0.306   3.582   5.015
 1280SOL    HW2 4185   0.233   3.614   4.872
 1281SOL     OW 4186   0.940   3.560   4.628
 1281SOL    HW1 4187   1.020   3.503   4.649
 1281SOL    HW2 4188   0.891   3.520   4.551
 1282SOL     OW 4189   0.382   2.562   4.204
 1282SOL    HW1 4190   0.427   2.472   4.201
 1282SOL    HW2 4191   0.288   2.551   4.237
 1283SOL     OW 4192   1.547   2.084   5.453
 1283SOL    HW1 4193   1.542   2.121   5.545
 1283SOL    HW2 4194   1.475   2.015   5.441
 1284SOL     OW 4195   0.614   1.984   3.841
 1284SOL    HW1 4196   0.712   1.962   3.848
 1284SOL    HW2 4197   0.583   1.967   3.748
 1285SOL     OW 4198   0.781   2.126   5.473
 1285SOL    HW1 4199   0.848   2.065   5.516
 1285SOL    HW2 4200   0.708   2.145   5.538
 1286SOL     OW 4201   0.888   3.376   4.919
 1286SOL    HW1 4202   0.865   3.351   4.825
 1286SOL    HW2 4203   0.949   3.307   4.958
 1287SOL     OW 4204   1.351   2.452   5.157
 1287SOL    HW1 4205   1.379   2.409   5.242
 1287SOL    HW2 4206   1.376   2.548   5.158
 1288SOL     OW 4207   0.803   3.264   4.648
 1288SOL    HW1 4208   0.893   3.278   4.606
 1288SOL    HW2 4209   0.732   3.266   4.577
 1289SOL     OW 4210   0.922   2.365   4.623
 1289SOL    HW1 4211   0.897   2.356   4.527
 1289SOL    HW2 4212   0.970   2.283   4.654
 1290SOL     OW 4213   0.539   1.926   4.236
 1290SOL    HW1 4214   0.458   1.927   4.294
 1290SOL    HW2 4215   0.542   2.009   4.181
 1291SOL     OW 4216   1.434   3.050   3.765
 1291SOL    HW1 4217   1.466   2.974   3.822
 1291SOL    HW2 4218   1.342   3.077   3.795
 1292SOL     OW 4219   0.297   1.897   3.895
 1292SOL    HW1 4220   0.346   1.981   3.874
 1292SOL    HW2 4221   0.359   1.832   3.940
 1293SOL     OW 4222   0.935   2.098   4.204
 1293SOL    HW1 4223   0.887   2.139   4.126
 1293SOL    HW2 4224   1.034   2.096   4.185
 1294SOL     OW 4225   1.076   2.545   5.188
 1294SOL    HW1 4226   0.996   2.484   5.191
 1294SOL    HW2 4227   1.157   2.492   5.164
 1295SOL     OW 4228   1.227   3.432   4.517
 1295SOL    HW1 4229   1.248   3.506   4.452
 1295SOL    HW2 4230   1.295   3.432   4.590
 1296SOL     OW 4231   0.459   3.014   4.465
 1296SOL    HW1 4232   0.388   2.987   4.530
 1296SOL    HW2 4233   0.433   2.986   4.372
 1297SOL     OW 4234   1.271   3.659   4.315
 1297SOL    HW1 4235   1.315   3.723   4.251
 1297SOL    HW2 4236   1.221   3.711   4.385
 1298SOL     OW 4237   1.032   2.411   3.740
 1298SOL    HW1 4238   0.991   2.493   3.701
 1298SOL    HW2 4239   1.096   2.437   3.813
 1299SOL     OW 4240   0.078   2.418   5.110
 1299SOL    HW1 4241   0.170   2.417   5.069
 1299SOL    HW2 4242   0.072   2.492   5.177
 1300SOL     OW 4243   0.561   2.084   4.871
 1300SOL    HW1 4244   0.599   2.000   4.908
 1300SOL    HW2 4245   0.473   2.103   4.915
 1301SOL     OW 4246   0.866   2.316   4.366
 1301SOL    HW1 4247   0.834   2.388   4.304
 1301SOL    HW2 4248   0.890   2.235   4.313
 1302SOL     OW 4249   1.017   1.901   4.477
 1302SOL    HW1 4250   0.945   1.906   4.408
 1302SOL    HW2 4251   0.993   1.832   4.546
 1303SOL     OW 4252   1.429   3.035   4.591
 1303SOL    HW1 4253   1.374   2.951   4.584
 1303SOL    HW2 4254   1.455   3.064   4.499
 1304SOL     OW 4255   1.466   2.452   4.716
 1304SOL    HW1 4256   1.436   2.357   4.723
 1304SOL    HW2 4257   1.539   2.468   4.782
 1305SOL     OW 4258   1.857   2.695   4.101
 1305SOL    HW1 4259   1.899   2.631   4.165
 1305SOL    HW2 4260   1.819   2.644   4.023
 1306SOL     OW 4261   0.488   3.247   3.898
 1306SOL    HW1 4262   0.401   3.232   3.945
 1306SOL    HW2 4263   0.471   3.273   3.803
 1307SOL     OW 4264   1.664   3.142   4.381
 1307SOL    HW1 4265   1.763   3.150   4.395
 1307SOL    HW2 4266   1.619   3.226   4.412
 1308SOL     OW 4267   1.390   2.437   3.802
 1308SOL    HW1 4268   1.336   2.416   3.883
 1308SOL    HW2 4269   1.481   2.396   3.811
 1309SOL     OW 4270   0.527   2.118   4.052
 1309SOL    HW1 4271   0.554   2.059   3.977
 1309SOL    HW2 4272   0.527   2.213   4.021
 1310SOL     OW 4273   1.754   3.085   5.312
 1310SOL    HW1 4274   1.845   3.046   5.299
 1310SOL    HW2 4275   1.762   3.181   5.336
 1311SOL     OW 4276   1.064   3.209   5.064
 1311SOL    HW1 4277   0.984   3.186   5.119
 1311SOL    HW2 4278   1.147   3.183   5.113
 1312SOL     OW 4279   1.592   3.491   5.349
 1312SOL    HW1 4280   1.619   3.525   5.259
 1312SOL    HW2 4281   1.671   3.453   5.395
 1313SOL     OW 4282   1.111   3.057   4.824
 1313SOL    HW1 4283   1.071   3.101   4.905
 1313SOL    HW2 4284   1.070   3.094   4.741
 1314SOL     OW 4285   1.638   2.961   4.803
 1314SOL    HW1 4286   1.643   3.042   4.862
 1314SOL    HW2 4287   1.552   2.963   4.752
 1315SOL     OW 4288   0.915   1.951   5.126
 1315SOL    HW1 4289   0.940   1.931   5.031
 1315SOL    HW2 4290   0.987   2.007   5.168
 1316SOL     OW 4291   0.980   2.978   5.443
 1316SOL    HW1 4292   0.881   2.984   5.453
 1316SOL    HW2 4293   1.003   2.898   5.387
 1317SOL     OW 4294   0.705   2.912   4.092
 1317SOL    HW1 4295   0.691   2.919   4.191
 1317SOL    HW2 4296   0.789   2.861   4.074
 1318SOL     OW 4297   0.410   2.675   4.975
 1318SOL    HW1 4298   0.496   2.687   5.025
 1318SOL    HW2 4299   0.368   2.588   5.002
 1319SOL     OW 4300   1.274   2.248   4.986
 1319SOL    HW1 4301   1.295   2.322   5.050
 1319SOL    HW2 4302   1.185   2.265   4.943
 1320SOL     OW 4303   0.064   3.426   5.055
 1320SOL    HW1 4304   0.018   3.508   5.021
 1320SOL    HW2 4305   0.162   3.445   5.064
 1321SOL     OW 4306   0.367   2.962   4.225
 1321SOL    HW1 4307   0.360   3.045   4.169
 1321SOL    HW2 4308   0.371   2.882   4.165
 1322SOL     OW 4309   0.566   2.399   4.589
 1322SOL    HW1 4310   0.578   2.465   4.515
 1322SOL    HW2 4311   0.612   2.433   4.672
 1323SOL     OW 4312   1.252   3.210   4.112
 1323SOL    HW1 4313   1.302   3.287   4.152
 1323SOL    HW2 4314   1.157   3.212   4.144
 1324SOL     OW 4315   1.272   3.307   4.866
 1324SOL    HW1 4316   1.319   3.320   4.953
 1324SOL    HW2 4317   1.206   3.233   4.875
 1325SOL     OW 4318   1.582   2.501   4.196
 1325SOL    HW1 4319   1.551   2.562   4.269
 1325SOL    HW2 4320   1.632   2.553   4.127
 1326SOL     OW 4321   0.354   3.372   5.053
 1326SOL    HW1 4322   0.333   3.328   4.966
 1326SOL    HW2 4323   0.451   3.398   5.056
 1327SOL     OW 4324   0.402   2.613   5.322
 1327SOL    HW1 4325   0.470   2.668   5.275
 1327SOL    HW2 4326   0.442   2.525   5.349
 1328SOL     OW 4327   1.587   2.641   5.394
 1328SOL    HW1 4328   1.495   2.679   5.389
 1328SOL    HW2 4329   1.647   2.688   5.329
 1329SOL     OW 4330   1.013   1.967   5.494
 1329SOL    HW1 4331   1.019   2.052   5.442
 1329SOL    HW2 4332   1.045   1.891   5.437
 1330SOL     OW 4333   0.504   1.912   5.464
 1330SOL    HW1 4334   0.462   1.855   5.394
 1330SOL    HW2 4335   0.438   1.981   5.496
 1331SOL     OW 4336   0.573   2.732   4.753
 1331SOL    HW1 4337   0.617   2.821   4.744
 1331SOL    HW2 4338   0.510   2.732   4.830
 1332SOL     OW 4339   1.360   2.724   4.769
 1332SOL    HW1 4340   1.285   2.724   4.703
 1332SOL    HW2 4341   1.397   2.632   4.778
 1333SOL     OW 4342   1.209   2.387   3.999
 1333SOL    HW1 4343   1.222   2.303   4.053
 1333SOL    HW2 4344   1.180   2.461   4.059
 1334SOL     OW 4345   0.307   2.075   4.955
 1334SOL    HW1 4346   0.284   2.112   5.045
 1334SOL    HW2 4347   0.277   1.980   4.949
 1335SOL     OW 4348   0.037   3.172   5.006
 1335SOL    HW1 4349   0.090   3.123   5.074
 1335SOL    HW2 4350   0.059   3.270   5.011
 1336SOL     OW 4351   0.732   2.496   4.788
 1336SOL    HW1 4352   0.791   2.470   4.712
 1336SOL    HW2 4353   0.704   2.592   4.777
 1337SOL     OW 4354   1.728   2.797   5.578
 1337SOL    HW1 4355   1.682   2.790   5.489
 1337SOL    HW2 4356   1.666   2.841   5.644
 1338SOL     OW 4357   0.307   1.925   4.342
 1338SOL    HW1 4358   0.296   2.019   4.375
 1338SOL    HW2 4359   0.302   1.862   4.419
 1339SOL     OW 4360   1.622   2.229   4.098
 1339SOL    HW1 4361   1.624   2.153   4.162
 1339SOL    HW2 4362   1.574   2.306   4.138
 1340SOL     OW 4363   1.023   2.628   4.690
 1340SOL    HW1 4364   1.038   2.649   4.786
 1340SOL    HW2 4365   0.993   2.533   4.681
 1341SOL     OW 4366   0.980   3.435   5.424
 1341SOL    HW1 4367   0.960   3.479   5.336
 1341SOL    HW2 4368   1.019   3.344   5.408
 1342SOL     OW 4369   1.859   3.380   5.329
 1342SOL    HW1 4370   1.873   3.407   5.234
 1342SOL    HW2 4371   1.942   3.402   5.382
 1343SOL     OW 4372   0.350   2.760   5.528
 1343SOL    HW1 4373   0.426   2.804   5.576
 1343SOL    HW2 4374   0.385   2.713   5.446
 1344SOL     OW 4375   1.540   2.136   3.849
 1344SOL    HW1 4376   1.479   2.061   3.872
 1344SOL    HW2 4377   1.562   2.188   3.932
 1345SOL     OW 4378   1.303   2.700   3.766
 1345SOL    HW1 4379   1.337   2.607   3.781
 1345SOL    HW2 4380   1.321   2.727   3.671
 1346SOL     OW 4381   1.068   3.195   4.573
 1346SOL    HW1 4382   1.075   3.111   4.518
 1346SOL    HW2 4383   1.130   3.264   4.537
 1347SOL     OW 4384   0.319   2.672   4.673
 1347SOL    HW1 4385   0.412   2.708   4.678
 1347SOL    HW2 4386   0.313   2.587   4.725
 1348SOL     OW 4387   0.339   2.371   4.730
 1348SOL    HW1 4388   0.287   2.288   4.713
 1348SOL    HW2 4389   0.416   2.376   4.666
 1349SOL     OW 4390   1.138   2.242   5.402
 1349SOL    HW1 4391   1.093   2.305   5.466
 1349SOL    HW2 4392   1.231   2.273   5.385
 1350SOL     OW 4393   1.160   2.069   5.201
 1350SOL    HW1 4394   1.160   2.133   5.278
 1350SOL    HW2 4395   1.188   2.117   5.118
 1351SOL     OW 4396   0.008   3.188   3.924
 1351SOL    HW1 4397  -0.085   3.209   3.893
 1351SOL    HW2 4398   0.018   3.089   3.937
 1352SOL     OW 4399   0.088   3.663   4.651
 1352SOL    HW1 4400   0.046   3.577   4.624
 1352SOL    HW2 4401   0.182   3.666   4.617
 1353SOL     OW 4402   0.504   3.430   4.634
 1353SOL    HW1 4403   0.570   3.504   4.643
 1353SOL    HW2 4404   0.548   3.351   4.592
 1354SOL     OW 4405   1.002   2.658   4.962
 1354SOL    HW1 4406   1.043   2.626   5.048
 1354SOL    HW2 4407   0.906   2.631   4.959
 1355SOL     OW 4408   0.040   2.406   4.838
 1355SOL    HW1 4409   0.125   2.373   4.797
 1355SOL    HW2 4410   0.053   2.421   4.936
 1356SOL     OW 4411   0.189   2.382   5.446
 1356SOL    HW1 4412   0.248   2.342   5.376
 1356SOL    HW2 4413   0.131   2.453   5.405
 1357SOL     OW 4414   0.815   2.434   4.049
 1357SOL    HW1 4415   0.822   2.345   4.003
 1357SOL    HW2 4416   0.721   2.468   4.041
 1358SOL     OW 4417   1.657   2.466   4.930
 1358SOL    HW1 4418   1.619   2.397   4.992
 1358SOL    HW2 4419   1.739   2.430   4.886
 1359SOL     OW 4420   0.252   3.426   5.468
 1359SOL    HW1 4421   0.222   3.483   5.544
 1359SOL    HW2 4422   0.245   3.329   5.494
 1360SOL     OW 4423   0.671   2.326   4.993
 1360SOL    HW1 4424   0.637   2.237   4.963
 1360SOL    HW2 4425   0.697   2.380   4.913
 1361SOL     OW 4426   0.930   3.540   5.189
 1361SOL    HW1 4427   0.906   3.522   5.094
 1361SOL    HW2 4428   0.960   3.634   5.199
 1362SOL     OW 4429   0.473   2.362   3.915
 1362SOL    HW1 4430   0.534   2.442   3.919
 1362SOL    HW2 4431   0.378   2.393   3.922
 1363SOL     OW 4432   0.159   2.999   5.190
 1363SOL    HW1 4433   0.181   2.938   5.266
 1363SOL    HW2 4434   0.169   2.950   5.104
 1364SOL     OW 4435   1.347   2.921   4.958
 1364SOL    HW1 4436   1.371   2.858   4.884
 1364SOL    HW2 4437   1.257   2.961   4.940
 1365SOL     OW 4438   1.302   2.717   4.033
 1365SOL    HW1 4439   1.216   2.686   4.075
 1365SOL    HW2 4440   1.298   2.703   3.934
 1366SOL     OW 4441   1.759   3.609   4.878
 1366SOL    HW1 4442   1.820   3.639   4.805
 1366SOL    HW2 4443   1.721   3.520   4.856
 1367SOL     OW 4444   1.252   3.593   4.852
 1367SOL    HW1 4445   1.336   3.598   4.798
 1367SOL    HW2 4446   1.229   3.497   4.870
 1368SOL     OW 4447   0.083   3.120   4.746
 1368SOL    HW1 4448   0.078   3.119   4.846
 1368SOL    HW2 4449   0.000   3.079   4.708
 1369SOL     OW 4450   0.688   3.524   5.440
 1369SOL    HW1 4451   0.632   3.605   5.449
 1369SOL    HW2 4452   0.740   3.528   5.354
 1370SOL     OW 4453   1.726   1.997   4.247
 1370SOL    HW1 4454   1.799   1.980   4.180
 1370SOL    HW2 4455   1.695   1.910   4.285
 1371SOL     OW 4456   1.388   3.435   4.201
 1371SOL    HW1 4457   1.455   3.447   4.127
 1371SOL    HW2 4458   1.348   3.524   4.224
 1372SOL     OW 4459   0.130   3.656   5.575
 1372SOL    HW1 4460   0.089   3.582   5.628
 1372SOL    HW2 4461   0.194   3.707   5.633
 1373SOL     OW 4462   1.280   2.789   4.396
 1373SOL    HW1 4463   1.340   2.708   4.398
 1373SOL    HW2 4464   1.320   2.858   4.336
 1374SOL     OW 4465   0.830   3.135   5.146
 1374SOL    HW1 4466   0.825   3.168   5.241
 1374SOL    HW2 4467   0.744   3.154   5.100
 1375SOL     OW 4468   0.672   3.478   3.878
 1375SOL    HW1 4469   0.681   3.488   3.779
 1375SOL    HW2 4470   0.632   3.389   3.899
 1376SOL     OW 4471   1.650   3.582   5.118
 1376SOL    HW1 4472   1.703   3.592   5.034
 1376SOL    HW2 4473   1.623   3.672   5.152
 1377SOL     OW 4474   1.841   2.037   4.687
 1377SOL    HW1 4475   1.880   1.952   4.651
 1377SOL    HW2 4476   1.743   2.039   4.668
 1378SOL     OW 4477   0.263   2.188   4.444
 1378SOL    HW1 4478   0.184   2.239   4.410
 1378SOL    HW2 4479   0.254   2.173   4.542
 1379SOL     OW 4480   1.194   3.474   3.755
 1379SOL    HW1 4481   1.200   3.381   3.792
 1379SOL    HW2 4482   1.135   3.474   3.675
 1380SOL     OW 4483   0.822   2.864   5.096
 1380SOL    HW1 4484   0.862   2.863   5.004
 1380SOL    HW2 4485   0.832   2.956   5.136
 1381SOL     OW 4486   0.916   2.772   4.015
 1381SOL    HW1 4487   0.979   2.810   3.947
 1381SOL    HW2 4488   0.956   2.689   4.054
 1382SOL     OW 4489   1.504   3.469   3.768
 1382SOL    HW1 4490   1.412   3.506   3.775
 1382SOL    HW2 4491   1.542   3.489   3.678
 1383SOL     OW 4492   0.372   3.150   5.214
 1383SOL    HW1 4493   0.359   3.243   5.180
 1383SOL    HW2 4494   0.288   3.098   5.201
 1384SOL     OW 4495   1.614   3.154   5.013
 1384SOL    HW1 4496   1.674   3.157   5.093
 1384SOL    HW2 4497   1.539   3.218   5.026
 1385SOL     OW 4498   1.039   2.960   4.420
 1385SOL    HW1 4499   0.969   2.913   4.474
 1385SOL    HW2 4500   1.098   2.892   4.377
 1386SOL     OW 4501   1.014   2.098   4.695
 1386SOL    HW1 4502   1.006   2.062   4.602
 1386SOL    HW2 4503   1.012   2.022   4.760
 1387SOL     OW 4504   0.590   3.349   4.215
 1387SOL    HW1 4505   0.632   3.291   4.145
 1387SOL    HW2 4506   0.546   3.428   4.171
 1388SOL     OW 4507   1.709   2.247   5.105
 1388SOL    HW1 4508   1.782   2.316   5.109
 1388SOL    HW2 4509   1.737   2.172   5.046
 1389SOL     OW 4510   0.255   3.210   4.014
 1389SOL    HW1 4511   0.159   3.211   3.987
 1389SOL    HW2 4512   0.267   3.263   4.098
 1390SOL     OW 4513   0.105   2.875   5.450
 1390SOL    HW1 4514   0.028   2.842   5.504
 1390SOL    HW2 4515   0.190   2.845   5.492
 1391SOL     OW 4516   0.672   2.065   5.213
 1391SOL    HW1 4517   0.762   2.049   5.173
 1391SOL    HW2 4518   0.680   2.070   5.312
 1392SOL     OW 4519   0.075   2.207   3.757
 1392SOL    HW1 4520  -0.017   2.179   3.728
 1392SOL    HW2 4521   0.106   2.284   3.701
 1393SOL     OW 4522   1.440   2.718   5.122
 1393SOL    HW1 4523   1.383   2.770   5.059
 1393SOL    HW2 4524   1.536   2.730   5.098
 1394SOL     OW 4525   0.072   2.028   4.042
 1394SOL    HW1 4526   0.055   2.111   3.988
 1394SOL    HW2 4527   0.162   1.991   4.020
 1395SOL     OW 4528   1.183   3.197   3.843
 1395SOL    HW1 4529   1.084   3.186   3.845
 1395SOL    HW2 4530   1.217   3.212   3.936
 1396SOL     OW 4531   0.613   2.704   5.155
 1396SOL    HW1 4532   0.669   2.785   5.138
 1396SOL    HW2 4533   0.672   2.624   5.158
 1397SOL     OW 4534   1.493   3.629   4.683
 1397SOL    HW1 4535   1.526   3.693   4.614
 1397SOL    HW2 4536   1.559   3.623   4.758
 1398SOL     OW 4537   0.716   2.427   5.432
 1398SOL    HW1 4538   0.735   2.492   5.506
 1398SOL    HW2 4539   0.776   2.347   5.441
 1399SOL     OW 4540   1.450   3.082   5.357
 1399SOL    HW1 4541   1.441   3.072   5.456
 1399SOL    HW2 4542   1.546   3.075   5.331
 1400SOL     OW 4543   0.390   3.603   5.284
 1400SOL    HW1 4544   0.299   3.644   5.282
 1400SOL    HW2 4545   0.383   3.509   5.316
 1401SOL     OW 4546   1.674   2.745   4.978
 1401SOL    HW1 4547   1.647   2.656   4.941
 1401SOL    HW2 4548   1.675   2.813   4.905
 1402SOL     OW 4549   1.225   2.187   4.173
 1402SOL    HW1 4550   1.290   2.113   4.162
 1402SOL    HW2 4551   1.245   2.237   4.257
 1403SOL     OW 4552   0.594   2.607   4.376
 1403SOL    HW1 4553   0.644   2.692   4.357
 1403SOL    HW2 4554   0.506   2.609   4.328
 1404SOL     OW 4555   1.777   2.204   5.366
 1404SOL    HW1 4556   1.760   2.235   5.272
 1404SOL    HW2 4557   1.693   2.167   5.404
 1405SOL     OW 4558   1.730   2.796   5.241
 1405SOL    HW1 4559   1.768   2.887   5.256
 1405SOL    HW2 4560   1.722   2.779   5.142
 1406SOL     OW 4561   0.859   3.236   3.740
 1406SOL    HW1 4562   0.813   3.251   3.828
 1406SOL    HW2 4563   0.903   3.321   3.710
 1407SOL     OW 4564   0.661   3.652   4.677
 1407SOL    HW1 4565   0.615   3.740   4.664
 1407SOL    HW2 4566   0.760   3.664   4.670
 1408SOL     OW 4567   0.859   2.818   4.585
 1408SOL    HW1 4568   0.913   2.749   4.633
 1408SOL    HW2 4569   0.827   2.887   4.651
 1409SOL     OW 4570   1.083   2.846   3.811
 1409SOL    HW1 4571   1.060   2.899   3.729
 1409SOL    HW2 4572   1.164   2.790   3.792
 1410SOL     OW 4573   1.861   3.431   4.575
 1410SOL    HW1 4574   1.790   3.419   4.505
 1410SOL    HW2 4575   1.862   3.352   4.635
 1411SOL     OW 4576   0.221   3.176   5.568
 1411SOL    HW1 4577   0.156   3.103   5.547
 1411SOL    HW2 4578   0.225   3.190   5.666
 1412SOL     OW 4579   0.079   3.102   4.377
 1412SOL    HW1 4580   0.078   3.055   4.465
 1412SOL    HW2 4581   0.161   3.074   4.326
 1413SOL     OW 4582   0.672   3.253   5.348
 1413SOL    HW1 4583   0.594   3.203   5.386
 1413SOL    HW2 4584   0.669   3.348   5.379
 1414SOL     OW 4585   1.824   2.054   4.951
 1414SOL    HW1 4586   1.820   1.964   4.995
 1414SOL    HW2 4587   1.827   2.043   4.852
 1415SOL     OW 4588   0.428   2.286   4.244
 1415SOL    HW1 4589   0.458   2.214   4.182
 1415SOL    HW2 4590   0.389   2.246   4.327
 1416SOL     OW 4591   1.705   3.349   4.828
 1416SOL    HW1 4592   1.612   3.324   4.801
 1416SOL    HW2 4593   1.731   3.299   4.910
 1417SOL     OW 4594   0.317   2.409   5.004
 1417SOL    HW1 4595   0.355   2.350   5.076
 1417SOL    HW2 4596   0.357   2.383   4.916
 1418SOL     OW 4597   0.812   3.448   4.411
 1418SOL    HW1 4598   0.844   3.458   4.317
 1418SOL    HW2 4599   0.733   3.386   4.413
 1419SOL     OW 4600   1.424   2.076   4.836
 1419SOL    HW1 4601   1.476   2.011   4.891
 1419SOL    HW2 4602   1.375   2.139   4.897
 1420SOL     OW 4603   1.001   1.896   4.878
 1420SOL    HW1 4604   0.938   1.824   4.847
 1420SOL    HW2 4605   1.094   1.860   4.878
 1421SOL     OW 4606   0.770   3.192   4.025
 1421SOL    HW1 4607   0.724   3.105   4.042
 1421SOL    HW2 4608   0.861   3.189   4.066
 1422SOL     OW 4609   0.618   3.429   5.008
 1422SOL    HW1 4610   0.613   3.511   5.065
 1422SOL    HW2 4611   0.707   3.426   4.963
 1423SOL     OW 4612   1.352   1.914   3.892
 1423SOL    HW1 4613   1.387   1.873   3.808
 1423SOL    HW2 4614   1.262   1.876   3.912
 1424SOL     OW 4615   1.300   2.315   4.415
 1424SOL    HW1 4616   1.241   2.395   4.419
 1424SOL    HW2 4617   1.315   2.280   4.508
 1425SOL     OW 4618   1.593   2.083   4.606
 1425SOL    HW1 4619   1.509   2.082   4.660
 1425SOL    HW2 4620   1.595   2.166   4.550
 1426SOL     OW 4621   0.039   2.939   4.024
 1426SOL    HW1 4622   0.138   2.928   4.015
 1426SOL    HW2 4623  -0.001   2.853   4.056
 1427SOL     OW 4624   0.875   3.508   4.061
 1427SOL    HW1 4625   0.798   3.473   4.007
 1427SOL    HW2 4626   0.843   3.579   4.123
 1428SOL     OW 4627   0.230   2.490   5.699
 1428SOL    HW1 4628   0.137   2.488   5.736
 1428SOL    HW2 4629   0.231   2.451   5.607
 1429SOL     OW 4630   0.225   2.137   6.582
 1429SOL    HW1 4631   0.260   2.120   6.674
 1429SOL    HW2 4632   0.137   2.092   6.570
 1430SOL     OW 4633   0.019   2.230   6.233
 1430SOL    HW1 4634  -0.063   2.273   6.272
 1430SOL    HW2 4635  -0.009   2.157   6.170
 1431SOL     OW 4636   0.569   3.137   6.751
 1431SOL    HW1 4637   0.476   3.130   6.714
 1431SOL    HW2 4638   0.580   3.226   6.795
 1432SOL     OW 4639   1.555   3.373   6.289
 1432SOL    HW1 4640   1.498   3.357   6.370
 1432SOL    HW2 4641   1.496   3.383   6.209
 1433SOL     OW 4642   1.135   2.565   6.303
 1433SOL    HW1 4643   1.192   2.643   6.278
 1433SOL    HW2 4644   1.075   2.591   6.379
 1434SOL     OW 4645   1.755   2.469   5.817
 1434SOL    HW1 4646   1.743   2.456   5.718
 1434SOL    HW2 4647   1.725   2.388   5.866
 1435SOL     OW 4648   0.768   3.006   6.609
 1435SOL    HW1 4649   0.690   3.023   6.669
 1435SOL    HW2 4650   0.802   3.093   6.573
 1436SOL     OW 4651   0.685   2.874   6.251
 1436SOL    HW1 4652   0.754   2.858   6.321
 1436SOL    HW2 4653   0.612   2.931   6.289
 1437SOL     OW 4654   0.335   3.297   6.647
 1437SOL    HW1 4655   0.257   3.266   6.594
 1437SOL    HW2 4656   0.393   3.355   6.590
 1438SOL     OW 4657   1.603   2.309   6.323
 1438SOL    HW1 4658   1.529   2.355   6.273
 1438SOL    HW2 4659   1.654   2.377   6.376
 1439SOL     OW 4660   0.231   3.575   6.069
 1439SOL    HW1 4661   0.265   3.652   6.123
 1439SOL    HW2 4662   0.275   3.575   5.979
 1440SOL     OW 4663   0.230   3.296   6.124
 1440SOL    HW1 4664   0.204   3.392   6.124
 1440SOL    HW2 4665   0.159   3.242   6.169
 1441SOL     OW 4666   0.240   2.953   6.472
 1441SOL    HW1 4667   0.254   2.869   6.524
 1441SOL    HW2 4668   0.185   3.017   6.527
 1442SOL     OW 4669   0.606   2.826   5.709
 1442SOL    HW1 4670   0.613   2.910   5.655
 1442SOL    HW2 4671   0.652   2.839   5.797
 1443SOL     OW 4672   0.122   2.505   6.149
 1443SOL    HW1 4673   0.077   2.417   6.166
 1443SOL    HW2 4674   0.121   2.559   6.233
 1444SOL     OW 4675   1.842   3.629   5.945
 1444SOL    HW1 4676   1.896   3.600   6.025
 1444SOL    HW2 4677   1.872   3.719   5.916
 1445SOL     OW 4678   0.027   3.458   5.703
 1445SOL    HW1 4679   0.008   3.362   5.724
 1445SOL    HW2 4680  -0.006   3.516   5.778
 1446SOL     OW 4681   1.689   2.784   6.198
 1446SOL    HW1 4682   1.784   2.755   6.206
 1446SOL    HW2 4683   1.681   2.849   6.123
 1447SOL     OW 4684   1.641   2.970   6.018
 1447SOL    HW1 4685   1.727   2.972   5.966
 1447SOL    HW2 4686   1.655   3.017   6.106
 1448SOL     OW 4687   0.613   3.227   6.312
 1448SOL    HW1 4688   0.564   3.140   6.321
 1448SOL    HW2 4689   0.590   3.270   6.225
 1449SOL     OW 4690   0.809   1.866   6.088
 1449SOL    HW1 4691   0.849   1.957   6.079
 1449SOL    HW2 4692   0.709   1.874   6.094
 1450SOL     OW 4693   1.525   2.861   5.776
 1450SOL    HW1 4694   1.462   2.785   5.789
 1450SOL    HW2 4695   1.573   2.879   5.862
 1451SOL     OW 4696   1.466   3.279   6.539
 1451SOL    HW1 4697   1.407   3.285   6.619
 1451SOL    HW2 4698   1.451   3.191   6.493
 1452SOL     OW 4699   1.667   3.576   6.158
 1452SOL    HW1 4700   1.626   3.553   6.070
 1452SOL    HW2 4701   1.649   3.502   6.223
 1453SOL     OW 4702   0.598   2.591   5.856
 1453SOL    HW1 4703   0.622   2.660   5.788
 1453SOL    HW2 4704   0.520   2.624   5.910
 1454SOL     OW 4705   1.281   2.207   6.530
 1454SOL    HW1 4706   1.195   2.157   6.517
 1454SOL    HW2 4707   1.343   2.153   6.586
 1455SOL     OW 4708   1.576   3.524   5.893
 1455SOL    HW1 4709   1.665   3.570   5.896
 1455SOL    HW2 4710   1.555   3.500   5.798
 1456SOL     OW 4711   0.991   2.272   6.828
 1456SOL    HW1 4712   0.914   2.306   6.882
 1456SOL    HW2 4713   0.957   2.221   6.749
 1457SOL     OW 4714   1.041   2.563   6.015
 1457SOL    HW1 4715   1.067   2.559   6.111
 1457SOL    HW2 4716   0.956   2.512   6.001
 1458SOL     OW 4717   0.076   2.673   6.375
 1458SOL    HW1 4718   0.175   2.661   6.384
 1458SOL    HW2 4719   0.052   2.768   6.396
 1459SOL     OW 4720   0.865   2.210   5.781
 1459SOL    HW1 4721   0.924   2.273   5.732
 1459SOL    HW2 4722   0.884   2.116   5.752
 1460SOL     OW 4723   1.362   3.006   6.131
 1460SOL    HW1 4724   1.445   2.977   6.083
 1460SOL    HW2 4725   1.313   3.073   6.075
 1461SOL     OW 4726   0.550   2.058   6.471
 1461SOL    HW1 4727   0.545   2.053   6.571
 1461SOL    HW2 4728   0.552   2.154   6.442
 1462SOL     OW 4729   1.008   3.318   6.063
 1462SOL    HW1 4730   0.962   3.390   6.011
 1462SOL    HW2 4731   1.004   3.338   6.161
 1463SOL     OW 4732   0.351   3.663   6.439
 1463SOL    HW1 4733   0.401   3.577   6.445
 1463SOL    HW2 4734   0.416   3.740   6.436
 1464SOL     OW 4735   1.795   2.928   6.459
 1464SOL    HW1 4736   1.733   2.913   6.383
 1464SOL    HW2 4737   1.743   2.939   6.544
 1465SOL     OW 4738   0.321   2.805   5.828
 1465SOL    HW1 4739   0.403   2.844   5.786
 1465SOL    HW2 4740   0.294   2.723   5.779
 1466SOL     OW 4741   1.458   2.597   6.314
 1466SOL    HW1 4742   1.453   2.532   6.389
 1466SOL    HW2 4743   1.538   2.656   6.327
 1467SOL     OW 4744   1.111   3.638   5.823
 1467SOL    HW1 4745   1.051   3.576   5.873
 1467SOL    HW2 4746   1.142   3.594   5.738
 1468SOL     OW 4747   1.632   3.239   5.667
 1468SOL    HW1 4748   1.600   3.333   5.657
 1468SOL    HW2 4749   1.556   3.176   5.655
 1469SOL     OW 4750   0.464   3.605   5.909
 1469SOL    HW1 4751   0.497   3.644   5.995
 1469SOL    HW2 4752   0.540   3.598   5.844
 1470SOL     OW 4753   1.400   1.969   6.012
 1470SOL    HW1 4754   1.376   1.932   5.922
 1470SOL    HW2 4755   1.499   1.985   6.016
 1471SOL     OW 4756   0.249   3.647   6.827
 1471SOL    HW1 4757   0.306   3.582   6.877
 1471SOL    HW2 4758   0.233   3.614   6.734
 1472SOL     OW 4759   0.940   3.560   6.490
 1472SOL    HW1 4760   1.020   3.503   6.511
 1472SOL    HW2 4761   0.891   3.520   6.413
 1473SOL     OW 4762   0.382   2.562   6.066
 1473SOL    HW1 4763   0.427   2.472   6.063
 1473SOL    HW2 4764   0.288   2.551   6.099
 1474SOL     OW 4765   0.614   1.984   5.703
 1474SOL    HW1 4766   0.712   1.962   5.710
 1474SOL    HW2 4767   0.583   1.967   5.610
 1475SOL     OW 4768   0.888   3.376   6.781
 1475SOL    HW1 4769   0.865   3.351   6.687
 1475SOL    HW2 4770   0.949   3.307   6.820
 1476SOL     OW 4771   0.803   3.264   6.510
 1476SOL    HW1 4772   0.893   3.278   6.468
 1476SOL    HW2 4773   0.732   3.266   6.439
 1477SOL     OW 4774   0.922   2.365   6.485
 1477SOL    HW1 4775   0.897   2.356   6.389
 1477SOL    HW2 4776   0.970   2.283   6.516
 1478SOL     OW 4777   0.539   1.926   6.098
 1478SOL    HW1 4778   0.458   1.927   6.156
 1478SOL    HW2 4779   0.542   2.009   6.043
 1479SOL     OW 4780   1.434   3.050   5.627
 1479SOL    HW1 4781   1.466   2.974   5.684
 1479SOL    HW2 4782   1.342   3.077   5.657
 1480SOL     OW 4783   0.297   1.897   5.757
 1480SOL    HW1 4784   0.346   1.981   5.736
 1480SOL    HW2 4785   0.359   1.832   5.802
 1481SOL     OW 4786   0.935   2.098   6.066
 1481SOL    HW1 4787   0.887   2.139   5.988
 1481SOL    HW2 4788   1.034   2.096   6.047
 1482SOL     OW 4789   1.227   3.432   6.379
 1482SOL    HW1 4790   1.248   3.506   6.314
 1482SOL    HW2 4791   1.295   3.432   6.452
 1483SOL     OW 4792   0.459   3.014   6.327
 1483SOL    HW1 4793   0.388   2.987   6.392
 1483SOL    HW2 4794   0.433   2.986   6.234
 1484SOL     OW 4795   1.271   3.659   6.177
 1484SOL    HW1 4796   1.315   3.723   6.113
 1484SOL    HW2 4797   1.221   3.711   6.247
 1485SOL     OW 4798   1.032   2.411   5.602
 1485SOL    HW1 4799   0.991   2.493   5.563
 1485SOL    HW2 4800   1.096   2.437   5.675
 1486SOL     OW 4801   0.561   2.084   6.733
 1486SOL    HW1 4802   0.599   2.000   6.770
 1486SOL    HW2 4803   0.473   2.103   6.777
 1487SOL     OW 4804   0.866   2.316   6.228
 1487SOL    HW1 4805   0.834   2.388   6.166
 1487SOL    HW2 4806   0.890   2.235   6.175
 1488SOL     OW 4807   1.017   1.901   6.339
 1488SOL    HW1 4808   0.945   1.906   6.270
 1488SOL    HW2 4809   0.993   1.832   6.408
 1489SOL     OW 4810   1.429   3.035   6.453
 1489SOL    HW1 4811   1.374   2.951   6.446
 1489SOL    HW2 4812   1.455   3.064   6.361
 1490SOL     OW 4813   1.466   2.452   6.578
 1490SOL    HW1 4814   1.436   2.357   6.585
 1490SOL    HW2 4815   1.539   2.468   6.644
 1491SOL     OW 4816   1.857   2.695   5.963
 1491SOL    HW1 4817   1.899   2.631   6.027
 1491SOL    HW2 4818   1.819   2.644   5.885
 1492SOL     OW 4819   0.488   3.247   5.760
 1492SOL    HW1 4820   0.401   3.232   5.807
 1492SOL    HW2 4821   0.471   3.273   5.665
 1493SOL     OW 4822   1.664   3.142   6.243
 1493SOL    HW1 4823   1.763   3.150   6.257
 1493SOL    HW2 4824   1.619   3.226   6.274
 1494SOL     OW 4825   1.390   2.437   5.664
 1494SOL    HW1 4826   1.336   2.416   5.745
 1494SOL    HW2 4827   1.481   2.396   5.673
 1495SOL     OW 4828   0.527   2.118   5.914
 1495SOL    HW1 4829   0.554   2.059   5.839
 1495SOL    HW2 4830   0.527   2.213   5.883
 1496SOL     OW 4831   1.111   3.057   6.686
 1496SOL    HW1 4832   1.071   3.101   6.767
 1496SOL    HW2 4833   1.070   3.094   6.603
 1497SOL     OW 4834   1.638   2.961   6.665
 1497SOL    HW1 4835   1.643   3.042   6.724
 1497SOL    HW2 4836   1.552   2.963   6.614
 1498SOL     OW 4837   0.705   2.912   5.954
 1498SOL    HW1 4838   0.691   2.919   6.053
 1498SOL    HW2 4839   0.789   2.861   5.936
 1499SOL     OW 4840   0.367   2.962   6.087
 1499SOL    HW1 4841   0.360   3.045   6.031
 1499SOL    HW2 4842   0.371   2.882   6.027
 1500SOL     OW 4843   0.566   2.399   6.451
 1500SOL    HW1 4844   0.578   2.465   6.377
 1500SOL    HW2 4845   0.612   2.433   6.534
 1501SOL     OW 4846   1.252   3.210   5.974
 1501SOL    HW1 4847   1.302   3.287   6.014
 1501SOL    HW2 4848   1.157   3.212   6.006
 1502SOL     OW 4849   1.272   3.307   6.728
 1502SOL    HW1 4850   1.319   3.320   6.815
 1502SOL    HW2 4851   1.206   3.233   6.737
 1503SOL     OW 4852   1.582   2.501   6.058
 1503SOL    HW1 4853   1.551   2.562   6.131
 1503SOL    HW2 4854   1.632   2.553   5.989
 1504SOL     OW 4855   0.573   2.732   6.615
 1504SOL    HW1 4856   0.617   2.821   6.606
 1504SOL    HW2 4857   0.510   2.732   6.692
 1505SOL     OW 4858   1.360   2.724   6.631
 1505SOL    HW1 4859   1.285   2.724   6.565
 1505SOL    HW2 4860   1.397   2.632   6.640
 1506SOL     OW 4861   1.209   2.387   5.861
 1506SOL    HW1 4862   1.222   2.303   5.915
 1506SOL    HW2 4863   1.180   2.461   5.921
 1507SOL     OW 4864   0.732   2.496   6.650
 1507SOL    HW1 4865   0.791   2.470   6.574
 1507SOL    HW2 4866   0.704   2.592   6.639
 1508SOL     OW 4867   0.307   1.925   6.204
 1508SOL    HW1 4868   0.296   2.019   6.237
 1508SOL    HW2 4869   0.302   1.862   6.281
 1509SOL     OW 4870   1.622   2.229   5.960
 1509SOL    HW1 4871   1.624   2.153   6.024
 1509SOL    HW2 4872   1.574   2.306   6.000
 1510SOL     OW 4873   1.023   2.628   6.552
 1510SOL    HW1 4874   1.038   2.649   6.648
 1510SOL    HW2 4875   0.993   2.533   6.543
 1511SOL     OW 4876   1.540   2.136   5.711
 1511SOL    HW1 4877   1.479   2.061   5.734
 1511SOL    HW2 4878   1.562   2.188   5.794
 1512SOL     OW 4879   1.303   2.700   5.628
 1512SOL    HW1 4880   1.337   2.607   5.643
 1512SOL    HW2 4881   1.321   2.727   5.533
 1513SOL     OW 4882   1.068   3.195   6.435
 1513SOL    HW1 4883   1.075   3.111   6.380
 1513SOL    HW2 4884   1.130   3.264   6.399
 1514SOL     OW 4885   0.319   2.672   6.535
 1514SOL    HW1 4886   0.412   2.708   6.540
 1514SOL    HW2 4887   0.313   2.587   6.587
 1515SOL     OW 4888   0.339   2.371   6.592
 1515SOL    HW1 4889   0.287   2.288   6.575
 1515SOL    HW2 4890   0.416   2.376   6.528
 1516SOL     OW 4891   0.008   3.188   5.786
 1516SOL    HW1 4892  -0.085   3.209   5.755
 1516SOL    HW2 4893   0.018   3.089   5.799
 1517SOL     OW 4894   0.088   3.663   6.513
 1517SOL    HW1 4895   0.046   3.577   6.486
 1517SOL    HW2 4896   0.182   3.666   6.479
 1518SOL     OW 4897   0.504   3.430   6.496
 1518SOL    HW1 4898   0.570   3.504   6.505
 1518SOL    HW2 4899   0.548   3.351   6.454
 1519SOL     OW 4900   0.040   2.406   6.700
 1519SOL    HW1 4901   0.125   2.373   6.659
 1519SOL    HW2 4902   0.053   2.421   6.798
 1520SOL     OW 4903   0.815   2.434   5.911
 1520SOL    HW1 4904   0.822   2.345   5.865
 1520SOL    HW2 4905   0.721   2.468   5.903
 1521SOL     OW 4906   1.657   2.466   6.792
 1521SOL    HW1 4907   1.619   2.397   6.854
 1521SOL    HW2 4908   1.739   2.430   6.748
 1522SOL     OW 4909   0.671   2.326   6.855
 1522SOL    HW1 4910   0.637   2.237   6.825
 1522SOL    HW2 4911   0.697   2.380   6.775
 1523SOL     OW 4912   0.473   2.362   5.777
 1523SOL    HW1 4913   0.534   2.442   5.781
 1523SOL    HW2 4914   0.378   2.393   5.784
 1524SOL     OW 4915   1.347   2.921   6.820
 1524SOL    HW1 4916   1.371   2.858   6.746
 1524SOL    HW2 4917   1.257   2.961   6.802
 1525SOL     OW 4918   1.302   2.717   5.895
 1525SOL    HW1 4919   1.216   2.686   5.937
 1525SOL    HW2 4920   1.298   2.703   5.796
 1526SOL     OW 4921   1.759   3.609   6.740
 1526SOL    HW1 4922   1.820   3.639   6.667
 1526SOL    HW2 4923   1.721   3.520   6.718
 1527SOL     OW 4924   1.252   3.593   6.714
 1527SOL    HW1 4925   1.336   3.598   6.660
 1527SOL    HW2 4926   1.229   3.497   6.732
 1528SOL     OW 4927   0.083   3.120   6.608
 1528SOL    HW1 4928   0.078   3.119   6.708
 1528SOL    HW2 4929   0.000   3.079   6.570
 1529SOL     OW 4930   1.726   1.997   6.109
 1529SOL    HW1 4931   1.799   1.980   6.042
 1529SOL    HW2 4932   1.695   1.910   6.147
 1530SOL     OW 4933   1.388   3.435   6.063
 1530SOL    HW1 4934   1.455   3.447   5.989
 1530SOL    HW2 4935   1.348   3.524   6.086
 1531SOL     OW 4936   1.280   2.789   6.258
 1531SOL    HW1 4937   1.340   2.708   6.260
 1531SOL    HW2 4938   1.320   2.858   6.198
 1532SOL     OW 4939   0.672   3.478   5.740
 1532SOL    HW1 4940   0.681   3.488   5.641
 1532SOL    HW2 4941   0.632   3.389   5.761
 1533SOL     OW 4942   1.841   2.037   6.549
 1533SOL    HW1 4943   1.880   1.952   6.513
 1533SOL    HW2 4944   1.743   2.039   6.530
 1534SOL     OW 4945   0.263   2.188   6.306
 1534SOL    HW1 4946   0.184   2.239   6.272
 1534SOL    HW2 4947   0.254   2.173   6.404
 1535SOL     OW 4948   1.194   3.474   5.617
 1535SOL    HW1 4949   1.200   3.381   5.654
 1535SOL    HW2 4950   1.135   3.474   5.537
 1536SOL     OW 4951   0.916   2.772   5.877
 1536SOL    HW1 4952   0.979   2.810   5.809
 1536SOL    HW2 4953   0.956   2.689   5.916
 1537SOL     OW 4954   1.504   3.469   5.630
 1537SOL    HW1 4955   1.412   3.506   5.637
 1537SOL    HW2 4956   1.542   3.489   5.540
 1538SOL     OW 4957   1.039   2.960   6.282
 1538SOL    HW1 4958   0.969   2.913   6.336
 1538SOL    HW2 4959   1.098   2.892   6.239
 1539SOL     OW 4960   1.014   2.098   6.557
 1539SOL    HW1 4961   1.006   2.062   6.464
 1539SOL    HW2 4962   1.012   2.022   6.622
 1540SOL     OW 4963   0.590   3.349   6.077
 1540SOL    HW1 4964   0.632   3.291   6.007
 1540SOL    HW2 4965   0.546   3.428   6.033
 1541SOL     OW 4966   0.255   3.210   5.876
 1541SOL    HW1 4967   0.159   3.211   5.849
 1541SOL    HW2 4968   0.267   3.263   5.960
 1542SOL     OW 4969   0.075   2.207   5.619
 1542SOL    HW1 4970  -0.017   2.179   5.590
 1542SOL    HW2 4971   0.106   2.284   5.563
 1543SOL     OW 4972   0.072   2.028   5.904
 1543SOL    HW1 4973   0.055   2.111   5.850
 1543SOL    HW2 4974   0.162   1.991   5.882
 1544SOL     OW 4975   1.183   3.197   5.705
 1544SOL    HW1 4976   1.084   3.186   5.707
 1544SOL    HW2 4977   1.217   3.212   5.798
 1545SOL     OW 4978   1.493   3.629   6.545
 1545SOL    HW1 4979   1.526   3.693   6.476
 1545SOL    HW2 4980   1.559   3.623   6.620
 1546SOL     OW 4981   1.674   2.745   6.840
 1546SOL    HW1 4982   1.647   2.656   6.803
 1546SOL    HW2 4983   1.675   2.813   6.767
 1547SOL     OW 4984   1.225   2.187   6.035
 1547SOL    HW1 4985   1.290   2.113   6.024
 1547SOL    HW2 4986   1.245   2.237   6.119
 1548SOL     OW 4987   0.594   2.607   6.238
 1548SOL    HW1 4988   0.644   2.692   6.219
 1548SOL    HW2 4989   0.506   2.609   6.190
 1549SOL     OW 4990   0.859   3.236   5.602
 1549SOL    HW1 4991   0.813   3.251   5.690
 1549SOL    HW2 4992   0.903   3.321   5.572
 1550SOL     OW 4993   0.661   3.652   6.539
 1550SOL    HW1 4994   0.615   3.740   6.526
 1550SOL    HW2 4995   0.760   3.664   6.532
 1551SOL     OW 4996   0.859   2.818   6.447
 1551SOL    HW1 4997   0.913   2.749   6.495
 1551SOL    HW2 4998   0.827   2.887   6.513
 1552SOL     OW 4999   1.083   2.846   5.673
 1552SOL    HW1 5000   1.060   2.899   5.591
 1552SOL    HW2 5001   1.164   2.790   5.654
 1553SOL     OW 5002   1.861   3.431   6.437
 1553SOL    HW1 5003   1.790   3.419   6.367
 1553SOL    HW2 5004   1.862   3.352   6.497
 1554SOL     OW 5005   0.079   3.102   6.239
 1554SOL    HW1 5006   0.078   3.055   6.327
 1554SOL    HW2 5007   0.161   3.074   6.188
 1555SOL     OW 5008   1.824   2.054   6.813
 1555SOL    HW1 5009   1.820   1.964   6.857
 1555SOL    HW2 5010   1.827   2.043   6.714
 1556SOL     OW 5011   0.428   2.286   6.106
 1556SOL    HW1 5012   0.458   2.214   6.044
 1556SOL    HW2 5013   0.389   2.246   6.189
 1557SOL     OW 5014   1.705   3.349   6.690
 1557SOL    HW1 5015   1.612   3.324   6.663
 1557SOL    HW2 5016   1.731   3.299   6.772
 1558SOL     OW 5017   0.317   2.409   6.866
 1558SOL    HW1 5018   0.355   2.350   6.938
 1558SOL    HW2 5019   0.357   2.383   6.778
 1559SOL     OW 5020   0.812   3.448   6.273
 1559SOL    HW1 5021   0.844   3.458   6.179
 1559SOL    HW2 5022   0.733   3.386   6.275
 1560SOL     OW 5023   1.424   2.076   6.698
 1560SOL    HW1 5024   1.476   2.011   6.753
 1560SOL    HW2 5025   1.375   2.139   6.759
 1561SOL     OW 5026   1.001   1.896   6.740
 1561SOL    HW1 5027   0.938   1.824   6.709
 1561SOL    HW2 5028   1.094   1.860   6.740
 1562SOL     OW 5029   0.770   3.192   5.887
 1562SOL    HW1 5030   0.724   3.105   5.904
 1562SOL    HW2 5031   0.861   3.189   5.928
 1563SOL     OW 5032   1.352   1.914   5.754
 1563SOL    HW1 5033   1.387   1.873   5.670
 1563SOL    HW2 5034   1.262   1.876   5.774
 1564SOL     OW 5035   1.300   2.315   6.277
 1564SOL    HW1 5036   1.241   2.395   6.281
 1564SOL    HW2 5037   1.315   2.280   6.370
 1565SOL     OW 5038   1.593   2.083   6.468
 1565SOL    HW1 5039   1.509   2.082   6.522
 1565SOL    HW2 5040   1.595   2.166   6.412
 1566SOL     OW 5041   0.039   2.939   5.886
 1566SOL    HW1 5042   0.138   2.928   5.877
 1566SOL    HW2 5043  -0.001   2.853   5.918
 1567SOL     OW 5044   0.875   3.508   5.923
 1567SOL    HW1 5045   0.798   3.473   5.869
 1567SOL    HW2 5046   0.843   3.579   5.985
 1568SOL     OW 5047   0.230   4.352   0.113
 1568SOL    HW1 5048   0.137   4.350   0.150
 1568SOL    HW2 5049   0.231   4.313   0.021
 1569SOL     OW 5050   0.225   3.999   0.996
 1569SOL    HW1 5051   0.260   3.982   1.088
 1569SOL    HW2 5052   0.137   3.954   0.984
 1570SOL     OW 5053   0.019   4.092   0.647
 1570SOL    HW1 5054  -0.063   4.135   0.686
 1570SOL    HW2 5055  -0.009   4.019   0.584
 1571SOL     OW 5056   0.569   4.999   1.165
 1571SOL    HW1 5057   0.476   4.992   1.128
 1571SOL    HW2 5058   0.580   5.088   1.209
 1572SOL     OW 5059   1.555   5.235   0.703
 1572SOL    HW1 5060   1.498   5.219   0.784
 1572SOL    HW2 5061   1.496   5.245   0.623
 1573SOL     OW 5062   1.135   4.427   0.717
 1573SOL    HW1 5063   1.192   4.505   0.692
 1573SOL    HW2 5064   1.075   4.453   0.793
 1574SOL     OW 5065   1.755   4.331   0.231
 1574SOL    HW1 5066   1.743   4.318   0.132
 1574SOL    HW2 5067   1.725   4.250   0.280
 1575SOL     OW 5068   0.768   4.868   1.023
 1575SOL    HW1 5069   0.690   4.885   1.083
 1575SOL    HW2 5070   0.802   4.955   0.987
 1576SOL     OW 5071   0.850   4.522   1.823
 1576SOL    HW1 5072   0.846   4.598   1.888
 1576SOL    HW2 5073   0.872   4.558   1.732
 1577SOL     OW 5074   0.685   4.736   0.665
 1577SOL    HW1 5075   0.754   4.720   0.735
 1577SOL    HW2 5076   0.612   4.793   0.703
 1578SOL     OW 5077   0.686   4.885   1.803
 1578SOL    HW1 5078   0.746   4.964   1.817
 1578SOL    HW2 5079   0.600   4.916   1.762
 1579SOL     OW 5080   0.335   5.159   1.061
 1579SOL    HW1 5081   0.257   5.128   1.008
 1579SOL    HW2 5082   0.393   5.217   1.004
 1580SOL     OW 5083   1.460   5.229   1.339
 1580SOL    HW1 5084   1.484   5.323   1.365
 1580SOL    HW2 5085   1.444   5.175   1.421
 1581SOL     OW 5086   0.438   4.116   1.499
 1581SOL    HW1 5087   0.520   4.060   1.508
 1581SOL    HW2 5088   0.357   4.058   1.503
 1582SOL     OW 5089   1.603   4.171   0.737
 1582SOL    HW1 5090   1.529   4.217   0.687
 1582SOL    HW2 5091   1.654   4.239   0.790
 1583SOL     OW 5092   0.231   5.437   0.483
 1583SOL    HW1 5093   0.265   5.514   0.537
 1583SOL    HW2 5094   0.275   5.437   0.393
 1584SOL     OW 5095   1.127   5.065   1.690
 1584SOL    HW1 5096   1.174   5.065   1.778
 1584SOL    HW2 5097   1.079   4.978   1.679
 1585SOL     OW 5098   0.230   5.158   0.538
 1585SOL    HW1 5099   0.204   5.254   0.538
 1585SOL    HW2 5100   0.159   5.104   0.583
 1586SOL     OW 5101   0.240   4.815   0.886
 1586SOL    HW1 5102   0.254   4.731   0.938
 1586SOL    HW2 5103   0.185   4.879   0.941
 1587SOL     OW 5104   0.620   5.510   1.439
 1587SOL    HW1 5105   0.528   5.493   1.474
 1587SOL    HW2 5106   0.648   5.602   1.465
 1588SOL     OW 5107   0.606   4.688   0.123
 1588SOL    HW1 5108   0.613   4.772   0.069
 1588SOL    HW2 5109   0.652   4.701   0.211
 1589SOL     OW 5110   1.594   3.838   1.480
 1589SOL    HW1 5111   1.576   3.905   1.408
 1589SOL    HW2 5112   1.591   3.884   1.569
 1590SOL     OW 5113   0.122   4.367   0.563
 1590SOL    HW1 5114   0.077   4.279   0.580
 1590SOL    HW2 5115   0.121   4.421   0.647
 1591SOL     OW 5116   1.842   5.491   0.359
 1591SOL    HW1 5117   1.896   5.462   0.439
 1591SOL    HW2 5118   1.872   5.581   0.330
 1592SOL     OW 5119   0.027   5.320   0.117
 1592SOL    HW1 5120   0.008   5.224   0.138
 1592SOL    HW2 5121  -0.006   5.378   0.192
 1593SOL     OW 5122   1.689   4.646   0.612
 1593SOL    HW1 5123   1.784   4.617   0.620
 1593SOL    HW2 5124   1.681   4.711   0.537
 1594SOL     OW 5125   1.641   4.832   0.432
 1594SOL    HW1 5126   1.727   4.834   0.380
 1594SOL    HW2 5127   1.655   4.879   0.520
 1595SOL     OW 5128   0.113   4.461   1.597
 1595SOL    HW1 5129   0.201   4.448   1.642
 1595SOL    HW2 5130   0.100   4.558   1.575
 1596SOL     OW 5131   0.613   5.089   0.726
 1596SOL    HW1 5132   0.564   5.002   0.735
 1596SOL    HW2 5133   0.590   5.132   0.639
 1597SOL     OW 5134   1.293   4.952   1.423
 1597SOL    HW1 5135   1.330   4.879   1.365
 1597SOL    HW2 5136   1.345   4.957   1.508
 1598SOL     OW 5137   0.809   3.728   0.502
 1598SOL    HW1 5138   0.849   3.819   0.493
 1598SOL    HW2 5139   0.709   3.736   0.508
 1599SOL     OW 5140   0.197   4.700   1.264
 1599SOL    HW1 5141   0.286   4.655   1.250
 1599SOL    HW2 5142   0.124   4.635   1.245
 1600SOL     OW 5143   1.525   4.723   0.190
 1600SOL    HW1 5144   1.462   4.647   0.203
 1600SOL    HW2 5145   1.573   4.741   0.276
 1601SOL     OW 5146   1.187   5.516   1.616
 1601SOL    HW1 5147   1.211   5.576   1.540
 1601SOL    HW2 5148   1.194   5.421   1.586
 1602SOL     OW 5149   0.317   3.975   1.801
 1602SOL    HW1 5150   0.388   4.046   1.807
 1602SOL    HW2 5151   0.229   4.014   1.829
 1603SOL     OW 5152   1.466   5.141   0.953
 1603SOL    HW1 5153   1.407   5.147   1.033
 1603SOL    HW2 5154   1.451   5.053   0.907
 1604SOL     OW 5155   1.667   5.438   0.572
 1604SOL    HW1 5156   1.626   5.415   0.484
 1604SOL    HW2 5157   1.649   5.364   0.637
 1605SOL     OW 5158   0.598   4.453   0.270
 1605SOL    HW1 5159   0.622   4.522   0.202
 1605SOL    HW2 5160   0.520   4.486   0.324
 1606SOL     OW 5161   1.281   4.069   0.944
 1606SOL    HW1 5162   1.195   4.019   0.931
 1606SOL    HW2 5163   1.343   4.015   1.000
 1607SOL     OW 5164   1.576   5.386   0.307
 1607SOL    HW1 5165   1.665   5.432   0.310
 1607SOL    HW2 5166   1.555   5.362   0.212
 1608SOL     OW 5167   0.807   4.329   1.465
 1608SOL    HW1 5168   0.760   4.326   1.554
 1608SOL    HW2 5169   0.756   4.274   1.399
 1609SOL     OW 5170   1.394   4.193   1.674
 1609SOL    HW1 5171   1.374   4.236   1.762
 1609SOL    HW2 5172   1.472   4.131   1.683
 1610SOL     OW 5173   0.973   4.614   1.572
 1610SOL    HW1 5174   1.019   4.530   1.543
 1610SOL    HW2 5175   0.917   4.648   1.497
 1611SOL     OW 5176   0.991   4.134   1.242
 1611SOL    HW1 5177   0.914   4.168   1.296
 1611SOL    HW2 5178   0.957   4.083   1.163
 1612SOL     OW 5179   1.041   4.425   0.429
 1612SOL    HW1 5180   1.067   4.421   0.525
 1612SOL    HW2 5181   0.956   4.374   0.415
 1613SOL     OW 5182   0.076   4.535   0.789
 1613SOL    HW1 5183   0.175   4.523   0.798
 1613SOL    HW2 5184   0.052   4.630   0.810
 1614SOL     OW 5185   0.130   5.545   1.571
 1614SOL    HW1 5186   0.120   5.530   1.670
 1614SOL    HW2 5187   0.044   5.581   1.535
 1615SOL     OW 5188   0.865   4.072   0.195
 1615SOL    HW1 5189   0.924   4.135   0.146
 1615SOL    HW2 5190   0.884   3.978   0.166
 1616SOL     OW 5191   1.719   4.309   1.831
 1616SOL    HW1 5192   1.693   4.398   1.795
 1616SOL    HW2 5193   1.717   4.241   1.758
 1617SOL     OW 5194   1.362   4.868   0.545
 1617SOL    HW1 5195   1.445   4.839   0.497
 1617SOL    HW2 5196   1.313   4.935   0.489
 1618SOL     OW 5197   0.550   3.920   0.885
 1618SOL    HW1 5198   0.545   3.915   0.985
 1618SOL    HW2 5199   0.552   4.016   0.856
 1619SOL     OW 5200   1.008   5.180   0.477
 1619SOL    HW1 5201   0.962   5.252   0.425
 1619SOL    HW2 5202   1.004   5.200   0.575
 1620SOL     OW 5203   0.351   5.525   0.853
 1620SOL    HW1 5204   0.401   5.439   0.859
 1620SOL    HW2 5205   0.416   5.602   0.850
 1621SOL     OW 5206   1.795   4.790   0.873
 1621SOL    HW1 5207   1.733   4.775   0.797
 1621SOL    HW2 5208   1.743   4.801   0.958
 1622SOL     OW 5209   1.227   5.274   1.506
 1622SOL    HW1 5210   1.233   5.197   1.570
 1622SOL    HW2 5211   1.175   5.248   1.426
 1623SOL     OW 5212   0.321   4.667   0.242
 1623SOL    HW1 5213   0.403   4.706   0.200
 1623SOL    HW2 5214   0.294   4.585   0.193
 1624SOL     OW 5215   1.458   4.459   0.728
 1624SOL    HW1 5216   1.453   4.394   0.803
 1624SOL    HW2 5217   1.538   4.518   0.741
 1625SOL     OW 5218   0.461   4.990   1.727
 1625SOL    HW1 5219   0.411   4.991   1.641
 1625SOL    HW2 5220   0.398   4.972   1.803
 1626SOL     OW 5221   1.111   5.500   0.237
 1626SOL    HW1 5222   1.051   5.438   0.287
 1626SOL    HW2 5223   1.142   5.456   0.152
 1627SOL     OW 5224   0.202   4.009   1.498
 1627SOL    HW1 5225   0.122   4.069   1.485
 1627SOL    HW2 5226   0.192   3.960   1.584
 1628SOL     OW 5227   1.632   5.101   0.081
 1628SOL    HW1 5228   1.600   5.195   0.071
 1628SOL    HW2 5229   1.556   5.038   0.069
 1629SOL     OW 5230   0.464   5.467   0.323
 1629SOL    HW1 5231   0.497   5.506   0.409
 1629SOL    HW2 5232   0.540   5.460   0.258
 1630SOL     OW 5233   1.400   3.831   0.426
 1630SOL    HW1 5234   1.376   3.794   0.336
 1630SOL    HW2 5235   1.499   3.847   0.430
 1631SOL     OW 5236   0.249   5.509   1.241
 1631SOL    HW1 5237   0.306   5.444   1.291
 1631SOL    HW2 5238   0.233   5.476   1.148
 1632SOL     OW 5239   0.940   5.422   0.904
 1632SOL    HW1 5240   1.020   5.365   0.925
 1632SOL    HW2 5241   0.891   5.382   0.827
 1633SOL     OW 5242   0.382   4.424   0.480
 1633SOL    HW1 5243   0.427   4.334   0.477
 1633SOL    HW2 5244   0.288   4.413   0.513
 1634SOL     OW 5245   1.547   3.946   1.729
 1634SOL    HW1 5246   1.542   3.983   1.821
 1634SOL    HW2 5247   1.475   3.877   1.717
 1635SOL     OW 5248   0.614   3.846   0.117
 1635SOL    HW1 5249   0.712   3.824   0.124
 1635SOL    HW2 5250   0.583   3.829   0.024
 1636SOL     OW 5251   0.781   3.988   1.749
 1636SOL    HW1 5252   0.848   3.927   1.792
 1636SOL    HW2 5253   0.708   4.007   1.814
 1637SOL     OW 5254   0.888   5.238   1.195
 1637SOL    HW1 5255   0.865   5.213   1.101
 1637SOL    HW2 5256   0.949   5.169   1.234
 1638SOL     OW 5257   1.351   4.314   1.433
 1638SOL    HW1 5258   1.379   4.271   1.518
 1638SOL    HW2 5259   1.376   4.410   1.434
 1639SOL     OW 5260   0.803   5.126   0.924
 1639SOL    HW1 5261   0.893   5.140   0.882
 1639SOL    HW2 5262   0.732   5.128   0.853
 1640SOL     OW 5263   0.922   4.227   0.899
 1640SOL    HW1 5264   0.897   4.218   0.803
 1640SOL    HW2 5265   0.970   4.145   0.930
 1641SOL     OW 5266   0.539   3.788   0.512
 1641SOL    HW1 5267   0.458   3.789   0.570
 1641SOL    HW2 5268   0.542   3.871   0.457
 1642SOL     OW 5269   1.434   4.912   0.041
 1642SOL    HW1 5270   1.466   4.836   0.098
 1642SOL    HW2 5271   1.342   4.939   0.071
 1643SOL     OW 5272   0.297   3.759   0.171
 1643SOL    HW1 5273   0.346   3.843   0.150
 1643SOL    HW2 5274   0.359   3.694   0.216
 1644SOL     OW 5275   0.935   3.960   0.480
 1644SOL    HW1 5276   0.887   4.001   0.402
 1644SOL    HW2 5277   1.034   3.958   0.461
 1645SOL     OW 5278   1.076   4.407   1.464
 1645SOL    HW1 5279   0.996   4.346   1.467
 1645SOL    HW2 5280   1.157   4.354   1.440
 1646SOL     OW 5281   1.227   5.294   0.793
 1646SOL    HW1 5282   1.248   5.368   0.728
 1646SOL    HW2 5283   1.295   5.294   0.866
 1647SOL     OW 5284   0.459   4.876   0.741
 1647SOL    HW1 5285   0.388   4.849   0.806
 1647SOL    HW2 5286   0.433   4.848   0.648
 1648SOL     OW 5287   1.271   5.521   0.591
 1648SOL    HW1 5288   1.315   5.585   0.527
 1648SOL    HW2 5289   1.221   5.573   0.661
 1649SOL     OW 5290   1.032   4.273   0.016
 1649SOL    HW1 5291   0.991   4.355  -0.023
 1649SOL    HW2 5292   1.096   4.299   0.089
 1650SOL     OW 5293   0.078   4.280   1.386
 1650SOL    HW1 5294   0.170   4.279   1.345
 1650SOL    HW2 5295   0.072   4.354   1.453
 1651SOL     OW 5296   0.561   3.946   1.147
 1651SOL    HW1 5297   0.599   3.862   1.184
 1651SOL    HW2 5298   0.473   3.965   1.191
 1652SOL     OW 5299   0.866   4.178   0.642
 1652SOL    HW1 5300   0.834   4.250   0.580
 1652SOL    HW2 5301   0.890   4.097   0.589
 1653SOL     OW 5302   1.017   3.763   0.753
 1653SOL    HW1 5303   0.945   3.768   0.684
 1653SOL    HW2 5304   0.993   3.694   0.822
 1654SOL     OW 5305   1.429   4.897   0.867
 1654SOL    HW1 5306   1.374   4.813   0.860
 1654SOL    HW2 5307   1.455   4.926   0.775
 1655SOL     OW 5308   1.466   4.314   0.992
 1655SOL    HW1 5309   1.436   4.219   0.999
 1655SOL    HW2 5310   1.539   4.330   1.058
 1656SOL     OW 5311   1.857   4.557   0.377
 1656SOL    HW1 5312   1.899   4.493   0.441
 1656SOL    HW2 5313   1.819   4.506   0.299
 1657SOL     OW 5314   0.488   5.109   0.174
 1657SOL    HW1 5315   0.401   5.094   0.221
 1657SOL    HW2 5316   0.471   5.135   0.079
 1658SOL     OW 5317   1.664   5.004   0.657
 1658SOL    HW1 5318   1.763   5.012   0.671
 1658SOL    HW2 5319   1.619   5.088   0.688
 1659SOL     OW 5320   1.390   4.299   0.078
 1659SOL    HW1 5321   1.336   4.278   0.159
 1659SOL    HW2 5322   1.481   4.258   0.087
 1660SOL     OW 5323   0.527   3.980   0.328
 1660SOL    HW1 5324   0.554   3.921   0.253
 1660SOL    HW2 5325   0.527   4.075   0.297
 1661SOL     OW 5326   1.754   4.947   1.588
 1661SOL    HW1 5327   1.845   4.908   1.575
 1661SOL    HW2 5328   1.762   5.043   1.612
 1662SOL     OW 5329   1.064   5.071   1.340
 1662SOL    HW1 5330   0.984   5.048   1.395
 1662SOL    HW2 5331   1.147   5.045   1.389
 1663SOL     OW 5332   1.592   5.353   1.625
 1663SOL    HW1 5333   1.619   5.387   1.535
 1663SOL    HW2 5334   1.671   5.315   1.671
 1664SOL     OW 5335   1.111   4.919   1.100
 1664SOL    HW1 5336   1.071   4.963   1.181
 1664SOL    HW2 5337   1.070   4.956   1.017
 1665SOL     OW 5338   1.638   4.823   1.079
 1665SOL    HW1 5339   1.643   4.904   1.138
 1665SOL    HW2 5340   1.552   4.825   1.028
 1666SOL     OW 5341   0.915   3.813   1.402
 1666SOL    HW1 5342   0.940   3.793   1.307
 1666SOL    HW2 5343   0.987   3.869   1.444
 1667SOL     OW 5344   0.980   4.840   1.719
 1667SOL    HW1 5345   0.881   4.846   1.729
 1667SOL    HW2 5346   1.003   4.760   1.663
 1668SOL     OW 5347   0.705   4.774   0.368
 1668SOL    HW1 5348   0.691   4.781   0.467
 1668SOL    HW2 5349   0.789   4.723   0.350
 1669SOL     OW 5350   0.410   4.537   1.251
 1669SOL    HW1 5351   0.496   4.549   1.301
 1669SOL    HW2 5352   0.368   4.450   1.278
 1670SOL     OW 5353   1.274   4.110   1.262
 1670SOL    HW1 5354   1.295   4.184   1.326
 1670SOL    HW2 5355   1.185   4.127   1.219
 1671SOL     OW 5356   0.064   5.288   1.331
 1671SOL    HW1 5357   0.018   5.370   1.297
 1671SOL    HW2 5358   0.162   5.307   1.340
 1672SOL     OW 5359   0.367   4.824   0.501
 1672SOL    HW1 5360   0.360   4.907   0.445
 1672SOL    HW2 5361   0.371   4.744   0.441
 1673SOL     OW 5362   0.566   4.261   0.865
 1673SOL    HW1 5363   0.578   4.327   0.791
 1673SOL    HW2 5364   0.612   4.295   0.948
 1674SOL     OW 5365   1.252   5.072   0.388
 1674SOL    HW1 5366   1.302   5.149   0.428
 1674SOL    HW2 5367   1.157   5.074   0.420
 1675SOL     OW 5368   1.272   5.169   1.142
 1675SOL    HW1 5369   1.319   5.182   1.229
 1675SOL    HW2 5370   1.206   5.095   1.151
 1676SOL     OW 5371   1.582   4.363   0.472
 1676SOL    HW1 5372   1.551   4.424   0.545
 1676SOL    HW2 5373   1.632   4.415   0.403
 1677SOL     OW 5374   0.354   5.234   1.329
 1677SOL    HW1 5375   0.333   5.190   1.242
 1677SOL    HW2 5376   0.451   5.260   1.332
 1678SOL     OW 5377   0.402   4.475   1.598
 1678SOL    HW1 5378   0.470   4.530   1.551
 1678SOL    HW2 5379   0.442   4.387   1.625
 1679SOL     OW 5380   1.587   4.503   1.670
 1679SOL    HW1 5381   1.495   4.541   1.665
 1679SOL    HW2 5382   1.647   4.550   1.605
 1680SOL     OW 5383   1.013   3.829   1.770
 1680SOL    HW1 5384   1.019   3.914   1.718
 1680SOL    HW2 5385   1.045   3.753   1.713
 1681SOL     OW 5386   0.504   3.774   1.740
 1681SOL    HW1 5387   0.462   3.717   1.670
 1681SOL    HW2 5388   0.438   3.843   1.772
 1682SOL     OW 5389   0.573   4.594   1.029
 1682SOL    HW1 5390   0.617   4.683   1.020
 1682SOL    HW2 5391   0.510   4.594   1.106
 1683SOL     OW 5392   1.360   4.586   1.045
 1683SOL    HW1 5393   1.285   4.586   0.979
 1683SOL    HW2 5394   1.397   4.494   1.054
 1684SOL     OW 5395   1.209   4.249   0.275
 1684SOL    HW1 5396   1.222   4.165   0.329
 1684SOL    HW2 5397   1.180   4.323   0.335
 1685SOL     OW 5398   0.307   3.937   1.231
 1685SOL    HW1 5399   0.284   3.974   1.321
 1685SOL    HW2 5400   0.277   3.842   1.225
 1686SOL     OW 5401   0.037   5.034   1.282
 1686SOL    HW1 5402   0.090   4.985   1.350
 1686SOL    HW2 5403   0.059   5.132   1.287
 1687SOL     OW 5404   0.732   4.358   1.064
 1687SOL    HW1 5405   0.791   4.332   0.988
 1687SOL    HW2 5406   0.704   4.454   1.053
 1688SOL     OW 5407   1.728   4.659   1.854
 1688SOL    HW1 5408   1.682   4.652   1.765
 1688SOL    HW2 5409   1.666   4.703   1.920
 1689SOL     OW 5410   0.307   3.787   0.618
 1689SOL    HW1 5411   0.296   3.881   0.651
 1689SOL    HW2 5412   0.302   3.724   0.695
 1690SOL     OW 5413   1.622   4.091   0.374
 1690SOL    HW1 5414   1.624   4.015   0.438
 1690SOL    HW2 5415   1.574   4.168   0.414
 1691SOL     OW 5416   1.023   4.490   0.966
 1691SOL    HW1 5417   1.038   4.511   1.062
 1691SOL    HW2 5418   0.993   4.395   0.957
 1692SOL     OW 5419   0.980   5.297   1.700
 1692SOL    HW1 5420   0.960   5.341   1.612
 1692SOL    HW2 5421   1.019   5.206   1.684
 1693SOL     OW 5422   1.859   5.242   1.605
 1693SOL    HW1 5423   1.873   5.269   1.510
 1693SOL    HW2 5424   1.942   5.264   1.658
 1694SOL     OW 5425   0.350   4.622   1.804
 1694SOL    HW1 5426   0.426   4.666   1.852
 1694SOL    HW2 5427   0.385   4.575   1.722
 1695SOL     OW 5428   1.540   3.998   0.125
 1695SOL    HW1 5429   1.479   3.923   0.148
 1695SOL    HW2 5430   1.562   4.050   0.208
 1696SOL     OW 5431   1.303   4.562   0.042
 1696SOL    HW1 5432   1.337   4.469   0.057
 1696SOL    HW2 5433   1.321   4.589  -0.053
 1697SOL     OW 5434   1.068   5.057   0.849
 1697SOL    HW1 5435   1.075   4.973   0.794
 1697SOL    HW2 5436   1.130   5.126   0.813
 1698SOL     OW 5437   0.319   4.534   0.949
 1698SOL    HW1 5438   0.412   4.570   0.954
 1698SOL    HW2 5439   0.313   4.449   1.001
 1699SOL     OW 5440   0.339   4.233   1.006
 1699SOL    HW1 5441   0.287   4.150   0.989
 1699SOL    HW2 5442   0.416   4.238   0.942
 1700SOL     OW 5443   1.138   4.104   1.678
 1700SOL    HW1 5444   1.093   4.167   1.742
 1700SOL    HW2 5445   1.231   4.135   1.661
 1701SOL     OW 5446   0.008   5.050   0.200
 1701SOL    HW1 5447  -0.085   5.071   0.169
 1701SOL    HW2 5448   0.018   4.951   0.213
 1702SOL     OW 5449   0.088   5.525   0.927
 1702SOL    HW1 5450   0.046   5.439   0.900
 1702SOL    HW2 5451   0.182   5.528   0.893
 1703SOL     OW 5452   0.504   5.292   0.910
 1703SOL    HW1 5453   0.570   5.366   0.919
 1703SOL    HW2 5454   0.548   5.213   0.868
 1704SOL     OW 5455   1.002   4.520   1.238
 1704SOL    HW1 5456   1.043   4.488   1.324
 1704SOL    HW2 5457   0.906   4.493   1.235
 1705SOL     OW 5458   0.040   4.268   1.114
 1705SOL    HW1 5459   0.125   4.235   1.073
 1705SOL    HW2 5460   0.053   4.283   1.212
 1706SOL     OW 5461   0.189   4.244   1.722
 1706SOL    HW1 5462   0.248   4.204   1.652
 1706SOL    HW2 5463   0.131   4.315   1.681
 1707SOL     OW 5464   1.369   4.674   1.660
 1707SOL    HW1 5465   1.408   4.763   1.680
 1707SOL    HW2 5466   1.379   4.654   1.563
 1708SOL     OW 5467   0.815   4.296   0.325
 1708SOL    HW1 5468   0.822   4.207   0.279
 1708SOL    HW2 5469   0.721   4.330   0.317
 1709SOL     OW 5470   1.657   4.328   1.206
 1709SOL    HW1 5471   1.619   4.259   1.268
 1709SOL    HW2 5472   1.739   4.292   1.162
 1710SOL     OW 5473   0.252   5.288   1.744
 1710SOL    HW1 5474   0.222   5.345   1.820
 1710SOL    HW2 5475   0.245   5.191   1.770
 1711SOL     OW 5476   0.671   4.188   1.269
 1711SOL    HW1 5477   0.637   4.099   1.239
 1711SOL    HW2 5478   0.697   4.242   1.189
 1712SOL     OW 5479   0.930   5.402   1.465
 1712SOL    HW1 5480   0.906   5.384   1.370
 1712SOL    HW2 5481   0.960   5.496   1.475
 1713SOL     OW 5482   0.473   4.224   0.191
 1713SOL    HW1 5483   0.534   4.304   0.195
 1713SOL    HW2 5484   0.378   4.255   0.198
 1714SOL     OW 5485   0.159   4.861   1.466
 1714SOL    HW1 5486   0.181   4.800   1.542
 1714SOL    HW2 5487   0.169   4.812   1.380
 1715SOL     OW 5488   1.347   4.783   1.234
 1715SOL    HW1 5489   1.371   4.720   1.160
 1715SOL    HW2 5490   1.257   4.823   1.216
 1716SOL     OW 5491   1.302   4.579   0.309
 1716SOL    HW1 5492   1.216   4.548   0.351
 1716SOL    HW2 5493   1.298   4.565   0.210
 1717SOL     OW 5494   1.759   5.471   1.154
 1717SOL    HW1 5495   1.820   5.501   1.081
 1717SOL    HW2 5496   1.721   5.382   1.132
 1718SOL     OW 5497   1.252   5.455   1.128
 1718SOL    HW1 5498   1.336   5.460   1.074
 1718SOL    HW2 5499   1.229   5.359   1.146
 1719SOL     OW 5500   0.083   4.982   1.022
 1719SOL    HW1 5501   0.078   4.981   1.122
 1719SOL    HW2 5502   0.000   4.941   0.984
 1720SOL     OW 5503   0.688   5.386   1.716
 1720SOL    HW1 5504   0.632   5.467   1.725
 1720SOL    HW2 5505   0.740   5.390   1.630
 1721SOL     OW 5506   0.903   3.810   0.133
 1721SOL    HW1 5507   0.954   3.811   0.047
 1721SOL    HW2 5508   0.959   3.768   0.204
 1722SOL     OW 5509   1.726   3.859   0.523
 1722SOL    HW1 5510   1.799   3.842   0.456
 1722SOL    HW2 5511   1.695   3.772   0.561
 1723SOL     OW 5512   1.388   5.297   0.477
 1723SOL    HW1 5513   1.455   5.309   0.403
 1723SOL    HW2 5514   1.348   5.386   0.500
 1724SOL     OW 5515   0.130   5.518   1.851
 1724SOL    HW1 5516   0.089   5.444   1.904
 1724SOL    HW2 5517   0.194   5.569   1.909
 1725SOL     OW 5518   1.280   4.651   0.672
 1725SOL    HW1 5519   1.340   4.570   0.674
 1725SOL    HW2 5520   1.320   4.720   0.612
 1726SOL     OW 5521   0.830   4.997   1.422
 1726SOL    HW1 5522   0.825   5.030   1.517
 1726SOL    HW2 5523   0.744   5.016   1.376
 1727SOL     OW 5524   1.650   5.444   1.394
 1727SOL    HW1 5525   1.703   5.454   1.310
 1727SOL    HW2 5526   1.623   5.534   1.428
 1728SOL     OW 5527   1.841   3.899   0.963
 1728SOL    HW1 5528   1.880   3.814   0.927
 1728SOL    HW2 5529   1.743   3.901   0.944
 1729SOL     OW 5530   0.263   4.050   0.720
 1729SOL    HW1 5531   0.184   4.101   0.686
 1729SOL    HW2 5532   0.254   4.035   0.818
 1730SOL     OW 5533   1.194   5.336   0.031
 1730SOL    HW1 5534   1.200   5.243   0.068
 1730SOL    HW2 5535   1.135   5.336  -0.049
 1731SOL     OW 5536   0.822   4.726   1.372
 1731SOL    HW1 5537   0.862   4.725   1.280
 1731SOL    HW2 5538   0.832   4.818   1.412
 1732SOL     OW 5539   0.916   4.634   0.291
 1732SOL    HW1 5540   0.979   4.672   0.223
 1732SOL    HW2 5541   0.956   4.551   0.330
 1733SOL     OW 5542   1.504   5.331   0.044
 1733SOL    HW1 5543   1.412   5.368   0.051
 1733SOL    HW2 5544   1.542   5.351  -0.046
 1734SOL     OW 5545   0.372   5.012   1.490
 1734SOL    HW1 5546   0.359   5.105   1.456
 1734SOL    HW2 5547   0.288   4.960   1.477
 1735SOL     OW 5548   1.614   5.016   1.289
 1735SOL    HW1 5549   1.674   5.019   1.369
 1735SOL    HW2 5550   1.539   5.080   1.302
 1736SOL     OW 5551   1.039   4.822   0.696
 1736SOL    HW1 5552   0.969   4.775   0.750
 1736SOL    HW2 5553   1.098   4.754   0.653
 1737SOL     OW 5554   1.014   3.960   0.971
 1737SOL    HW1 5555   1.006   3.924   0.878
 1737SOL    HW2 5556   1.012   3.884   1.036
 1738SOL     OW 5557   0.590   5.211   0.491
 1738SOL    HW1 5558   0.632   5.153   0.421
 1738SOL    HW2 5559   0.546   5.290   0.447
 1739SOL     OW 5560   1.709   4.109   1.381
 1739SOL    HW1 5561   1.782   4.178   1.385
 1739SOL    HW2 5562   1.737   4.034   1.322
 1740SOL     OW 5563   0.255   5.072   0.290
 1740SOL    HW1 5564   0.159   5.073   0.263
 1740SOL    HW2 5565   0.267   5.125   0.374
 1741SOL     OW 5566   0.105   4.737   1.726
 1741SOL    HW1 5567   0.028   4.704   1.780
 1741SOL    HW2 5568   0.190   4.707   1.768
 1742SOL     OW 5569   0.672   3.927   1.489
 1742SOL    HW1 5570   0.762   3.911   1.449
 1742SOL    HW2 5571   0.680   3.932   1.588
 1743SOL     OW 5572   0.075   4.069   0.033
 1743SOL    HW1 5573  -0.017   4.041   0.004
 1743SOL    HW2 5574   0.106   4.146  -0.023
 1744SOL     OW 5575   1.440   4.580   1.398
 1744SOL    HW1 5576   1.383   4.632   1.335
 1744SOL    HW2 5577   1.536   4.592   1.374
 1745SOL     OW 5578   0.072   3.890   0.318
 1745SOL    HW1 5579   0.055   3.973   0.264
 1745SOL    HW2 5580   0.162   3.853   0.296
 1746SOL     OW 5581   1.183   5.059   0.119
 1746SOL    HW1 5582   1.084   5.048   0.121
 1746SOL    HW2 5583   1.217   5.074   0.212
 1747SOL     OW 5584   0.613   4.566   1.431
 1747SOL    HW1 5585   0.669   4.647   1.414
 1747SOL    HW2 5586   0.672   4.486   1.434
 1748SOL     OW 5587   1.493   5.491   0.959
 1748SOL    HW1 5588   1.526   5.555   0.890
 1748SOL    HW2 5589   1.559   5.485   1.034
 1749SOL     OW 5590   0.716   4.289   1.708
 1749SOL    HW1 5591   0.735   4.354   1.782
 1749SOL    HW2 5592   0.776   4.209   1.717
 1750SOL     OW 5593   1.450   4.944   1.633
 1750SOL    HW1 5594   1.441   4.934   1.732
 1750SOL    HW2 5595   1.546   4.937   1.607
 1751SOL     OW 5596   0.390   5.465   1.560
 1751SOL    HW1 5597   0.299   5.506   1.558
 1751SOL    HW2 5598   0.383   5.371   1.592
 1752SOL     OW 5599   1.674   4.607   1.254
 1752SOL    HW1 5600   1.647   4.518   1.217
 1752SOL    HW2 5601   1.675   4.675   1.181
 1753SOL     OW 5602   1.225   4.049   0.449
 1753SOL    HW1 5603   1.290   3.975   0.438
 1753SOL    HW2 5604   1.245   4.099   0.533
 1754SOL     OW 5605   0.594   4.469   0.652
 1754SOL    HW1 5606   0.644   4.554   0.633
 1754SOL    HW2 5607   0.506   4.471   0.604
 1755SOL     OW 5608   1.777   4.066   1.642
 1755SOL    HW1 5609   1.760   4.097   1.548
 1755SOL    HW2 5610   1.693   4.029   1.680
 1756SOL     OW 5611   1.730   4.658   1.517
 1756SOL    HW1 5612   1.768   4.749   1.532
 1756SOL    HW2 5613   1.722   4.641   1.418
 1757SOL     OW 5614   0.859   5.098   0.016
 1757SOL    HW1 5615   0.813   5.113   0.104
 1757SOL    HW2 5616   0.903   5.183  -0.014
 1758SOL     OW 5617   0.661   5.514   0.953
 1758SOL    HW1 5618   0.615   5.602   0.940
 1758SOL    HW2 5619   0.760   5.526   0.946
 1759SOL     OW 5620   0.859   4.680   0.861
 1759SOL    HW1 5621   0.913   4.611   0.909
 1759SOL    HW2 5622   0.827   4.749   0.927
 1760SOL     OW 5623   1.083   4.708   0.087
 1760SOL    HW1 5624   1.060   4.761   0.005
 1760SOL    HW2 5625   1.164   4.652   0.068
 1761SOL     OW 5626   1.861   5.293   0.851
 1761SOL    HW1 5627   1.790   5.281   0.781
 1761SOL    HW2 5628   1.862   5.214   0.911
 1762SOL     OW 5629   0.221   5.038   1.844
 1762SOL    HW1 5630   0.156   4.965   1.823
 1762SOL    HW2 5631   0.225   5.052   1.942
 1763SOL     OW 5632   0.079   4.964   0.653
 1763SOL    HW1 5633   0.078   4.917   0.741
 1763SOL    HW2 5634   0.161   4.936   0.602
 1764SOL     OW 5635   0.672   5.115   1.624
 1764SOL    HW1 5636   0.594   5.065   1.662
 1764SOL    HW2 5637   0.669   5.210   1.655
 1765SOL     OW 5638   1.824   3.916   1.227
 1765SOL    HW1 5639   1.820   3.826   1.271
 1765SOL    HW2 5640   1.827   3.905   1.128
 1766SOL     OW 5641   0.428   4.148   0.520
 1766SOL    HW1 5642   0.458   4.076   0.458
 1766SOL    HW2 5643   0.389   4.108   0.603
 1767SOL     OW 5644   1.705   5.211   1.104
 1767SOL    HW1 5645   1.612   5.186   1.077
 1767SOL    HW2 5646   1.731   5.161   1.186
 1768SOL     OW 5647   0.317   4.271   1.280
 1768SOL    HW1 5648   0.355   4.212   1.352
 1768SOL    HW2 5649   0.357   4.245   1.192
 1769SOL     OW 5650   0.812   5.310   0.687
 1769SOL    HW1 5651   0.844   5.320   0.593
 1769SOL    HW2 5652   0.733   5.248   0.689
 1770SOL     OW 5653   1.424   3.938   1.112
 1770SOL    HW1 5654   1.476   3.873   1.167
 1770SOL    HW2 5655   1.375   4.001   1.173
 1771SOL     OW 5656   1.001   3.758   1.154
 1771SOL    HW1 5657   0.938   3.686   1.123
 1771SOL    HW2 5658   1.094   3.722   1.154
 1772SOL     OW 5659   0.770   5.054   0.301
 1772SOL    HW1 5660   0.724   4.967   0.318
 1772SOL    HW2 5661   0.861   5.051   0.342
 1773SOL     OW 5662   0.618   5.291   1.284
 1773SOL    HW1 5663   0.613   5.373   1.341
 1773SOL    HW2 5664   0.707   5.288   1.239
 1774SOL     OW 5665   1.352   3.776   0.168
 1774SOL    HW1 5666   1.387   3.735   0.084
 1774SOL    HW2 5667   1.262   3.738   0.188
 1775SOL     OW 5668   1.300   4.177   0.691
 1775SOL    HW1 5669   1.241   4.257   0.695
 1775SOL    HW2 5670   1.315   4.142   0.784
 1776SOL     OW 5671   1.593   3.945   0.882
 1776SOL    HW1 5672   1.509   3.944   0.936
 1776SOL    HW2 5673   1.595   4.028   0.826
 1777SOL     OW 5674   0.039   4.801   0.300
 1777SOL    HW1 5675   0.138   4.790   0.291
 1777SOL    HW2 5676  -0.001   4.715   0.332
 1778SOL     OW 5677   0.875   5.370   0.337
 1778SOL    HW1 5678   0.798   5.335   0.283
 1778SOL    HW2 5679   0.843   5.441   0.399
 1779SOL     OW 5680   0.230   4.352   1.975
 1779SOL    HW1 5681   0.137   4.350   2.012
 1779SOL    HW2 5682   0.231   4.313   1.883
 1780SOL     OW 5683   0.225   3.999   2.858
 1780SOL    HW1 5684   0.260   3.982   2.950
 1780SOL    HW2 5685   0.137   3.954   2.846
 1781SOL     OW 5686   0.019   4.092   2.509
 1781SOL    HW1 5687  -0.063   4.135   2.548
 1781SOL    HW2 5688  -0.009   4.019   2.446
 1782SOL     OW 5689   0.569   4.999   3.027
 1782SOL    HW1 5690   0.476   4.992   2.990
 1782SOL    HW2 5691   0.580   5.088   3.071
 1783SOL     OW 5692   1.555   5.235   2.565
 1783SOL    HW1 5693   1.498   5.219   2.646
 1783SOL    HW2 5694   1.496   5.245   2.485
 1784SOL     OW 5695   1.135   4.427   2.579
 1784SOL    HW1 5696   1.192   4.505   2.554
 1784SOL    HW2 5697   1.075   4.453   2.655
 1785SOL     OW 5698   1.755   4.331   2.093
 1785SOL    HW1 5699   1.743   4.318   1.994
 1785SOL    HW2 5700   1.725   4.250   2.142
 1786SOL     OW 5701   0.768   4.868   2.885
 1786SOL    HW1 5702   0.690   4.885   2.945
 1786SOL    HW2 5703   0.802   4.955   2.849
 1787SOL     OW 5704   0.850   4.522   3.685
 1787SOL    HW1 5705   0.846   4.598   3.750
 1787SOL    HW2 5706   0.872   4.558   3.594
 1788SOL     OW 5707   0.685   4.736   2.527
 1788SOL    HW1 5708   0.754   4.720   2.597
 1788SOL    HW2 5709   0.612   4.793   2.565
 1789SOL     OW 5710   0.686   4.885   3.665
 1789SOL    HW1 5711   0.746   4.964   3.679
 1789SOL    HW2 5712   0.600   4.916   3.624
 1790SOL     OW 5713   0.335   5.159   2.923
 1790SOL    HW1 5714   0.257   5.128   2.870
 1790SOL    HW2 5715   0.393   5.217   2.866
 1791SOL     OW 5716   1.460   5.229   3.201
 1791SOL    HW1 5717   1.484   5.323   3.227
 1791SOL    HW2 5718   1.444   5.175   3.283
 1792SOL     OW 5719   0.438   4.116   3.361
 1792SOL    HW1 5720   0.520   4.060   3.370
 1792SOL    HW2 5721   0.357   4.058   3.365
 1793SOL     OW 5722   1.603   4.171   2.599
 1793SOL    HW1 5723   1.529   4.217   2.549
 1793SOL    HW2 5724   1.654   4.239   2.652
 1794SOL     OW 5725   0.231   5.437   2.345
 1794SOL    HW1 5726   0.265   5.514   2.399
 1794SOL    HW2 5727   0.275   5.437   2.255
 1795SOL     OW 5728   1.127   5.065   3.552
 1795SOL    HW1 5729   1.174   5.065   3.640
 1795SOL    HW2 5730   1.079   4.978   3.541
 1796SOL     OW 5731   0.230   5.158   2.400
 1796SOL    HW1 5732   0.204   5.254   2.400
 1796SOL    HW2 5733   0.159   5.104   2.445
 1797SOL     OW 5734   0.240   4.815   2.748
 1797SOL    HW1 5735   0.254   4.731   2.800
 1797SOL    HW2 5736   0.185   4.879   2.803
 1798SOL     OW 5737   0.620   5.510   3.301
 1798SOL    HW1 5738   0.528   5.493   3.336
 1798SOL    HW2 5739   0.648   5.602   3.327
 1799SOL     OW 5740   0.606   4.688   1.985
 1799SOL    HW1 5741   0.613   4.772   1.931
 1799SOL    HW2 5742   0.652   4.701   2.073
 1800SOL     OW 5743   1.594   3.838   3.342
 1800SOL    HW1 5744   1.576   3.905   3.270
 1800SOL    HW2 5745   1.591   3.884   3.431
 1801SOL     OW 5746   0.122   4.367   2.425
 1801SOL    HW1 5747   0.077   4.279   2.442
 1801SOL    HW2 5748   0.121   4.421   2.509
 1802SOL     OW 5749   1.842   5.491   2.221
 1802SOL    HW1 5750   1.896   5.462   2.301
 1802SOL    HW2 5751   1.872   5.581   2.192
 1803SOL     OW 5752   0.027   5.320   1.979
 1803SOL    HW1 5753   0.008   5.224   2.000
 1803SOL    HW2 5754  -0.006   5.378   2.054
 1804SOL     OW 5755   1.689   4.646   2.474
 1804SOL    HW1 5756   1.784   4.617   2.482
 1804SOL    HW2 5757   1.681   4.711   2.399
 1805SOL     OW 5758   1.641   4.832   2.294
 1805SOL    HW1 5759   1.727   4.834   2.242
 1805SOL    HW2 5760   1.655   4.879   2.382
 1806SOL     OW 5761   0.113   4.461   3.459
 1806SOL    HW1 5762   0.201   4.448   3.504
 1806SOL    HW2 5763   0.100   4.558   3.437
 1807SOL     OW 5764   0.613   5.089   2.588
 1807SOL    HW1 5765   0.564   5.002   2.597
 1807SOL    HW2 5766   0.590   5.132   2.501
 1808SOL     OW 5767   1.293   4.952   3.285
 1808SOL    HW1 5768   1.330   4.879   3.227
 1808SOL    HW2 5769   1.345   4.957   3.370
 1809SOL     OW 5770   0.809   3.728   2.364
 1809SOL    HW1 5771   0.849   3.819   2.355
 1809SOL    HW2 5772   0.709   3.736   2.370
 1810SOL     OW 5773   0.197   4.700   3.126
 1810SOL    HW1 5774   0.286   4.655   3.112
 1810SOL    HW2 5775   0.124   4.635   3.107
 1811SOL     OW 5776   1.525   4.723   2.052
 1811SOL    HW1 5777   1.462   4.647   2.065
 1811SOL    HW2 5778   1.573   4.741   2.138
 1812SOL     OW 5779   1.187   5.516   3.478
 1812SOL    HW1 5780   1.211   5.576   3.402
 1812SOL    HW2 5781   1.194   5.421   3.448
 1813SOL     OW 5782   0.317   3.975   3.663
 1813SOL    HW1 5783   0.388   4.046   3.669
 1813SOL    HW2 5784   0.229   4.014   3.691
 1814SOL     OW 5785   1.466   5.141   2.815
 1814SOL    HW1 5786   1.407   5.147   2.895
 1814SOL    HW2 5787   1.451   5.053   2.769
 1815SOL     OW 5788   1.667   5.438   2.434
 1815SOL    HW1 5789   1.626   5.415   2.346
 1815SOL    HW2 5790   1.649   5.364   2.499
 1816SOL     OW 5791   0.598   4.453   2.132
 1816SOL    HW1 5792   0.622   4.522   2.064
 1816SOL    HW2 5793   0.520   4.486   2.186
 1817SOL     OW 5794   1.281   4.069   2.806
 1817SOL    HW1 5795   1.195   4.019   2.793
 1817SOL    HW2 5796   1.343   4.015   2.862
 1818SOL     OW 5797   1.576   5.386   2.169
 1818SOL    HW1 5798   1.665   5.432   2.172
 1818SOL    HW2 5799   1.555   5.362   2.074
 1819SOL     OW 5800   0.807   4.329   3.327
 1819SOL    HW1 5801   0.760   4.326   3.416
 1819SOL    HW2 5802   0.756   4.274   3.261
 1820SOL     OW 5803   1.394   4.193   3.536
 1820SOL    HW1 5804   1.374   4.236   3.624
 1820SOL    HW2 5805   1.472   4.131   3.545
 1821SOL     OW 5806   0.973   4.614   3.434
 1821SOL    HW1 5807   1.019   4.530   3.405
 1821SOL    HW2 5808   0.917   4.648   3.359
 1822SOL     OW 5809   0.991   4.134   3.104
 1822SOL    HW1 5810   0.914   4.168   3.158
 1822SOL    HW2 5811   0.957   4.083   3.025
 1823SOL     OW 5812   1.041   4.425   2.291
 1823SOL    HW1 5813   1.067   4.421   2.387
 1823SOL    HW2 5814   0.956   4.374   2.277
 1824SOL     OW 5815   0.076   4.535   2.651
 1824SOL    HW1 5816   0.175   4.523   2.660
 1824SOL    HW2 5817   0.052   4.630   2.672
 1825SOL     OW 5818   0.130   5.545   3.433
 1825SOL    HW1 5819   0.120   5.530   3.532
 1825SOL    HW2 5820   0.044   5.581   3.397
 1826SOL     OW 5821   0.865   4.072   2.057
 1826SOL    HW1 5822   0.924   4.135   2.008
 1826SOL    HW2 5823   0.884   3.978   2.028
 1827SOL     OW 5824   1.719   4.309   3.693
 1827SOL    HW1 5825   1.693   4.398   3.657
 1827SOL    HW2 5826   1.717   4.241   3.620
 1828SOL     OW 5827   1.362   4.868   2.407
 1828SOL    HW1 5828   1.445   4.839   2.359
 1828SOL    HW2 5829   1.313   4.935   2.351
 1829SOL     OW 5830   0.550   3.920   2.747
 1829SOL    HW1 5831   0.545   3.915   2.847
 1829SOL    HW2 5832   0.552   4.016   2.718
 1830SOL     OW 5833   1.008   5.180   2.339
 1830SOL    HW1 5834   0.962   5.252   2.287
 1830SOL    HW2 5835   1.004   5.200   2.437
 1831SOL     OW 5836   0.351   5.525   2.715
 1831SOL    HW1 5837   0.401   5.439   2.721
 1831SOL    HW2 5838   0.416   5.602   2.712
 1832SOL     OW 5839   1.795   4.790   2.735
 1832SOL    HW1 5840   1.733   4.775   2.659
 1832SOL    HW2 5841   1.743   4.801   2.820
 1833SOL     OW 5842   1.227   5.274   3.368
 1833SOL    HW1 5843   1.233   5.197   3.432
 1833SOL    HW2 5844   1.175   5.248   3.288
 1834SOL     OW 5845   0.321   4.667   2.104
 1834SOL    HW1 5846   0.403   4.706   2.062
 1834SOL    HW2 5847   0.294   4.585   2.055
 1835SOL     OW 5848   0.461   4.990   3.589
 1835SOL    HW1 5849   0.411   4.991   3.503
 1835SOL    HW2 5850   0.398   4.972   3.665
 1836SOL     OW 5851   1.111   5.500   2.099
 1836SOL    HW1 5852   1.051   5.438   2.149
 1836SOL    HW2 5853   1.142   5.456   2.014
 1837SOL     OW 5854   0.202   4.009   3.360
 1837SOL    HW1 5855   0.122   4.069   3.347
 1837SOL    HW2 5856   0.192   3.960   3.446
 1838SOL     OW 5857   1.632   5.101   1.943
 1838SOL    HW1 5858   1.600   5.195   1.933
 1838SOL    HW2 5859   1.556   5.038   1.931
 1839SOL     OW 5860   0.464   5.467   2.185
 1839SOL    HW1 5861   0.497   5.506   2.271
 1839SOL    HW2 5862   0.540   5.460   2.120
 1840SOL     OW 5863   1.400   3.831   2.288
 1840SOL    HW1 5864   1.376   3.794   2.198
 1840SOL    HW2 5865   1.499   3.847   2.292
 1841SOL     OW 5866   0.249   5.509   3.103
 1841SOL    HW1 5867   0.306   5.444   3.153
 1841SOL    HW2 5868   0.233   5.476   3.010
 1842SOL     OW 5869   0.940   5.422   2.766
 1842SOL    HW1 5870   1.020   5.365   2.787
 1842SOL    HW2 5871   0.891   5.382   2.689
 1843SOL     OW 5872   0.382   4.424   2.342
 1843SOL    HW1 5873   0.427   4.334   2.339
 1843SOL    HW2 5874   0.288   4.413   2.375
 1844SOL     OW 5875   1.547   3.946   3.591
 1844SOL    HW1 5876   1.542   3.983   3.683
 1844SOL    HW2 5877   1.475   3.877   3.579
 1845SOL     OW 5878   0.614   3.846   1.979
 1845SOL    HW1 5879   0.712   3.824   1.986
 1845SOL    HW2 5880   0.583   3.829   1.886
 1846SOL     OW 5881   0.781   3.988   3.611
 1846SOL    HW1 5882   0.848   3.927   3.654
 1846SOL    HW2 5883   0.708   4.007   3.676
 1847SOL     OW 5884   0.888   5.238   3.057
 1847SOL    HW1 5885   0.865   5.213   2.963
 1847SOL    HW2 5886   0.949   5.169   3.096
 1848SOL     OW 5887   1.351   4.314   3.295
 1848SOL    HW1 5888   1.379   4.271   3.380
 1848SOL    HW2 5889   1.376   4.410   3.296
 1849SOL     OW 5890   0.803   5.126   2.786
 1849SOL    HW1 5891   0.893   5.140   2.744
 1849SOL    HW2 5892   0.732   5.128   2.715
 1850SOL     OW 5893   0.922   4.227   2.761
 1850SOL    HW1 5894   0.897   4.218   2.665
 1850SOL    HW2 5895   0.970   4.145   2.792
 1851SOL     OW 5896   0.539   3.788   2.374
 1851SOL    HW1 5897   0.458   3.789   2.432
 1851SOL    HW2 5898   0.542   3.871   2.319
 1852SOL     OW 5899   1.434   4.912   1.903
 1852SOL    HW1 5900   1.466   4.836   1.960
 1852SOL    HW2 5901   1.342   4.939   1.933
 1853SOL     OW 5902   0.297   3.759   2.033
 1853SOL    HW1 5903   0.346   3.843   2.012
 1853SOL    HW2 5904   0.359   3.694   2.078
 1854SOL     OW 5905   0.935   3.960   2.342
 1854SOL    HW1 5906   0.887   4.001   2.264
 1854SOL    HW2 5907   1.034   3.958   2.323
 1855SOL     OW 5908   1.076   4.407   3.326
 1855SOL    HW1 5909   0.996   4.346   3.329
 1855SOL    HW2 5910   1.157   4.354   3.302
 1856SOL     OW 5911   1.227   5.294   2.655
 1856SOL    HW1 5912   1.248   5.368   2.590
 1856SOL    HW2 5913   1.295   5.294   2.728
 1857SOL     OW 5914   0.459   4.876   2.603
 1857SOL    HW1 5915   0.388   4.849   2.668
 1857SOL    HW2 5916   0.433   4.848   2.510
 1858SOL     OW 5917   1.271   5.521   2.453
 1858SOL    HW1 5918   1.315   5.585   2.389
 1858SOL    HW2 5919   1.221   5.573   2.523
 1859SOL     OW 5920   1.032   4.273   1.878
 1859SOL    HW1 5921   0.991   4.355   1.839
 1859SOL    HW2 5922   1.096   4.299   1.951
 1860SOL     OW 5923   0.078   4.280   3.248
 1860SOL    HW1 5924   0.170   4.279   3.207
 1860SOL    HW2 5925   0.072   4.354   3.315
 1861SOL     OW 5926   0.561   3.946   3.009
 1861SOL    HW1 5927   0.599   3.862   3.046
 1861SOL    HW2 5928   0.473   3.965   3.053
 1862SOL     OW 5929   0.866   4.178   2.504
 1862SOL    HW1 5930   0.834   4.250   2.442
 1862SOL    HW2 5931   0.890   4.097   2.451
 1863SOL     OW 5932   1.017   3.763   2.615
 1863SOL    HW1 5933   0.945   3.768   2.546
 1863SOL    HW2 5934   0.993   3.694   2.684
 1864SOL     OW 5935   1.429   4.897   2.729
 1864SOL    HW1 5936   1.374   4.813   2.722
 1864SOL    HW2 5937   1.455   4.926   2.637
 1865SOL     OW 5938   1.466   4.314   2.854
 1865SOL    HW1 5939   1.436   4.219   2.861
 1865SOL    HW2 5940   1.539   4.330   2.920
 1866SOL     OW 5941   1.857   4.557   2.239
 1866SOL    HW1 5942   1.899   4.493   2.303
 1866SOL    HW2 5943   1.819   4.506   2.161
 1867SOL     OW 5944   0.488   5.109   2.036
 1867SOL    HW1 5945   0.401   5.094   2.083
 1867SOL    HW2 5946   0.471   5.135   1.941
 1868SOL     OW 5947   1.664   5.004   2.519
 1868SOL    HW1 5948   1.763   5.012   2.533
 1868SOL    HW2 5949   1.619   5.088   2.550
 1869SOL     OW 5950   1.390   4.299   1.940
 1869SOL    HW1 5951   1.336   4.278   2.021
 1869SOL    HW2 5952   1.481   4.258   1.949
 1870SOL     OW 5953   0.527   3.980   2.190
 1870SOL    HW1 5954   0.554   3.921   2.115
 1870SOL    HW2 5955   0.527   4.075   2.159
 1871SOL     OW 5956   1.754   4.947   3.450
 1871SOL    HW1 5957   1.845   4.908   3.437
 1871SOL    HW2 5958   1.762   5.043   3.474
 1872SOL     OW 5959   1.064   5.071   3.202
 1872SOL    HW1 5960   0.984   5.048   3.257
 1872SOL    HW2 5961   1.147   5.045   3.251
 1873SOL     OW 5962   1.592   5.353   3.487
 1873SOL    HW1 5963   1.619   5.387   3.397
 1873SOL    HW2 5964   1.671   5.315   3.533
 1874SOL     OW 5965   1.111   4.919   2.962
 1874SOL    HW1 5966   1.071   4.963   3.043
 1874SOL    HW2 5967   1.070   4.956   2.879
 1875SOL     OW 5968   1.638   4.823   2.941
 1875SOL    HW1 5969   1.643   4.904   3.000
 1875SOL    HW2 5970   1.552   4.825   2.890
 1876SOL     OW 5971   0.915   3.813   3.264
 1876SOL    HW1 5972   0.940   3.793   3.169
 1876SOL    HW2 5973   0.987   3.869   3.306
 1877SOL     OW 5974   0.980   4.840   3.581
 1877SOL    HW1 5975   0.881   4.846   3.591
 1877SOL    HW2 5976   1.003   4.760   3.525
 1878SOL     OW 5977   0.705   4.774   2.230
 1878SOL    HW1 5978   0.691   4.781   2.329
 1878SOL    HW2 5979   0.789   4.723   2.212
 1879SOL     OW 5980   0.410   4.537   3.113
 1879SOL    HW1 5981   0.496   4.549   3.163
 1879SOL    HW2 5982   0.368   4.450   3.140
 1880SOL     OW 5983   1.274   4.110   3.124
 1880SOL    HW1 5984   1.295   4.184   3.188
 1880SOL    HW2 5985   1.185   4.127   3.081
 1881SOL     OW 5986   0.064   5.288   3.193
 1881SOL    HW1 5987   0.018   5.370   3.159
 1881SOL    HW2 5988   0.162   5.307   3.202
 1882SOL     OW 5989   0.367   4.824   2.363
 1882SOL    HW1 5990   0.360   4.907   2.307
 1882SOL    HW2 5991   0.371   4.744   2.303
 1883SOL     OW 5992   1.252   5.072   2.250
 1883SOL    HW1 5993   1.302   5.149   2.290
 1883SOL    HW2 5994   1.157   5.074   2.282
 1884SOL     OW 5995   1.272   5.169   3.004
 1884SOL    HW1 5996   1.319   5.182   3.091
 1884SOL    HW2 5997   1.206   5.095   3.013
 1885SOL     OW 5998   1.582   4.363   2.334
 1885SOL    HW1 5999   1.551   4.424   2.407
 1885SOL    HW2 6000   1.632   4.415   2.265
 1886SOL     OW 6001   0.354   5.234   3.191
 1886SOL    HW1 6002   0.333   5.190   3.104
 1886SOL    HW2 6003   0.451   5.260   3.194
 1887SOL     OW 6004   0.402   4.475   3.460
 1887SOL    HW1 6005   0.470   4.530   3.413
 1887SOL    HW2 6006   0.442   4.387   3.487
 1888SOL     OW 6007   1.587   4.503   3.532
 1888SOL    HW1 6008   1.495   4.541   3.527
 1888SOL    HW2 6009   1.647   4.550   3.467
 1889SOL     OW 6010   1.013   3.829   3.632
 1889SOL    HW1 6011   1.019   3.914   3.580
 1889SOL    HW2 6012   1.045   3.753   3.575
 1890SOL     OW 6013   0.504   3.774   3.602
 1890SOL    HW1 6014   0.462   3.717   3.532
 1890SOL    HW2 6015   0.438   3.843   3.634
 1891SOL     OW 6016   0.573   4.594   2.891
 1891SOL    HW1 6017   0.617   4.683   2.882
 1891SOL    HW2 6018   0.510   4.594   2.968
 1892SOL     OW 6019   1.360   4.586   2.907
 1892SOL    HW1 6020   1.285   4.586   2.841
 1892SOL    HW2 6021   1.397   4.494   2.916
 1893SOL     OW 6022   1.209   4.249   2.137
 1893SOL    HW1 6023   1.222   4.165   2.191
 1893SOL    HW2 6024   1.180   4.323   2.197
 1894SOL     OW 6025   0.307   3.937   3.093
 1894SOL    HW1 6026   0.284   3.974   3.183
 1894SOL    HW2 6027   0.277   3.842   3.087
 1895SOL     OW 6028   0.037   5.034   3.144
 1895SOL    HW1 6029   0.090   4.985   3.212
 1895SOL    HW2 6030   0.059   5.132   3.149
 1896SOL     OW 6031   0.732   4.358   2.926
 1896SOL    HW1 6032   0.791   4.332   2.850
 1896SOL    HW2 6033   0.704   4.454   2.915
 1897SOL     OW 6034   1.728   4.659   3.716
 1897SOL    HW1 6035   1.682   4.652   3.627
 1897SOL    HW2 6036   1.666   4.703   3.782
 1898SOL     OW 6037   0.307   3.787   2.480
 1898SOL    HW1 6038   0.296   3.881   2.513
 1898SOL    HW2 6039   0.302   3.724   2.557
 1899SOL     OW 6040   1.622   4.091   2.236
 1899SOL    HW1 6041   1.624   4.015   2.300
 1899SOL    HW2 6042   1.574   4.168   2.276
 1900SOL     OW 6043   1.023   4.490   2.828
 1900SOL    HW1 6044   1.038   4.511   2.924
 1900SOL    HW2 6045   0.993   4.395   2.819
 1901SOL     OW 6046   0.980   5.297   3.562
 1901SOL    HW1 6047   0.960   5.341   3.474
 1901SOL    HW2 6048   1.019   5.206   3.546
 1902SOL     OW 6049   1.859   5.242   3.467
 1902SOL    HW1 6050   1.873   5.269   3.372
 1902SOL    HW2 6051   1.942   5.264   3.520
 1903SOL     OW 6052   0.350   4.622   3.666
 1903SOL    HW1 6053   0.426   4.666   3.714
 1903SOL    HW2 6054   0.385   4.575   3.584
 1904SOL     OW 6055   1.540   3.998   1.987
 1904SOL    HW1 6056   1.479   3.923   2.010
 1904SOL    HW2 6057   1.562   4.050   2.070
 1905SOL     OW 6058   1.303   4.562   1.904
 1905SOL    HW1 6059   1.337   4.469   1.919
 1905SOL    HW2 6060   1.321   4.589   1.809
 1906SOL     OW 6061   1.068   5.057   2.711
 1906SOL    HW1 6062   1.075   4.973   2.656
 1906SOL    HW2 6063   1.130   5.126   2.675
 1907SOL     OW 6064   0.319   4.534   2.811
 1907SOL    HW1 6065   0.412   4.570   2.816
 1907SOL    HW2 6066   0.313   4.449   2.863
 1908SOL     OW 6067   0.339   4.233   2.868
 1908SOL    HW1 6068   0.287   4.150   2.851
 1908SOL    HW2 6069   0.416   4.238   2.804
 1909SOL     OW 6070   1.138   4.104   3.540
 1909SOL    HW1 6071   1.093   4.167   3.604
 1909SOL    HW2 6072   1.231   4.135   3.523
 1910SOL     OW 6073   1.160   3.931   3.339
 1910SOL    HW1 6074   1.160   3.995   3.416
 1910SOL    HW2 6075   1.188   3.979   3.256
 1911SOL     OW 6076   0.008   5.050   2.062
 1911SOL    HW1 6077  -0.085   5.071   2.031
 1911SOL    HW2 6078   0.018   4.951   2.075
 1912SOL     OW 6079   0.088   5.525   2.789
 1912SOL    HW1 6080   0.046   5.439   2.762
 1912SOL    HW2 6081   0.182   5.528   2.755
 1913SOL     OW 6082   0.504   5.292   2.772
 1913SOL    HW1 6083   0.570   5.366   2.781
 1913SOL    HW2 6084   0.548   5.213   2.730
 1914SOL     OW 6085   1.002   4.520   3.100
 1914SOL    HW1 6086   1.043   4.488   3.186
 1914SOL    HW2 6087   0.906   4.493   3.097
 1915SOL     OW 6088   0.040   4.268   2.976
 1915SOL    HW1 6089   0.125   4.235   2.935
 1915SOL    HW2 6090   0.053   4.283   3.074
 1916SOL     OW 6091   0.189   4.244   3.584
 1916SOL    HW1 6092   0.248   4.204   3.514
 1916SOL    HW2 6093   0.131   4.315   3.543
 1917SOL     OW 6094   1.369   4.674   3.522
 1917SOL    HW1 6095   1.408   4.763   3.542
 1917SOL    HW2 6096   1.379   4.654   3.425
 1918SOL     OW 6097   0.815   4.296   2.187
 1918SOL    HW1 6098   0.822   4.207   2.141
 1918SOL    HW2 6099   0.721   4.330   2.179
 1919SOL     OW 6100   1.657   4.328   3.068
 1919SOL    HW1 6101   1.619   4.259   3.130
 1919SOL    HW2 6102   1.739   4.292   3.024
 1920SOL     OW 6103   0.252   5.288   3.606
 1920SOL    HW1 6104   0.222   5.345   3.682
 1920SOL    HW2 6105   0.245   5.191   3.632
 1921SOL     OW 6106   0.671   4.188   3.131
 1921SOL    HW1 6107   0.637   4.099   3.101
 1921SOL    HW2 6108   0.697   4.242   3.051
 1922SOL     OW 6109   0.930   5.402   3.327
 1922SOL    HW1 6110   0.906   5.384   3.232
 1922SOL    HW2 6111   0.960   5.496   3.337
 1923SOL     OW 6112   0.473   4.224   2.053
 1923SOL    HW1 6113   0.534   4.304   2.057
 1923SOL    HW2 6114   0.378   4.255   2.060
 1924SOL     OW 6115   0.159   4.861   3.328
 1924SOL    HW1 6116   0.181   4.800   3.404
 1924SOL    HW2 6117   0.169   4.812   3.242
 1925SOL     OW 6118   1.347   4.783   3.096
 1925SOL    HW1 6119   1.371   4.720   3.022
 1925SOL    HW2 6120   1.257   4.823   3.078
 1926SOL     OW 6121   1.302   4.579   2.171
 1926SOL    HW1 6122   1.216   4.548   2.213
 1926SOL    HW2 6123   1.298   4.565   2.072
 1927SOL     OW 6124   1.759   5.471   3.016
 1927SOL    HW1 6125   1.820   5.501   2.943
 1927SOL    HW2 6126   1.721   5.382   2.994
 1928SOL     OW 6127   1.252   5.455   2.990
 1928SOL    HW1 6128   1.336   5.460   2.936
 1928SOL    HW2 6129   1.229   5.359   3.008
 1929SOL     OW 6130   0.083   4.982   2.884
 1929SOL    HW1 6131   0.078   4.981   2.984
 1929SOL    HW2 6132   0.000   4.941   2.846
 1930SOL     OW 6133   0.688   5.386   3.578
 1930SOL    HW1 6134   0.632   5.467   3.587
 1930SOL    HW2 6135   0.740   5.390   3.492
 1931SOL     OW 6136   1.726   3.859   2.385
 1931SOL    HW1 6137   1.799   3.842   2.318
 1931SOL    HW2 6138   1.695   3.772   2.423
 1932SOL     OW 6139   1.388   5.297   2.339
 1932SOL    HW1 6140   1.455   5.309   2.265
 1932SOL    HW2 6141   1.348   5.386   2.362
 1933SOL     OW 6142   0.130   5.518   3.713
 1933SOL    HW1 6143   0.089   5.444   3.766
 1933SOL    HW2 6144   0.194   5.569   3.771
 1934SOL     OW 6145   1.280   4.651   2.534
 1934SOL    HW1 6146   1.340   4.570   2.536
 1934SOL    HW2 6147   1.320   4.720   2.474
 1935SOL     OW 6148   0.830   4.997   3.284
 1935SOL    HW1 6149   0.825   5.030   3.379
 1935SOL    HW2 6150   0.744   5.016   3.238
 1936SOL     OW 6151   0.672   5.340   2.016
 1936SOL    HW1 6152   0.681   5.350   1.917
 1936SOL    HW2 6153   0.632   5.251   2.037
 1937SOL     OW 6154   1.650   5.444   3.256
 1937SOL    HW1 6155   1.703   5.454   3.172
 1937SOL    HW2 6156   1.623   5.534   3.290
 1938SOL     OW 6157   1.841   3.899   2.825
 1938SOL    HW1 6158   1.880   3.814   2.789
 1938SOL    HW2 6159   1.743   3.901   2.806
 1939SOL     OW 6160   0.263   4.050   2.582
 1939SOL    HW1 6161   0.184   4.101   2.548
 1939SOL    HW2 6162   0.254   4.035   2.680
 1940SOL     OW 6163   1.194   5.336   1.893
 1940SOL    HW1 6164   1.200   5.243   1.930
 1940SOL    HW2 6165   1.135   5.336   1.813
 1941SOL     OW 6166   0.822   4.726   3.234
 1941SOL    HW1 6167   0.862   4.725   3.142
 1941SOL    HW2 6168   0.832   4.818   3.274
 1942SOL     OW 6169   0.916   4.634   2.153
 1942SOL    HW1 6170   0.979   4.672   2.085
 1942SOL    HW2 6171   0.956   4.551   2.192
 1943SOL     OW 6172   1.504   5.331   1.906
 1943SOL    HW1 6173   1.412   5.368   1.913
 1943SOL    HW2 6174   1.542   5.351   1.816
 1944SOL     OW 6175   0.372   5.012   3.352
 1944SOL    HW1 6176   0.359   5.105   3.318
 1944SOL    HW2 6177   0.288   4.960   3.339
 1945SOL     OW 6178   1.614   5.016   3.151
 1945SOL    HW1 6179   1.674   5.019   3.231
 1945SOL    HW2 6180   1.539   5.080   3.164
 1946SOL     OW 6181   1.039   4.822   2.558
 1946SOL    HW1 6182   0.969   4.775   2.612
 1946SOL    HW2 6183   1.098   4.754   2.515
 1947SOL     OW 6184   1.014   3.960   2.833
 1947SOL    HW1 6185   1.006   3.924   2.740
 1947SOL    HW2 6186   1.012   3.884   2.898
 1948SOL     OW 6187   0.590   5.211   2.353
 1948SOL    HW1 6188   0.632   5.153   2.283
 1948SOL    HW2 6189   0.546   5.290   2.309
 1949SOL     OW 6190   1.709   4.109   3.243
 1949SOL    HW1 6191   1.782   4.178   3.247
 1949SOL    HW2 6192   1.737   4.034   3.184
 1950SOL     OW 6193   0.255   5.072   2.152
 1950SOL    HW1 6194   0.159   5.073   2.125
 1950SOL    HW2 6195   0.267   5.125   2.236
 1951SOL     OW 6196   0.105   4.737   3.588
 1951SOL    HW1 6197   0.028   4.704   3.642
 1951SOL    HW2 6198   0.190   4.707   3.630
 1952SOL     OW 6199   0.672   3.927   3.351
 1952SOL    HW1 6200   0.762   3.911   3.311
 1952SOL    HW2 6201   0.680   3.932   3.450
 1953SOL     OW 6202   0.075   4.069   1.895
 1953SOL    HW1 6203  -0.017   4.041   1.866
 1953SOL    HW2 6204   0.106   4.146   1.839
 1954SOL     OW 6205   1.440   4.580   3.260
 1954SOL    HW1 6206   1.383   4.632   3.197
 1954SOL    HW2 6207   1.536   4.592   3.236
 1955SOL     OW 6208   0.072   3.890   2.180
 1955SOL    HW1 6209   0.055   3.973   2.126
 1955SOL    HW2 6210   0.162   3.853   2.158
 1956SOL     OW 6211   1.183   5.059   1.981
 1956SOL    HW1 6212   1.084   5.048   1.983
 1956SOL    HW2 6213   1.217   5.074   2.074
 1957SOL     OW 6214   0.613   4.566   3.293
 1957SOL    HW1 6215   0.669   4.647   3.276
 1957SOL    HW2 6216   0.672   4.486   3.296
 1958SOL     OW 6217   1.493   5.491   2.821
 1958SOL    HW1 6218   1.526   5.555   2.752
 1958SOL    HW2 6219   1.559   5.485   2.896
 1959SOL     OW 6220   0.716   4.289   3.570
 1959SOL    HW1 6221   0.735   4.354   3.644
 1959SOL    HW2 6222   0.776   4.209   3.579
 1960SOL     OW 6223   1.450   4.944   3.495
 1960SOL    HW1 6224   1.441   4.934   3.594
 1960SOL    HW2 6225   1.546   4.937   3.469
 1961SOL     OW 6226   0.390   5.465   3.422
 1961SOL    HW1 6227   0.299   5.506   3.420
 1961SOL    HW2 6228   0.383   5.371   3.454
 1962SOL     OW 6229   1.674   4.607   3.116
 1962SOL    HW1 6230   1.647   4.518   3.079
 1962SOL    HW2 6231   1.675   4.675   3.043
 1963SOL     OW 6232   1.225   4.049   2.311
 1963SOL    HW1 6233   1.290   3.975   2.300
 1963SOL    HW2 6234   1.245   4.099   2.395
 1964SOL     OW 6235   0.594   4.469   2.514
 1964SOL    HW1 6236   0.644   4.554   2.495
 1964SOL    HW2 6237   0.506   4.471   2.466
 1965SOL     OW 6238   1.777   4.066   3.504
 1965SOL    HW1 6239   1.760   4.097   3.410
 1965SOL    HW2 6240   1.693   4.029   3.542
 1966SOL     OW 6241   1.730   4.658   3.379
 1966SOL    HW1 6242   1.768   4.749   3.394
 1966SOL    HW2 6243   1.722   4.641   3.280
 1967SOL     OW 6244   0.859   5.098   1.878
 1967SOL    HW1 6245   0.813   5.113   1.966
 1967SOL    HW2 6246   0.903   5.183   1.848
 1968SOL     OW 6247   0.661   5.514   2.815
 1968SOL    HW1 6248   0.615   5.602   2.802
 1968SOL    HW2 6249   0.760   5.526   2.808
 1969SOL     OW 6250   0.859   4.680   2.723
 1969SOL    HW1 6251   0.913   4.611   2.771
 1969SOL    HW2 6252   0.827   4.749   2.789
 1970SOL     OW 6253   1.083   4.708   1.949
 1970SOL    HW1 6254   1.060   4.761   1.867
 1970SOL    HW2 6255   1.164   4.652   1.930
 1971SOL     OW 6256   1.861   5.293   2.713
 1971SOL    HW1 6257   1.790   5.281   2.643
 1971SOL    HW2 6258   1.862   5.214   2.773
 1972SOL     OW 6259   0.221   5.038   3.706
 1972SOL    HW1 6260   0.156   4.965   3.685
 1972SOL    HW2 6261   0.225   5.052   3.804
 1973SOL     OW 6262   0.079   4.964   2.515
 1973SOL    HW1 6263   0.078   4.917   2.603
 1973SOL    HW2 6264   0.161   4.936   2.464
 1974SOL     OW 6265   0.672   5.115   3.486
 1974SOL    HW1 6266   0.594   5.065   3.524
 1974SOL    HW2 6267   0.669   5.210   3.517
 1975SOL     OW 6268   1.824   3.916   3.089
 1975SOL    HW1 6269   1.820   3.826   3.133
 1975SOL    HW2 6270   1.827   3.905   2.990
 1976SOL     OW 6271   0.428   4.148   2.382
 1976SOL    HW1 6272   0.458   4.076   2.320
 1976SOL    HW2 6273   0.389   4.108   2.465
 1977SOL     OW 6274   1.705   5.211   2.966
 1977SOL    HW1 6275   1.612   5.186   2.939
 1977SOL    HW2 6276   1.731   5.161   3.048
 1978SOL     OW 6277   0.317   4.271   3.142
 1978SOL    HW1 6278   0.355   4.212   3.214
 1978SOL    HW2 6279   0.357   4.245   3.054
 1979SOL     OW 6280   0.812   5.310   2.549
 1979SOL    HW1 6281   0.844   5.320   2.455
 1979SOL    HW2 6282   0.733   5.248   2.551
 1980SOL     OW 6283   1.424   3.938   2.974
 1980SOL    HW1 6284   1.476   3.873   3.029
 1980SOL    HW2 6285   1.375   4.001   3.035
 1981SOL     OW 6286   1.001   3.758   3.016
 1981SOL    HW1 6287   0.938   3.686   2.985
 1981SOL    HW2 6288   1.094   3.722   3.016
 1982SOL     OW 6289   0.770   5.054   2.163
 1982SOL    HW1 6290   0.724   4.967   2.180
 1982SOL    HW2 6291   0.861   5.051   2.204
 1983SOL     OW 6292   0.618   5.291   3.146
 1983SOL    HW1 6293   0.613   5.373   3.203
 1983SOL    HW2 6294   0.707   5.288   3.101
 1984SOL     OW 6295   1.352   3.776   2.030
 1984SOL    HW1 6296   1.387   3.735   1.946
 1984SOL    HW2 6297   1.262   3.738   2.050
 1985SOL     OW 6298   1.300   4.177   2.553
 1985SOL    HW1 6299   1.241   4.257   2.557
 1985SOL    HW2 6300   1.315   4.142   2.646
 1986SOL     OW 6301   1.593   3.945   2.744
 1986SOL    HW1 6302   1.509   3.944   2.798
 1986SOL    HW2 6303   1.595   4.028   2.688
 1987SOL     OW 6304   0.039   4.801   2.162
 1987SOL    HW1 6305   0.138   4.790   2.153
 1987SOL    HW2 6306  -0.001   4.715   2.194
 1988SOL     OW 6307   0.875   5.370   2.199
 1988SOL    HW1 6308   0.798   5.335   2.145
 1988SOL    HW2 6309   0.843   5.441   2.261
 1989SOL     OW 6310   0.230   4.352   3.837
 1989SOL    HW1 6311   0.137   4.350   3.874
 1989SOL    HW2 6312   0.231   4.313   3.745
 1990SOL     OW 6313   0.225   3.999   4.720
 1990SOL    HW1 6314   0.260   3.982   4.812
 1990SOL    HW2 6315   0.137   3.954   4.708
 1991SOL     OW 6316   0.019   4.092   4.371
 1991SOL    HW1 6317  -0.063   4.135   4.410
 1991SOL    HW2 6318  -0.009   4.019   4.308
 1992SOL     OW 6319   0.569   4.999   4.889
 1992SOL    HW1 6320   0.476   4.992   4.852
 1992SOL    HW2 6321   0.580   5.088   4.933
 1993SOL     OW 6322   1.555   5.235   4.427
 1993SOL    HW1 6323   1.498   5.219   4.508
 1993SOL    HW2 6324   1.496   5.245   4.347
 1994SOL     OW 6325   1.135   4.427   4.441
 1994SOL    HW1 6326   1.192   4.505   4.416
 1994SOL    HW2 6327   1.075   4.453   4.517
 1995SOL     OW 6328   1.755   4.331   3.955
 1995SOL    HW1 6329   1.743   4.318   3.856
 1995SOL    HW2 6330   1.725   4.250   4.004
 1996SOL     OW 6331   0.768   4.868   4.747
 1996SOL    HW1 6332   0.690   4.885   4.807
 1996SOL    HW2 6333   0.802   4.955   4.711
 1997SOL     OW 6334   0.850   4.522   5.547
 1997SOL    HW1 6335   0.846   4.598   5.612
 1997SOL    HW2 6336   0.872   4.558   5.456
 1998SOL     OW 6337   0.685   4.736   4.389
 1998SOL    HW1 6338   0.754   4.720   4.459
 1998SOL    HW2 6339   0.612   4.793   4.427
 1999SOL     OW 6340   0.686   4.885   5.527
 1999SOL    HW1 6341   0.746   4.964   5.541
 1999SOL    HW2 6342   0.600   4.916   5.486
 2000SOL     OW 6343   0.335   5.159   4.785
 2000SOL    HW1 6344   0.257   5.128   4.732
 2000SOL    HW2 6345   0.393   5.217   4.728
 2001SOL     OW 6346   1.460   5.229   5.063
 2001SOL    HW1 6347   1.484   5.323   5.089
 2001SOL    HW2 6348   1.444   5.175   5.145
 2002SOL     OW 6349   0.438   4.116   5.223
 2002SOL    HW1 6350   0.520   4.060   5.232
 2002SOL    HW2 6351   0.357   4.058   5.227
 2003SOL     OW 6352   1.603   4.171   4.461
 2003SOL    HW1 6353   1.529   4.217   4.411
 2003SOL    HW2 6354   1.654   4.239   4.514
 2004SOL     OW 6355   0.231   5.437   4.207
 2004SOL    HW1 6356   0.265   5.514   4.261
 2004SOL    HW2 6357   0.275   5.437   4.117
 2005SOL     OW 6358   1.127   5.065   5.414
 2005SOL    HW1 6359   1.174   5.065   5.502
 2005SOL    HW2 6360   1.079   4.978   5.403
 2006SOL     OW 6361   0.230   5.158   4.262
 2006SOL    HW1 6362   0.204   5.254   4.262
 2006SOL    HW2 6363   0.159   5.104   4.307
 2007SOL     OW 6364   0.240   4.815   4.610
 2007SOL    HW1 6365   0.254   4.731   4.662
 2007SOL    HW2 6366   0.185   4.879   4.665
 2008SOL     OW 6367   0.620   5.510   5.163
 2008SOL    HW1 6368   0.528   5.493   5.198
 2008SOL    HW2 6369   0.648   5.602   5.189
 2009SOL     OW 6370   0.606   4.688   3.847
 2009SOL    HW1 6371   0.613   4.772   3.793
 2009SOL    HW2 6372   0.652   4.701   3.935
 2010SOL     OW 6373   1.594   3.838   5.204
 2010SOL    HW1 6374   1.576   3.905   5.132
 2010SOL    HW2 6375   1.591   3.884   5.293
 2011SOL     OW 6376   0.122   4.367   4.287
 2011SOL    HW1 6377   0.077   4.279   4.304
 2011SOL    HW2 6378   0.121   4.421   4.371
 2012SOL     OW 6379   1.842   5.491   4.083
 2012SOL    HW1 6380   1.896   5.462   4.163
 2012SOL    HW2 6381   1.872   5.581   4.054
 2013SOL     OW 6382   0.027   5.320   3.841
 2013SOL    HW1 6383   0.008   5.224   3.862
 2013SOL    HW2 6384  -0.006   5.378   3.916
 2014SOL     OW 6385   1.689   4.646   4.336
 2014SOL    HW1 6386   1.784   4.617   4.344
 2014SOL    HW2 6387   1.681   4.711   4.261
 2015SOL     OW 6388   1.641   4.832   4.156
 2015SOL    HW1 6389   1.727   4.834   4.104
 2015SOL    HW2 6390   1.655   4.879   4.244
 2016SOL     OW 6391   0.113   4.461   5.321
 2016SOL    HW1 6392   0.201   4.448   5.366
 2016SOL    HW2 6393   0.100   4.558   5.299
 2017SOL     OW 6394   0.613   5.089   4.450
 2017SOL    HW1 6395   0.564   5.002   4.459
 2017SOL    HW2 6396   0.590   5.132   4.363
 2018SOL     OW 6397   1.293   4.952   5.147
 2018SOL    HW1 6398   1.330   4.879   5.089
 2018SOL    HW2 6399   1.345   4.957   5.232
 2019SOL     OW 6400   0.809   3.728   4.226
 2019SOL    HW1 6401   0.849   3.819   4.217
 2019SOL    HW2 6402   0.709   3.736   4.232
 2020SOL     OW 6403   0.197   4.700   4.988
 2020SOL    HW1 6404   0.286   4.655   4.974
 2020SOL    HW2 6405   0.124   4.635   4.969
 2021SOL     OW 6406   1.525   4.723   3.914
 2021SOL    HW1 6407   1.462   4.647   3.927
 2021SOL    HW2 6408   1.573   4.741   4.000
 2022SOL     OW 6409   1.187   5.516   5.340
 2022SOL    HW1 6410   1.211   5.576   5.264
 2022SOL    HW2 6411   1.194   5.421   5.310
 2023SOL     OW 6412   0.317   3.975   5.525
 2023SOL    HW1 6413   0.388   4.046   5.531
 2023SOL    HW2 6414   0.229   4.014   5.553
 2024SOL     OW 6415   1.466   5.141   4.677
 2024SOL    HW1 6416   1.407   5.147   4.757
 2024SOL    HW2 6417   1.451   5.053   4.631
 2025SOL     OW 6418   1.667   5.438   4.296
 2025SOL    HW1 6419   1.626   5.415   4.208
 2025SOL    HW2 6420   1.649   5.364   4.361
 2026SOL     OW 6421   0.598   4.453   3.994
 2026SOL    HW1 6422   0.622   4.522   3.926
 2026SOL    HW2 6423   0.520   4.486   4.048
 2027SOL     OW 6424   1.281   4.069   4.668
 2027SOL    HW1 6425   1.195   4.019   4.655
 2027SOL    HW2 6426   1.343   4.015   4.724
 2028SOL     OW 6427   1.576   5.386   4.031
 2028SOL    HW1 6428   1.665   5.432   4.034
 2028SOL    HW2 6429   1.555   5.362   3.936
 2029SOL     OW 6430   0.807   4.329   5.189
 2029SOL    HW1 6431   0.760   4.326   5.278
 2029SOL    HW2 6432   0.756   4.274   5.123
 2030SOL     OW 6433   0.973   4.614   5.296
 2030SOL    HW1 6434   1.019   4.530   5.267
 2030SOL    HW2 6435   0.917   4.648   5.221
 2031SOL     OW 6436   0.991   4.134   4.966
 2031SOL    HW1 6437   0.914   4.168   5.020
 2031SOL    HW2 6438   0.957   4.083   4.887
 2032SOL     OW 6439   1.041   4.425   4.153
 2032SOL    HW1 6440   1.067   4.421   4.249
 2032SOL    HW2 6441   0.956   4.374   4.139
 2033SOL     OW 6442   0.076   4.535   4.513
 2033SOL    HW1 6443   0.175   4.523   4.522
 2033SOL    HW2 6444   0.052   4.630   4.534
 2034SOL     OW 6445   0.130   5.545   5.295
 2034SOL    HW1 6446   0.120   5.530   5.394
 2034SOL    HW2 6447   0.044   5.581   5.259
 2035SOL     OW 6448   0.865   4.072   3.919
 2035SOL    HW1 6449   0.924   4.135   3.870
 2035SOL    HW2 6450   0.884   3.978   3.890
 2036SOL     OW 6451   1.719   4.309   5.555
 2036SOL    HW1 6452   1.693   4.398   5.519
 2036SOL    HW2 6453   1.717   4.241   5.482
 2037SOL     OW 6454   1.362   4.868   4.269
 2037SOL    HW1 6455   1.445   4.839   4.221
 2037SOL    HW2 6456   1.313   4.935   4.213
 2038SOL     OW 6457   0.550   3.920   4.609
 2038SOL    HW1 6458   0.545   3.915   4.709
 2038SOL    HW2 6459   0.552   4.016   4.580
 2039SOL     OW 6460   1.008   5.180   4.201
 2039SOL    HW1 6461   0.962   5.252   4.149
 2039SOL    HW2 6462   1.004   5.200   4.299
 2040SOL     OW 6463   0.351   5.525   4.577
 2040SOL    HW1 6464   0.401   5.439   4.583
 2040SOL    HW2 6465   0.416   5.602   4.574
 2041SOL     OW 6466   1.795   4.790   4.597
 2041SOL    HW1 6467   1.733   4.775   4.521
 2041SOL    HW2 6468   1.743   4.801   4.682
 2042SOL     OW 6469   1.227   5.274   5.230
 2042SOL    HW1 6470   1.233   5.197   5.294
 2042SOL    HW2 6471   1.175   5.248   5.150
 2043SOL     OW 6472   0.321   4.667   3.966
 2043SOL    HW1 6473   0.403   4.706   3.924
 2043SOL    HW2 6474   0.294   4.585   3.917
 2044SOL     OW 6475   1.458   4.459   4.452
 2044SOL    HW1 6476   1.453   4.394   4.527
 2044SOL    HW2 6477   1.538   4.518   4.465
 2045SOL     OW 6478   0.461   4.990   5.451
 2045SOL    HW1 6479   0.411   4.991   5.365
 2045SOL    HW2 6480   0.398   4.972   5.527
 2046SOL     OW 6481   1.111   5.500   3.961
 2046SOL    HW1 6482   1.051   5.438   4.011
 2046SOL    HW2 6483   1.142   5.456   3.876
 2047SOL     OW 6484   0.202   4.009   5.222
 2047SOL    HW1 6485   0.122   4.069   5.209
 2047SOL    HW2 6486   0.192   3.960   5.308
 2048SOL     OW 6487   1.632   5.101   3.805
 2048SOL    HW1 6488   1.600   5.195   3.795
 2048SOL    HW2 6489   1.556   5.038   3.793
 2049SOL     OW 6490   0.464   5.467   4.047
 2049SOL    HW1 6491   0.497   5.506   4.133
 2049SOL    HW2 6492   0.540   5.460   3.982
 2050SOL     OW 6493   1.400   3.831   4.150
 2050SOL    HW1 6494   1.376   3.794   4.060
 2050SOL    HW2 6495   1.499   3.847   4.154
 2051SOL     OW 6496   0.249   5.509   4.965
 2051SOL    HW1 6497   0.306   5.444   5.015
 2051SOL    HW2 6498   0.233   5.476   4.872
 2052SOL     OW 6499   0.940   5.422   4.628
 2052SOL    HW1 6500   1.020   5.365   4.649
 2052SOL    HW2 6501   0.891   5.382   4.551
 2053SOL     OW 6502   0.382   4.424   4.204
 2053SOL    HW1 6503   0.427   4.334   4.201
 2053SOL    HW2 6504   0.288   4.413   4.237
 2054SOL     OW 6505   1.547   3.946   5.453
 2054SOL    HW1 6506   1.542   3.983   5.545
 2054SOL    HW2 6507   1.475   3.877   5.441
 2055SOL     OW 6508   0.614   3.846   3.841
 2055SOL    HW1 6509   0.712   3.824   3.848
 2055SOL    HW2 6510   0.583   3.829   3.748
 2056SOL     OW 6511   0.781   3.988   5.473
 2056SOL    HW1 6512   0.848   3.927   5.516
 2056SOL    HW2 6513   0.708   4.007   5.538
 2057SOL     OW 6514   0.888   5.238   4.919
 2057SOL    HW1 6515   0.865   5.213   4.825
 2057SOL    HW2 6516   0.949   5.169   4.958
 2058SOL     OW 6517   1.351   4.314   5.157
 2058SOL    HW1 6518   1.379   4.271   5.242
 2058SOL    HW2 6519   1.376   4.410   5.158
 2059SOL     OW 6520   0.803   5.126   4.648
 2059SOL    HW1 6521   0.893   5.140   4.606
 2059SOL    HW2 6522   0.732   5.128   4.577
 2060SOL     OW 6523   0.922   4.227   4.623
 2060SOL    HW1 6524   0.897   4.218   4.527
 2060SOL    HW2 6525   0.970   4.145   4.654
 2061SOL     OW 6526   0.539   3.788   4.236
 2061SOL    HW1 6527   0.458   3.789   4.294
 2061SOL    HW2 6528   0.542   3.871   4.181
 2062SOL     OW 6529   1.434   4.912   3.765
 2062SOL    HW1 6530   1.466   4.836   3.822
 2062SOL    HW2 6531   1.342   4.939   3.795
 2063SOL     OW 6532   0.297   3.759   3.895
 2063SOL    HW1 6533   0.346   3.843   3.874
 2063SOL    HW2 6534   0.359   3.694   3.940
 2064SOL     OW 6535   0.935   3.960   4.204
 2064SOL    HW1 6536   0.887   4.001   4.126
 2064SOL    HW2 6537   1.034   3.958   4.185
 2065SOL     OW 6538   1.076   4.407   5.188
 2065SOL    HW1 6539   0.996   4.346   5.191
 2065SOL    HW2 6540   1.157   4.354   5.164
 2066SOL     OW 6541   0.459   4.876   4.465
 2066SOL    HW1 6542   0.388   4.849   4.530
 2066SOL    HW2 6543   0.433   4.848   4.372
 2067SOL     OW 6544   1.271   5.521   4.315
 2067SOL    HW1 6545   1.315   5.585   4.251
 2067SOL    HW2 6546   1.221   5.573   4.385
 2068SOL     OW 6547   1.032   4.273   3.740
 2068SOL    HW1 6548   0.991   4.355   3.701
 2068SOL    HW2 6549   1.096   4.299   3.813
 2069SOL     OW 6550   0.078   4.280   5.110
 2069SOL    HW1 6551   0.170   4.279   5.069
 2069SOL    HW2 6552   0.072   4.354   5.177
 2070SOL     OW 6553   0.561   3.946   4.871
 2070SOL    HW1 6554   0.599   3.862   4.908
 2070SOL    HW2 6555   0.473   3.965   4.915
 2071SOL     OW 6556   0.866   4.178   4.366
 2071SOL    HW1 6557   0.834   4.250   4.304
 2071SOL    HW2 6558   0.890   4.097   4.313
 2072SOL     OW 6559   1.017   3.763   4.477
 2072SOL    HW1 6560   0.945   3.768   4.408
 2072SOL    HW2 6561   0.993   3.694   4.546
 2073SOL     OW 6562   1.429   4.897   4.591
 2073SOL    HW1 6563   1.374   4.813   4.584
 2073SOL    HW2 6564   1.455   4.926   4.499
 2074SOL     OW 6565   1.466   4.314   4.716
 2074SOL    HW1 6566   1.436   4.219   4.723
 2074SOL    HW2 6567   1.539   4.330   4.782
 2075SOL     OW 6568   1.857   4.557   4.101
 2075SOL    HW1 6569   1.899   4.493   4.165
 2075SOL    HW2 6570   1.819   4.506   4.023
 2076SOL     OW 6571   0.488   5.109   3.898
 2076SOL    HW1 6572   0.401   5.094   3.945
 2076SOL    HW2 6573   0.471   5.135   3.803
 2077SOL     OW 6574   1.664   5.004   4.381
 2077SOL    HW1 6575   1.763   5.012   4.395
 2077SOL    HW2 6576   1.619   5.088   4.412
 2078SOL     OW 6577   1.390   4.299   3.802
 2078SOL    HW1 6578   1.336   4.278   3.883
 2078SOL    HW2 6579   1.481   4.258   3.811
 2079SOL     OW 6580   0.527   3.980   4.052
 2079SOL    HW1 6581   0.554   3.921   3.977
 2079SOL    HW2 6582   0.527   4.075   4.021
 2080SOL     OW 6583   1.754   4.947   5.312
 2080SOL    HW1 6584   1.845   4.908   5.299
 2080SOL    HW2 6585   1.762   5.043   5.336
 2081SOL     OW 6586   1.064   5.071   5.064
 2081SOL    HW1 6587   0.984   5.048   5.119
 2081SOL    HW2 6588   1.147   5.045   5.113
 2082SOL     OW 6589   1.592   5.353   5.349
 2082SOL    HW1 6590   1.619   5.387   5.259
 2082SOL    HW2 6591   1.671   5.315   5.395
 2083SOL     OW 6592   1.111   4.919   4.824
 2083SOL    HW1 6593   1.071   4.963   4.905
 2083SOL    HW2 6594   1.070   4.956   4.741
 2084SOL     OW 6595   1.638   4.823   4.803
 2084SOL    HW1 6596   1.643   4.904   4.862
 2084SOL    HW2 6597   1.552   4.825   4.752
 2085SOL     OW 6598   0.915   3.813   5.126
 2085SOL    HW1 6599   0.940   3.793   5.031
 2085SOL    HW2 6600   0.987   3.869   5.168
 2086SOL     OW 6601   0.980   4.840   5.443
 2086SOL    HW1 6602   0.881   4.846   5.453
 2086SOL    HW2 6603   1.003   4.760   5.387
 2087SOL     OW 6604   0.705   4.774   4.092
 2087SOL    HW1 6605   0.691   4.781   4.191
 2087SOL    HW2 6606   0.789   4.723   4.074
 2088SOL     OW 6607   0.410   4.537   4.975
 2088SOL    HW1 6608   0.496   4.549   5.025
 2088SOL    HW2 6609   0.368   4.450   5.002
 2089SOL     OW 6610   1.274   4.110   4.986
 2089SOL    HW1 6611   1.295   4.184   5.050
 2089SOL    HW2 6612   1.185   4.127   4.943
 2090SOL     OW 6613   0.064   5.288   5.055
 2090SOL    HW1 6614   0.018   5.370   5.021
 2090SOL    HW2 6615   0.162   5.307   5.064
 2091SOL     OW 6616   0.367   4.824   4.225
 2091SOL    HW1 6617   0.360   4.907   4.169
 2091SOL    HW2 6618   0.371   4.744   4.165
 2092SOL     OW 6619   0.566   4.261   4.589
 2092SOL    HW1 6620   0.578   4.327   4.515
 2092SOL    HW2 6621   0.612   4.295   4.672
 2093SOL     OW 6622   1.252   5.072   4.112
 2093SOL    HW1 6623   1.302   5.149   4.152
 2093SOL    HW2 6624   1.157   5.074   4.144
 2094SOL     OW 6625   1.272   5.169   4.866
 2094SOL    HW1 6626   1.319   5.182   4.953
 2094SOL    HW2 6627   1.206   5.095   4.875
 2095SOL     OW 6628   1.582   4.363   4.196
 2095SOL    HW1 6629   1.551   4.424   4.269
 2095SOL    HW2 6630   1.632   4.415   4.127
 2096SOL     OW 6631   0.354   5.234   5.053
 2096SOL    HW1 6632   0.333   5.190   4.966
 2096SOL    HW2 6633   0.451   5.260   5.056
 2097SOL     OW 6634   0.402   4.475   5.322
 2097SOL    HW1 6635   0.470   4.530   5.275
 2097SOL    HW2 6636   0.442   4.387   5.349
 2098SOL     OW 6637   1.587   4.503   5.394
 2098SOL    HW1 6638   1.495   4.541   5.389
 2098SOL    HW2 6639   1.647   4.550   5.329
 2099SOL     OW 6640   1.013   3.829   5.494
 2099SOL    HW1 6641   1.019   3.914   5.442
 2099SOL    HW2 6642   1.045   3.753   5.437
 2100SOL     OW 6643   0.504   3.774   5.464
 2100SOL    HW1 6644   0.462   3.717   5.394
 2100SOL    HW2 6645   0.438   3.843   5.496
 2101SOL     OW 6646   0.573   4.594   4.753
 2101SOL    HW1 6647   0.617   4.683   4.744
 2101SOL    HW2 6648   0.510   4.594   4.830
 2102SOL     OW 6649   1.360   4.586   4.769
 2102SOL    HW1 6650   1.285   4.586   4.703
 2102SOL    HW2 6651   1.397   4.494   4.778
 2103SOL     OW 6652   1.209   4.249   3.999
 2103SOL    HW1 6653   1.222   4.165   4.053
 2103SOL    HW2 6654   1.180   4.323   4.059
 2104SOL     OW 6655   0.307   3.937   4.955
 2104SOL    HW1 6656   0.284   3.974   5.045
 2104SOL    HW2 6657   0.277   3.842   4.949
 2105SOL     OW 6658   0.037   5.034   5.006
 2105SOL    HW1 6659   0.090   4.985   5.074
 2105SOL    HW2 6660   0.059   5.132   5.011
 2106SOL     OW 6661   0.732   4.358   4.788
 2106SOL    HW1 6662   0.791   4.332   4.712
 2106SOL    HW2 6663   0.704   4.454   4.777
 2107SOL     OW 6664   1.728   4.659   5.578
 2107SOL    HW1 6665   1.682   4.652   5.489
 2107SOL    HW2 6666   1.666   4.703   5.644
 2108SOL     OW 6667   0.307   3.787   4.342
 2108SOL    HW1 6668   0.296   3.881   4.375
 2108SOL    HW2 6669   0.302   3.724   4.419
 2109SOL     OW 6670   1.622   4.091   4.098
 2109SOL    HW1 6671   1.624   4.015   4.162
 2109SOL    HW2 6672   1.574   4.168   4.138
 2110SOL     OW 6673   1.023   4.490   4.690
 2110SOL    HW1 6674   1.038   4.511   4.786
 2110SOL    HW2 6675   0.993   4.395   4.681
 2111SOL     OW 6676   0.980   5.297   5.424
 2111SOL    HW1 6677   0.960   5.341   5.336
 2111SOL    HW2 6678   1.019   5.206   5.408
 2112SOL     OW 6679   1.859   5.242   5.329
 2112SOL    HW1 6680   1.873   5.269   5.234
 2112SOL    HW2 6681   1.942   5.264   5.382
 2113SOL     OW 6682   0.350   4.622   5.528
 2113SOL    HW1 6683   0.426   4.666   5.576
 2113SOL    HW2 6684   0.385   4.575   5.446
 2114SOL     OW 6685   1.540   3.998   3.849
 2114SOL    HW1 6686   1.479   3.923   3.872
 2114SOL    HW2 6687   1.562   4.050   3.932
 2115SOL     OW 6688   1.303   4.562   3.766
 2115SOL    HW1 6689   1.337   4.469   3.781
 2115SOL    HW2 6690   1.321   4.589   3.671
 2116SOL     OW 6691   1.068   5.057   4.573
 2116SOL    HW1 6692   1.075   4.973   4.518
 2116SOL    HW2 6693   1.130   5.126   4.537
 2117SOL     OW 6694   0.319   4.534   4.673
 2117SOL    HW1 6695   0.412   4.570   4.678
 2117SOL    HW2 6696   0.313   4.449   4.725
 2118SOL     OW 6697   0.339   4.233   4.730
 2118SOL    HW1 6698   0.287   4.150   4.713
 2118SOL    HW2 6699   0.416   4.238   4.666
 2119SOL     OW 6700   1.138   4.104   5.402
 2119SOL    HW1 6701   1.093   4.167   5.466
 2119SOL    HW2 6702   1.231   4.135   5.385
 2120SOL     OW 6703   1.160   3.931   5.201
 2120SOL    HW1 6704   1.160   3.995   5.278
 2120SOL    HW2 6705   1.188   3.979   5.118
 2121SOL     OW 6706   0.008   5.050   3.924
 2121SOL    HW1 6707  -0.085   5.071   3.893
 2121SOL    HW2 6708   0.018   4.951   3.937
 2122SOL     OW 6709   0.088   5.525   4.651
 2122SOL    HW1 6710   0.046   5.439   4.624
 2122SOL    HW2 6711   0.182   5.528   4.617
 2123SOL     OW 6712   0.504   5.292   4.634
 2123SOL    HW1 6713   0.570   5.366   4.643
 2123SOL    HW2 6714   0.548   5.213   4.592
 2124SOL     OW 6715   1.002   4.520   4.962
 2124SOL    HW1 6716   1.043   4.488   5.048
 2124SOL    HW2 6717   0.906   4.493   4.959
 2125SOL     OW 6718   0.040   4.268   4.838
 2125SOL    HW1 6719   0.125   4.235   4.797
 2125SOL    HW2 6720   0.053   4.283   4.936
 2126SOL     OW 6721   0.189   4.244   5.446
 2126SOL    HW1 6722   0.248   4.204   5.376
 2126SOL    HW2 6723   0.131   4.315   5.405
 2127SOL     OW 6724   1.369   4.674   5.384
 2127SOL    HW1 6725   1.408   4.763   5.404
 2127SOL    HW2 6726   1.379   4.654   5.287
 2128SOL     OW 6727   0.815   4.296   4.049
 2128SOL    HW1 6728   0.822   4.207   4.003
 2128SOL    HW2 6729   0.721   4.330   4.041
 2129SOL     OW 6730   1.657   4.328   4.930
 2129SOL    HW1 6731   1.619   4.259   4.992
 2129SOL    HW2 6732   1.739   4.292   4.886
 2130SOL     OW 6733   0.252   5.288   5.468
 2130SOL    HW1 6734   0.222   5.345   5.544
 2130SOL    HW2 6735   0.245   5.191   5.494
 2131SOL     OW 6736   0.671   4.188   4.993
 2131SOL    HW1 6737   0.637   4.099   4.963
 2131SOL    HW2 6738   0.697   4.242   4.913
 2132SOL     OW 6739   0.930   5.402   5.189
 2132SOL    HW1 6740   0.906   5.384   5.094
 2132SOL    HW2 6741   0.960   5.496   5.199
 2133SOL     OW 6742   0.473   4.224   3.915
 2133SOL    HW1 6743   0.534   4.304   3.919
 2133SOL    HW2 6744   0.378   4.255   3.922
 2134SOL     OW 6745   0.159   4.861   5.190
 2134SOL    HW1 6746   0.181   4.800   5.266
 2134SOL    HW2 6747   0.169   4.812   5.104
 2135SOL     OW 6748   1.347   4.783   4.958
 2135SOL    HW1 6749   1.371   4.720   4.884
 2135SOL    HW2 6750   1.257   4.823   4.940
 2136SOL     OW 6751   1.302   4.579   4.033
 2136SOL    HW1 6752   1.216   4.548   4.075
 2136SOL    HW2 6753   1.298   4.565   3.934
 2137SOL     OW 6754   1.759   5.471   4.878
 2137SOL    HW1 6755   1.820   5.501   4.805
 2137SOL    HW2 6756   1.721   5.382   4.856
 2138SOL     OW 6757   1.252   5.455   4.852
 2138SOL    HW1 6758   1.336   5.460   4.798
 2138SOL    HW2 6759   1.229   5.359   4.870
 2139SOL     OW 6760   0.083   4.982   4.746
 2139SOL    HW1 6761   0.078   4.981   4.846
 2139SOL    HW2 6762   0.000   4.941   4.708
 2140SOL     OW 6763   0.688   5.386   5.440
 2140SOL    HW1 6764   0.632   5.467   5.449
 2140SOL    HW2 6765   0.740   5.390   5.354
 2141SOL     OW 6766   1.726   3.859   4.247
 2141SOL    HW1 6767   1.799   3.842   4.180
 2141SOL    HW2 6768   1.695   3.772   4.285
 2142SOL     OW 6769   1.388   5.297   4.201
 2142SOL    HW1 6770   1.455   5.309   4.127
 2142SOL    HW2 6771   1.348   5.386   4.224
 2143SOL     OW 6772   0.130   5.518   5.575
 2143SOL    HW1 6773   0.089   5.444   5.628
 2143SOL    HW2 6774   0.194   5.569   5.633
 2144SOL     OW 6775   1.280   4.651   4.396
 2144SOL    HW1 6776   1.340   4.570   4.398
 2144SOL    HW2 6777   1.320   4.720   4.336
 2145SOL     OW 6778   0.830   4.997   5.146
 2145SOL    HW1 6779   0.825   5.030   5.241
 2145SOL    HW2 6780   0.744   5.016   5.100
 2146SOL     OW 6781   0.672   5.340   3.878
 2146SOL    HW1 6782   0.681   5.350   3.779
 2146SOL    HW2 6783   0.632   5.251   3.899
 2147SOL     OW 6784   1.650   5.444   5.118
 2147SOL    HW1 6785   1.703   5.454   5.034
 2147SOL    HW2 6786   1.623   5.534   5.152
 2148SOL     OW 6787   1.841   3.899   4.687
 2148SOL    HW1 6788   1.880   3.814   4.651
 2148SOL    HW2 6789   1.743   3.901   4.668
 2149SOL     OW 6790   0.263   4.050   4.444
 2149SOL    HW1 6791   0.184   4.101   4.410
 2149SOL    HW2 6792   0.254   4.035   4.542
 2150SOL     OW 6793   1.194   5.336   3.755
 2150SOL    HW1 6794   1.200   5.243   3.792
 2150SOL    HW2 6795   1.135   5.336   3.675
 2151SOL     OW 6796   0.822   4.726   5.096
 2151SOL    HW1 6797   0.862   4.725   5.004
 2151SOL    HW2 6798   0.832   4.818   5.136
 2152SOL     OW 6799   0.916   4.634   4.015
 2152SOL    HW1 6800   0.979   4.672   3.947
 2152SOL    HW2 6801   0.956   4.551   4.054
 2153SOL     OW 6802   1.504   5.331   3.768
 2153SOL    HW1 6803   1.412   5.368   3.775
 2153SOL    HW2 6804   1.542   5.351   3.678
 2154SOL     OW 6805   0.372   5.012   5.214
 2154SOL    HW1 6806   0.359   5.105   5.180
 2154SOL    HW2 6807   0.288   4.960   5.201
 2155SOL     OW 6808   1.614   5.016   5.013
 2155SOL    HW1 6809   1.674   5.019   5.093
 2155SOL    HW2 6810   1.539   5.080   5.026
 2156SOL     OW 6811   1.039   4.822   4.420
 2156SOL    HW1 6812   0.969   4.775   4.474
 2156SOL    HW2 6813   1.098   4.754   4.377
 2157SOL     OW 6814   1.014   3.960   4.695
 2157SOL    HW1 6815   1.006   3.924   4.602
 2157SOL    HW2 6816   1.012   3.884   4.760
 2158SOL     OW 6817   0.590   5.211   4.215
 2158SOL    HW1 6818   0.632   5.153   4.145
 2158SOL    HW2 6819   0.546   5.290   4.171
 2159SOL     OW 6820   1.709   4.109   5.105
 2159SOL    HW1 6821   1.782   4.178   5.109
 2159SOL    HW2 6822   1.737   4.034   5.046
 2160SOL     OW 6823   0.255   5.072   4.014
 2160SOL    HW1 6824   0.159   5.073   3.987
 2160SOL    HW2 6825   0.267   5.125   4.098
 2161SOL     OW 6826   0.105   4.737   5.450
 2161SOL    HW1 6827   0.028   4.704   5.504
 2161SOL    HW2 6828   0.190   4.707   5.492
 2162SOL     OW 6829   0.672   3.927   5.213
 2162SOL    HW1 6830   0.762   3.911   5.173
 2162SOL    HW2 6831   0.680   3.932   5.312
 2163SOL     OW 6832   0.075   4.069   3.757
 2163SOL    HW1 6833  -0.017   4.041   3.728
 2163SOL    HW2 6834   0.106   4.146   3.701
 2164SOL     OW 6835   1.440   4.580   5.122
 2164SOL    HW1 6836   1.383   4.632   5.059
 2164SOL    HW2 6837   1.536   4.592   5.098
 2165SOL     OW 6838   0.072   3.890   4.042
 2165SOL    HW1 6839   0.055   3.973   3.988
 2165SOL    HW2 6840   0.162   3.853   4.020
 2166SOL     OW 6841   1.183   5.059   3.843
 2166SOL    HW1 6842   1.084   5.048   3.845
 2166SOL    HW2 6843   1.217   5.074   3.936
 2167SOL     OW 6844   0.613   4.566   5.155
 2167SOL    HW1 6845   0.669   4.647   5.138
 2167SOL    HW2 6846   0.672   4.486   5.158
 2168SOL     OW 6847   1.493   5.491   4.683
 2168SOL    HW1 6848   1.526   5.555   4.614
 2168SOL    HW2 6849   1.559   5.485   4.758
 2169SOL     OW 6850   0.716   4.289   5.432
 2169SOL    HW1 6851   0.735   4.354   5.506
 2169SOL    HW2 6852   0.776   4.209   5.441
 2170SOL     OW 6853   1.450   4.944   5.357
 2170SOL    HW1 6854   1.441   4.934   5.456
 2170SOL    HW2 6855   1.546   4.937   5.331
 2171SOL     OW 6856   0.390   5.465   5.284
 2171SOL    HW1 6857   0.299   5.506   5.282
 2171SOL    HW2 6858   0.383   5.371   5.316
 2172SOL     OW 6859   1.674   4.607   4.978
 2172SOL    HW1 6860   1.647   4.518   4.941
 2172SOL    HW2 6861   1.675   4.675   4.905
 2173SOL     OW 6862   1.225   4.049   4.173
 2173SOL    HW1 6863   1.290   3.975   4.162
 2173SOL    HW2 6864   1.245   4.099   4.257
 2174SOL     OW 6865   0.594   4.469   4.376
 2174SOL    HW1 6866   0.644   4.554   4.357
 2174SOL    HW2 6867   0.506   4.471   4.328
 2175SOL     OW 6868   1.777   4.066   5.366
 2175SOL    HW1 6869   1.760   4.097   5.272
 2175SOL    HW2 6870   1.693   4.029   5.404
 2176SOL     OW 6871   1.730   4.658   5.241
 2176SOL    HW1 6872   1.768   4.749   5.256
 2176SOL    HW2 6873   1.722   4.641   5.142
 2177SOL     OW 6874   0.859   5.098   3.740
 2177SOL    HW1 6875   0.813   5.113   3.828
 2177SOL    HW2 6876   0.903   5.183   3.710
 2178SOL     OW 6877   0.661   5.514   4.677
 2178SOL    HW1 6878   0.615   5.602   4.664
 2178SOL    HW2 6879   0.760   5.526   4.670
 2179SOL     OW 6880   0.859   4.680   4.585
 2179SOL    HW1 6881   0.913   4.611   4.633
 2179SOL    HW2 6882   0.827   4.749   4.651
 2180SOL     OW 6883   1.083   4.708   3.811
 2180SOL    HW1 6884   1.060   4.761   3.729
 2180SOL    HW2 6885   1.164   4.652   3.792
 2181SOL     OW 6886   1.861   5.293   4.575
 2181SOL    HW1 6887   1.790   5.281   4.505
 2181SOL    HW2 6888   1.862   5.214   4.635
 2182SOL     OW 6889   0.221   5.038   5.568
 2182SOL    HW1 6890   0.156   4.965   5.547
 2182SOL    HW2 6891   0.225   5.052   5.666
 2183SOL     OW 6892   0.079   4.964   4.377
 2183SOL    HW1 6893   0.078   4.917   4.465
 2183SOL    HW2 6894   0.161   4.936   4.326
 2184SOL     OW 6895   0.672   5.115   5.348
 2184SOL    HW1 6896   0.594   5.065   5.386
 2184SOL    HW2 6897   0.669   5.210   5.379
 2185SOL     OW 6898   1.824   3.916   4.951
 2185SOL    HW1 6899   1.820   3.826   4.995
 2185SOL    HW2 6900   1.827   3.905   4.852
 2186SOL     OW 6901   0.428   4.148   4.244
 2186SOL    HW1 6902   0.458   4.076   4.182
 2186SOL    HW2 6903   0.389   4.108   4.327
 2187SOL     OW 6904   1.705   5.211   4.828
 2187SOL    HW1 6905   1.612   5.186   4.801
 2187SOL    HW2 6906   1.731   5.161   4.910
 2188SOL     OW 6907   0.317   4.271   5.004
 2188SOL    HW1 6908   0.355   4.212   5.076
 2188SOL    HW2 6909   0.357   4.245   4.916
 2189SOL     OW 6910   0.812   5.310   4.411
 2189SOL    HW1 6911   0.844   5.320   4.317
 2189SOL    HW2 6912   0.733   5.248   4.413
 2190SOL     OW 6913   1.424   3.938   4.836
 2190SOL    HW1 6914   1.476   3.873   4.891
 2190SOL    HW2 6915   1.375   4.001   4.897
 2191SOL     OW 6916   1.001   3.758   4.878
 2191SOL    HW1 6917   0.938   3.686   4.847
 2191SOL    HW2 6918   1.094   3.722   4.878
 2192SOL     OW 6919   0.770   5.054   4.025
 2192SOL    HW1 6920   0.724   4.967   4.042
 2192SOL    HW2 6921   0.861   5.051   4.066
 2193SOL     OW 6922   0.618   5.291   5.008
 2193SOL    HW1 6923   0.613   5.373   5.065
 2193SOL    HW2 6924   0.707   5.288   4.963
 2194SOL     OW 6925   1.352   3.776   3.892
 2194SOL    HW1 6926   1.387   3.735   3.808
 2194SOL    HW2 6927   1.262   3.738   3.912
 2195SOL     OW 6928   1.300   4.177   4.415
 2195SOL    HW1 6929   1.241   4.257   4.419
 2195SOL    HW2 6930   1.315   4.142   4.508
 2196SOL     OW 6931   1.593   3.945   4.606
 2196SOL    HW1 6932   1.509   3.944   4.660
 2196SOL    HW2 6933   1.595   4.028   4.550
 2197SOL     OW 6934   0.039   4.801   4.024
 2197SOL    HW1 6935   0.138   4.790   4.015
 2197SOL    HW2 6936  -0.001   4.715   4.056
 2198SOL     OW 6937   0.875   5.370   4.061
 2198SOL    HW1 6938   0.798   5.335   4.007
 2198SOL    HW2 6939   0.843   5.441   4.123
 2199SOL     OW 6940   0.230   4.352   5.699
 2199SOL    HW1 6941   0.137   4.350   5.736
 2199SOL    HW2 6942   0.231   4.313   5.607
 2200SOL     OW 6943   0.225   3.999   6.582
 2200SOL    HW1 6944   0.260   3.982   6.674
 2200SOL    HW2 6945   0.137   3.954   6.570
 2201SOL     OW 6946   0.019   4.092   6.233
 2201SOL    HW1 6947  -0.063   4.135   6.272
 2201SOL    HW2 6948  -0.009   4.019   6.170
 2202SOL     OW 6949   0.569   4.999   6.751
 2202SOL    HW1 6950   0.476   4.992   6.714
 2202SOL    HW2 6951   0.580   5.088   6.795
 2203SOL     OW 6952   1.555   5.235   6.289
 2203SOL    HW1 6953   1.498   5.219   6.370
 2203SOL    HW2 6954   1.496   5.245   6.209
 2204SOL     OW 6955   1.135   4.427   6.303
 2204SOL    HW1 6956   1.192   4.505   6.278
 2204SOL    HW2 6957   1.075   4.453   6.379
 2205SOL     OW 6958   1.755   4.331   5.817
 2205SOL    HW1 6959   1.743   4.318   5.718
 2205SOL    HW2 6960   1.725   4.250   5.866
 2206SOL     OW 6961   0.768   4.868   6.609
 2206SOL    HW1 6962   0.690   4.885   6.669
 2206SOL    HW2 6963   0.802   4.955   6.573
 2207SOL     OW 6964   0.685   4.736   6.251
 2207SOL    HW1 6965   0.754   4.720   6.321
 2207SOL    HW2 6966   0.612   4.793   6.289
 2208SOL     OW 6967   0.335   5.159   6.647
 2208SOL    HW1 6968   0.257   5.128   6.594
 2208SOL    HW2 6969   0.393   5.217   6.590
 2209SOL     OW 6970   1.603   4.171   6.323
 2209SOL    HW1 6971   1.529   4.217   6.273
 2209SOL    HW2 6972   1.654   4.239   6.376
 2210SOL     OW 6973   0.231   5.437   6.069
 2210SOL    HW1 6974   0.265   5.514   6.123
 2210SOL    HW2 6975   0.275   5.437   5.979
 2211SOL     OW 6976   0.230   5.158   6.124
 2211SOL    HW1 6977   0.204   5.254   6.124
 2211SOL    HW2 6978   0.159   5.104   6.169
 2212SOL     OW 6979   0.240   4.815   6.472
 2212SOL    HW1 6980   0.254   4.731   6.524
 2212SOL    HW2 6981   0.185   4.879   6.527
 2213SOL     OW 6982   0.606   4.688   5.709
 2213SOL    HW1 6983   0.613   4.772   5.655
 2213SOL    HW2 6984   0.652   4.701   5.797
 2214SOL     OW 6985   0.122   4.367   6.149
 2214SOL    HW1 6986   0.077   4.279   6.166
 2214SOL    HW2 6987   0.121   4.421   6.233
 2215SOL     OW 6988   1.842   5.491   5.945
 2215SOL    HW1 6989   1.896   5.462   6.025
 2215SOL    HW2 6990   1.872   5.581   5.916
 2216SOL     OW 6991   0.027   5.320   5.703
 2216SOL    HW1 6992   0.008   5.224   5.724
 2216SOL    HW2 6993  -0.006   5.378   5.778
 2217SOL     OW 6994   1.689   4.646   6.198
 2217SOL    HW1 6995   1.784   4.617   6.206
 2217SOL    HW2 6996   1.681   4.711   6.123
 2218SOL     OW 6997   1.641   4.832   6.018
 2218SOL    HW1 6998   1.727   4.834   5.966
 2218SOL    HW2 6999   1.655   4.879   6.106
 2219SOL     OW 7000   0.613   5.089   6.312
 2219SOL    HW1 7001   0.564   5.002   6.321
 2219SOL    HW2 7002   0.590   5.132   6.225
 2220SOL     OW 7003   0.809   3.728   6.088
 2220SOL    HW1 7004   0.849   3.819   6.079
 2220SOL    HW2 7005   0.709   3.736   6.094
 2221SOL     OW 7006   1.525   4.723   5.776
 2221SOL    HW1 7007   1.462   4.647   5.789
 2221SOL    HW2 7008   1.573   4.741   5.862
 2222SOL     OW 7009   1.466   5.141   6.539
 2222SOL    HW1 7010   1.407   5.147   6.619
 2222SOL    HW2 7011   1.451   5.053   6.493
 2223SOL     OW 7012   1.667   5.438   6.158
 2223SOL    HW1 7013   1.626   5.415   6.070
 2223SOL    HW2 7014   1.649   5.364   6.223
 2224SOL     OW 7015   0.598   4.453   5.856
 2224SOL    HW1 7016   0.622   4.522   5.788
 2224SOL    HW2 7017   0.520   4.486   5.910
 2225SOL     OW 7018   1.281   4.069   6.530
 2225SOL    HW1 7019   1.195   4.019   6.517
 2225SOL    HW2 7020   1.343   4.015   6.586
 2226SOL     OW 7021   1.576   5.386   5.893
 2226SOL    HW1 7022   1.665   5.432   5.896
 2226SOL    HW2 7023   1.555   5.362   5.798
 2227SOL     OW 7024   0.991   4.134   6.828
 2227SOL    HW1 7025   0.914   4.168   6.882
 2227SOL    HW2 7026   0.957   4.083   6.749
 2228SOL     OW 7027   1.041   4.425   6.015
 2228SOL    HW1 7028   1.067   4.421   6.111
 2228SOL    HW2 7029   0.956   4.374   6.001
 2229SOL     OW 7030   0.076   4.535   6.375
 2229SOL    HW1 7031   0.175   4.523   6.384
 2229SOL    HW2 7032   0.052   4.630   6.396
 2230SOL     OW 7033   0.865   4.072   5.781
 2230SOL    HW1 7034   0.924   4.135   5.732
 2230SOL    HW2 7035   0.884   3.978   5.752
 2231SOL     OW 7036   1.362   4.868   6.131
 2231SOL    HW1 7037   1.445   4.839   6.083
 2231SOL    HW2 7038   1.313   4.935   6.075
 2232SOL     OW 7039   0.550   3.920   6.471
 2232SOL    HW1 7040   0.545   3.915   6.571
 2232SOL    HW2 7041   0.552   4.016   6.442
 2233SOL     OW 7042   1.008   5.180   6.063
 2233SOL    HW1 7043   0.962   5.252   6.011
 2233SOL    HW2 7044   1.004   5.200   6.161
 2234SOL     OW 7045   0.351   5.525   6.439
 2234SOL    HW1 7046   0.401   5.439   6.445
 2234SOL    HW2 7047   0.416   5.602   6.436
 2235SOL     OW 7048   1.795   4.790   6.459
 2235SOL    HW1 7049   1.733   4.775   6.383
 2235SOL    HW2 7050   1.743   4.801   6.544
 2236SOL     OW 7051   0.321   4.667   5.828
 2236SOL    HW1 7052   0.403   4.706   5.786
 2236SOL    HW2 7053   0.294   4.585   5.779
 2237SOL     OW 7054   1.458   4.459   6.314
 2237SOL    HW1 7055   1.453   4.394   6.389
 2237SOL    HW2 7056   1.538   4.518   6.327
 2238SOL     OW 7057   1.111   5.500   5.823
 2238SOL    HW1 7058   1.051   5.438   5.873
 2238SOL    HW2 7059   1.142   5.456   5.738
 2239SOL     OW 7060   1.632   5.101   5.667
 2239SOL    HW1 7061   1.600   5.195   5.657
 2239SOL    HW2 7062   1.556   5.038   5.655
 2240SOL     OW 7063   0.464   5.467   5.909
 2240SOL    HW1 7064   0.497   5.506   5.995
 2240SOL    HW2 7065   0.540   5.460   5.844
 2241SOL     OW 7066   1.400   3.831   6.012
 2241SOL    HW1 7067   1.376   3.794   5.922
 2241SOL    HW2 7068   1.499   3.847   6.016
 2242SOL     OW 7069   0.249   5.509   6.827
 2242SOL    HW1 7070   0.306   5.444   6.877
 2242SOL    HW2 7071   0.233   5.476   6.734
 2243SOL     OW 7072   0.940   5.422   6.490
 2243SOL    HW1 7073   1.020   5.365   6.511
 2243SOL    HW2 7074   0.891   5.382   6.413
 2244SOL     OW 7075   0.382   4.424   6.066
 2244SOL    HW1 7076   0.427   4.334   6.063
 2244SOL    HW2 7077   0.288   4.413   6.099
 2245SOL     OW 7078   0.614   3.846   5.703
 2245SOL    HW1 7079   0.712   3.824   5.710
 2245SOL    HW2 7080   0.583   3.829   5.610
 2246SOL     OW 7081   0.888   5.238   6.781
 2246SOL    HW1 7082   0.865   5.213   6.687
 2246SOL    HW2 7083   0.949   5.169   6.820
 2247SOL     OW 7084   0.803   5.126   6.510
 2247SOL    HW1 7085   0.893   5.140   6.468
 2247SOL    HW2 7086   0.732   5.128   6.439
 2248SOL     OW 7087   0.922   4.227   6.485
 2248SOL    HW1 7088   0.897   4.218   6.389
 2248SOL    HW2 7089   0.970   4.145   6.516
 2249SOL     OW 7090   0.539   3.788   6.098
 2249SOL    HW1 7091   0.458   3.789   6.156
 2249SOL    HW2 7092   0.542   3.871   6.043
 2250SOL     OW 7093   1.434   4.912   5.627
 2250SOL    HW1 7094   1.466   4.836   5.684
 2250SOL    HW2 7095   1.342   4.939   5.657
 2251SOL     OW 7096   0.297   3.759   5.757
 2251SOL    HW1 7097   0.346   3.843   5.736
 2251SOL    HW2 7098   0.359   3.694   5.802
 2252SOL     OW 7099   0.935   3.960   6.066
 2252SOL    HW1 7100   0.887   4.001   5.988
 2252SOL    HW2 7101   1.034   3.958   6.047
 2253SOL     OW 7102   0.459   4.876   6.327
 2253SOL    HW1 7103   0.388   4.849   6.392
 2253SOL    HW2 7104   0.433   4.848   6.234
 2254SOL     OW 7105   1.271   5.521   6.177
 2254SOL    HW1 7106   1.315   5.585   6.113
 2254SOL    HW2 7107   1.221   5.573   6.247
 2255SOL     OW 7108   1.032   4.273   5.602
 2255SOL    HW1 7109   0.991   4.355   5.563
 2255SOL    HW2 7110   1.096   4.299   5.675
 2256SOL     OW 7111   0.561   3.946   6.733
 2256SOL    HW1 7112   0.599   3.862   6.770
 2256SOL    HW2 7113   0.473   3.965   6.777
 2257SOL     OW 7114   0.866   4.178   6.228
 2257SOL    HW1 7115   0.834   4.250   6.166
 2257SOL    HW2 7116   0.890   4.097   6.175
 2258SOL     OW 7117   1.017   3.763   6.339
 2258SOL    HW1 7118   0.945   3.768   6.270
 2258SOL    HW2 7119   0.993   3.694   6.408
 2259SOL     OW 7120   1.429   4.897   6.453
 2259SOL    HW1 7121   1.374   4.813   6.446
 2259SOL    HW2 7122   1.455   4.926   6.361
 2260SOL     OW 7123   1.466   4.314   6.578
 2260SOL    HW1 7124   1.436   4.219   6.585
 2260SOL    HW2 7125   1.539   4.330   6.644
 2261SOL     OW 7126   1.857   4.557   5.963
 2261SOL    HW1 7127   1.899   4.493   6.027
 2261SOL    HW2 7128   1.819   4.506   5.885
 2262SOL     OW 7129   0.488   5.109   5.760
 2262SOL    HW1 7130   0.401   5.094   5.807
 2262SOL    HW2 7131   0.471   5.135   5.665
 2263SOL     OW 7132   1.664   5.004   6.243
 2263SOL    HW1 7133   1.763   5.012   6.257
 2263SOL    HW2 7134   1.619   5.088   6.274
 2264SOL     OW 7135   1.390   4.299   5.664
 2264SOL    HW1 7136   1.336   4.278   5.745
 2264SOL    HW2 7137   1.481   4.258   5.673
 2265SOL     OW 7138   0.527   3.980   5.914
 2265SOL    HW1 7139   0.554   3.921   5.839
 2265SOL    HW2 7140   0.527   4.075   5.883
 2266SOL     OW 7141   1.111   4.919   6.686
 2266SOL    HW1 7142   1.071   4.963   6.767
 2266SOL    HW2 7143   1.070   4.956   6.603
 2267SOL     OW 7144   1.638   4.823   6.665
 2267SOL    HW1 7145   1.643   4.904   6.724
 2267SOL    HW2 7146   1.552   4.825   6.614
 2268SOL     OW 7147   0.705   4.774   5.954
 2268SOL    HW1 7148   0.691   4.781   6.053
 2268SOL    HW2 7149   0.789   4.723   5.936
 2269SOL     OW 7150   0.367   4.824   6.087
 2269SOL    HW1 7151   0.360   4.907   6.031
 2269SOL    HW2 7152   0.371   4.744   6.027
 2270SOL     OW 7153   0.566   4.261   6.451
 2270SOL    HW1 7154   0.578   4.327   6.377
 2270SOL    HW2 7155   0.612   4.295   6.534
 2271SOL     OW 7156   1.252   5.072   5.974
 2271SOL    HW1 7157   1.302   5.149   6.014
 2271SOL    HW2 7158   1.157   5.074   6.006
 2272SOL     OW 7159   1.272   5.169   6.728
 2272SOL    HW1 7160   1.319   5.182   6.815
 2272SOL    HW2 7161   1.206   5.095   6.737
 2273SOL     OW 7162   1.582   4.363   6.058
 2273SOL    HW1 7163   1.551   4.424   6.131
 2273SOL    HW2 7164   1.632   4.415   5.989
 2274SOL     OW 7165   0.573   4.594   6.615
 2274SOL    HW1 7166   0.617   4.683   6.606
 2274SOL    HW2 7167   0.510   4.594   6.692
 2275SOL     OW 7168   1.360   4.586   6.631
 2275SOL    HW1 7169   1.285   4.586   6.565
 2275SOL    HW2 7170   1.397   4.494   6.640
 2276SOL     OW 7171   1.209   4.249   5.861
 2276SOL    HW1 7172   1.222   4.165   5.915
 2276SOL    HW2 7173   1.180   4.323   5.921
 2277SOL     OW 7174   0.732   4.358   6.650
 2277SOL    HW1 7175   0.791   4.332   6.574
 2277SOL    HW2 7176   0.704   4.454   6.639
 2278SOL     OW 7177   0.307   3.787   6.204
 2278SOL    HW1 7178   0.296   3.881   6.237
 2278SOL    HW2 7179   0.302   3.724   6.281
 2279SOL     OW 7180   1.622   4.091   5.960
 2279SOL    HW1 7181   1.624   4.015   6.024
 2279SOL    HW2 7182   1.574   4.168   6.000
 2280SOL     OW 7183   1.023   4.490   6.552
 2280SOL    HW1 7184   1.038   4.511   6.648
 2280SOL    HW2 7185   0.993   4.395   6.543
 2281SOL     OW 7186   1.540   3.998   5.711
 2281SOL    HW1 7187   1.479   3.923   5.734
 2281SOL    HW2 7188   1.562   4.050   5.794
 2282SOL     OW 7189   1.303   4.562   5.628
 2282SOL    HW1 7190   1.337   4.469   5.643
 2282SOL    HW2 7191   1.321   4.589   5.533
 2283SOL     OW 7192   1.068   5.057   6.435
 2283SOL    HW1 7193   1.075   4.973   6.380
 2283SOL    HW2 7194   1.130   5.126   6.399
 2284SOL     OW 7195   0.319   4.534   6.535
 2284SOL    HW1 7196   0.412   4.570   6.540
 2284SOL    HW2 7197   0.313   4.449   6.587
 2285SOL     OW 7198   0.339   4.233   6.592
 2285SOL    HW1 7199   0.287   4.150   6.575
 2285SOL    HW2 7200   0.416   4.238   6.528
 2286SOL     OW 7201   0.008   5.050   5.786
 2286SOL    HW1 7202  -0.085   5.071   5.755
 2286SOL    HW2 7203   0.018   4.951   5.799
 2287SOL     OW 7204   0.088   5.525   6.513
 2287SOL    HW1 7205   0.046   5.439   6.486
 2287SOL    HW2 7206   0.182   5.528   6.479
 2288SOL     OW 7207   0.504   5.292   6.496
 2288SOL    HW1 7208   0.570   5.366   6.505
 2288SOL    HW2 7209   0.548   5.213   6.454
 2289SOL     OW 7210   0.040   4.268   6.700
 2289SOL    HW1 7211   0.125   4.235   6.659
 2289SOL    HW2 7212   0.053   4.283   6.798
 2290SOL     OW 7213   0.815   4.296   5.911
 2290SOL    HW1 7214   0.822   4.207   5.865
 2290SOL    HW2 7215   0.721   4.330   5.903
 2291SOL     OW 7216   1.657   4.328   6.792
 2291SOL    HW1 7217   1.619   4.259   6.854
 2291SOL    HW2 7218   1.739   4.292   6.748
 2292SOL     OW 7219   0.671   4.188   6.855
 2292SOL    HW1 7220   0.637   4.099   6.825
 2292SOL    HW2 7221   0.697   4.242   6.775
 2293SOL     OW 7222   0.473   4.224   5.777
 2293SOL    HW1 7223   0.534   4.304   5.781
 2293SOL    HW2 7224   0.378   4.255   5.784
 2294SOL     OW 7225   1.347   4.783   6.820
 2294SOL    HW1 7226   1.371   4.720   6.746
 2294SOL    HW2 7227   1.257   4.823   6.802
 2295SOL     OW 7228   1.302   4.579   5.895
 2295SOL    HW1 7229   1.216   4.548   5.937
 2295SOL    HW2 7230   1.298   4.565   5.796
 2296SOL     OW 7231   1.759   5.471   6.740
 2296SOL    HW1 7232   1.820   5.501   6.667
 2296SOL    HW2 7233   1.721   5.382   6.718
 2297SOL     OW 7234   1.252   5.455   6.714
 2297SOL    HW1 7235   1.336   5.460   6.660
 2297SOL    HW2 7236   1.229   5.359   6.732
 2298SOL     OW 7237   0.083   4.982   6.608
 2298SOL    HW1 7238   0.078   4.981   6.708
 2298SOL    HW2 7239   0.000   4.941   6.570
 2299SOL     OW 7240   1.726   3.859   6.109
 2299SOL    HW1 7241   1.799   3.842   6.042
 2299SOL    HW2 7242   1.695   3.772   6.147
 2300SOL     OW 7243   1.388   5.297   6.063
 2300SOL    HW1 7244   1.455   5.309   5.989
 2300SOL    HW2 7245   1.348   5.386   6.086
 2301SOL     OW 7246   1.280   4.651   6.258
 2301SOL    HW1 7247   1.340   4.570   6.260
 2301SOL    HW2 7248   1.320   4.720   6.198
 2302SOL     OW 7249   0.672   5.340   5.740
 2302SOL    HW1 7250   0.681   5.350   5.641
 2302SOL    HW2 7251   0.632   5.251   5.761
 2303SOL     OW 7252   1.841   3.899   6.549
 2303SOL    HW1 7253   1.880   3.814   6.513
 2303SOL    HW2 7254   1.743   3.901   6.530
 2304SOL     OW 7255   0.263   4.050   6.306
 2304SOL    HW1 7256   0.184   4.101   6.272
 2304SOL    HW2 7257   0.254   4.035   6.404
 2305SOL     OW 7258   1.194   5.336   5.617
 2305SOL    HW1 7259   1.200   5.243   5.654
 2305SOL    HW2 7260   1.135   5.336   5.537
 2306SOL     OW 7261   0.916   4.634   5.877
 2306SOL    HW1 7262   0.979   4.672   5.809
 2306SOL    HW2 7263   0.956   4.551   5.916
 2307SOL     OW 7264   1.504   5.331   5.630
 2307SOL    HW1 7265   1.412   5.368   5.637
 2307SOL    HW2 7266   1.542   5.351   5.540
 2308SOL     OW 7267   1.039   4.822   6.282
 2308SOL    HW1 7268   0.969   4.775   6.336
 2308SOL    HW2 7269   1.098   4.754   6.239
 2309SOL     OW 7270   1.014   3.960   6.557
 2309SOL    HW1 7271   1.006   3.924   6.464
 2309SOL    HW2 7272   1.012   3.884   6.622
 2310SOL     OW 7273   0.590   5.211   6.077
 2310SOL    HW1 7274   0.632   5.153   6.007
 2310SOL    HW2 7275   0.546   5.290   6.033
 2311SOL     OW 7276   0.255   5.072   5.876
 2311SOL    HW1 7277   0.159   5.073   5.849
 2311SOL    HW2 7278   0.267   5.125   5.960
 2312SOL     OW 7279   0.075   4.069   5.619
 2312SOL    HW1 7280  -0.017   4.041   5.590
 2312SOL    HW2 7281   0.106   4.146   5.563
 2313SOL     OW 7282   0.072   3.890   5.904
 2313SOL    HW1 7283   0.055   3.973   5.850
 2313SOL    HW2 7284   0.162   3.853   5.882
 2314SOL     OW 7285   1.183   5.059   5.705
 2314SOL    HW1 7286   1.084   5.048   5.707
 2314SOL    HW2 7287   1.217   5.074   5.798
 2315SOL     OW 7288   1.493   5.491   6.545
 2315SOL    HW1 7289   1.526   5.555   6.476
 2315SOL    HW2 7290   1.559   5.485   6.620
 2316SOL     OW 7291   1.674   4.607   6.840
 2316SOL    HW1 7292   1.647   4.518   6.803
 2316SOL    HW2 7293   1.675   4.675   6.767
 2317SOL     OW 7294   1.225   4.049   6.035
 2317SOL    HW1 7295   1.290   3.975   6.024
 2317SOL    HW2 7296   1.245   4.099   6.119
 2318SOL     OW 7297   0.594   4.469   6.238
 2318SOL    HW1 7298   0.644   4.554   6.219
 2318SOL    HW2 7299   0.506   4.471   6.190
 2319SOL     OW 7300   0.859   5.098   5.602
 2319SOL    HW1 7301   0.813   5.113   5.690
 2319SOL    HW2 7302   0.903   5.183   5.572
 2320SOL     OW 7303   0.661   5.514   6.539
 2320SOL    HW1 7304   0.615   5.602   6.526
 2320SOL    HW2 7305   0.760   5.526   6.532
 2321SOL     OW 7306   0.859   4.680   6.447
 2321SOL    HW1 7307   0.913   4.611   6.495
 2321SOL    HW2 7308   0.827   4.749   6.513
 2322SOL     OW 7309   1.083   4.708   5.673
 2322SOL    HW1 7310   1.060   4.761   5.591
 2322SOL    HW2 7311   1.164   4.652   5.654
 2323SOL     OW 7312   1.861   5.293   6.437
 2323SOL    HW1 7313   1.790   5.281   6.367
 2323SOL    HW2 7314   1.862   5.214   6.497
 2324SOL     OW 7315   0.079   4.964   6.239
 2324SOL    HW1 7316   0.078   4.917   6.327
 2324SOL    HW2 7317   0.161   4.936   6.188
 2325SOL     OW 7318   1.824   3.916   6.813
 2325SOL    HW1 7319   1.820   3.826   6.857
 2325SOL    HW2 7320   1.827   3.905   6.714
 2326SOL     OW 7321   0.428   4.148   6.106
 2326SOL    HW1 7322   0.458   4.076   6.044
 2326SOL    HW2 7323   0.389   4.108   6.189
 2327SOL     OW 7324   1.705   5.211   6.690
 2327SOL    HW1 7325   1.612   5.186   6.663
 2327SOL    HW2 7326   1.731   5.161   6.772
 2328SOL     OW 7327   0.317   4.271   6.866
 2328SOL    HW1 7328   0.355   4.212   6.938
 2328SOL    HW2 7329   0.357   4.245   6.778
 2329SOL     OW 7330   0.812   5.310   6.273
 2329SOL    HW1 7331   0.844   5.320   6.179
 2329SOL    HW2 7332   0.733   5.248   6.275
 2330SOL     OW 7333   1.424   3.938   6.698
 2330SOL    HW1 7334   1.476   3.873   6.753
 2330SOL    HW2 7335   1.375   4.001   6.759
 2331SOL     OW 7336   1.001   3.758   6.740
 2331SOL    HW1 7337   0.938   3.686   6.709
 2331SOL    HW2 7338   1.094   3.722   6.740
 2332SOL     OW 7339   0.770   5.054   5.887
 2332SOL    HW1 7340   0.724   4.967   5.904
 2332SOL    HW2 7341   0.861   5.051   5.928
 2333SOL     OW 7342   1.352   3.776   5.754
 2333SOL    HW1 7343   1.387   3.735   5.670
 2333SOL    HW2 7344   1.262   3.738   5.774
 2334SOL     OW 7345   1.300   4.177   6.277
 2334SOL    HW1 7346   1.241   4.257   6.281
 2334SOL    HW2 7347   1.315   4.142   6.370
 2335SOL     OW 7348   1.593   3.945   6.468
 2335SOL    HW1 7349   1.509   3.944   6.522
 2335SOL    HW2 7350   1.595   4.028   6.412
 2336SOL     OW 7351   0.039   4.801   5.886
 2336SOL    HW1 7352   0.138   4.790   5.877
 2336SOL    HW2 7353  -0.001   4.715   5.918
 2337SOL     OW 7354   0.875   5.370   5.923
 2337SOL    HW1 7355   0.798   5.335   5.869
 2337SOL    HW2 7356   0.843   5.441   5.985
 2338SOL     OW 7357   0.230   6.214   0.113
 2338SOL    HW1 7358   0.137   6.212   0.150
 2338SOL    HW2 7359   0.231   6.175   0.021
 2339SOL     OW 7360   0.225   5.861   0.996
 2339SOL    HW1 7361   0.260   5.844   1.088
 2339SOL    HW2 7362   0.137   5.816   0.984
 2340SOL     OW 7363   0.019   5.954   0.647
 2340SOL    HW1 7364  -0.063   5.997   0.686
 2340SOL    HW2 7365  -0.009   5.881   0.584
 2341SOL     OW 7366   0.569   6.861   1.165
 2341SOL    HW1 7367   0.476   6.854   1.128
 2341SOL    HW2 7368   0.580   6.950   1.209
 2342SOL     OW 7369   1.555   7.097   0.703
 2342SOL    HW1 7370   1.498   7.081   0.784
 2342SOL    HW2 7371   1.496   7.107   0.623
 2343SOL     OW 7372   1.135   6.289   0.717
 2343SOL    HW1 7373   1.192   6.367   0.692
 2343SOL    HW2 7374   1.075   6.315   0.793
 2344SOL     OW 7375   1.755   6.193   0.231
 2344SOL    HW1 7376   1.743   6.180   0.132
 2344SOL    HW2 7377   1.725   6.112   0.280
 2345SOL     OW 7378   0.768   6.730   1.023
 2345SOL    HW1 7379   0.690   6.747   1.083
 2345SOL    HW2 7380   0.802   6.817   0.987
 2346SOL     OW 7381   0.850   6.384   1.823
 2346SOL    HW1 7382   0.846   6.460   1.888
 2346SOL    HW2 7383   0.872   6.420   1.732
 2347SOL     OW 7384   0.685   6.598   0.665
 2347SOL    HW1 7385   0.754   6.582   0.735
 2347SOL    HW2 7386   0.612   6.655   0.703
 2348SOL     OW 7387   0.686   6.747   1.803
 2348SOL    HW1 7388   0.746   6.826   1.817
 2348SOL    HW2 7389   0.600   6.778   1.762
 2349SOL     OW 7390   0.335   7.021   1.061
 2349SOL    HW1 7391   0.257   6.990   1.008
 2349SOL    HW2 7392   0.393   7.079   1.004
 2350SOL     OW 7393   1.460   7.091   1.339
 2350SOL    HW1 7394   1.484   7.185   1.365
 2350SOL    HW2 7395   1.444   7.037   1.421
 2351SOL     OW 7396   0.438   5.978   1.499
 2351SOL    HW1 7397   0.520   5.922   1.508
 2351SOL    HW2 7398   0.357   5.920   1.503
 2352SOL     OW 7399   1.603   6.033   0.737
 2352SOL    HW1 7400   1.529   6.079   0.687
 2352SOL    HW2 7401   1.654   6.101   0.790
 2353SOL     OW 7402   0.231   7.299   0.483
 2353SOL    HW1 7403   0.265   7.376   0.537
 2353SOL    HW2 7404   0.275   7.299   0.393
 2354SOL     OW 7405   1.127   6.927   1.690
 2354SOL    HW1 7406   1.174   6.927   1.778
 2354SOL    HW2 7407   1.079   6.840   1.679
 2355SOL     OW 7408   0.230   7.020   0.538
 2355SOL    HW1 7409   0.204   7.116   0.538
 2355SOL    HW2 7410   0.159   6.966   0.583
 2356SOL     OW 7411   0.240   6.677   0.886
 2356SOL    HW1 7412   0.254   6.593   0.938
 2356SOL    HW2 7413   0.185   6.741   0.941
 2357SOL     OW 7414   0.620   7.372   1.439
 2357SOL    HW1 7415   0.528   7.355   1.474
 2357SOL    HW2 7416   0.648   7.464   1.465
 2358SOL     OW 7417   0.606   6.550   0.123
 2358SOL    HW1 7418   0.613   6.634   0.069
 2358SOL    HW2 7419   0.652   6.563   0.211
 2359SOL     OW 7420   1.594   5.700   1.480
 2359SOL    HW1 7421   1.576   5.767   1.408
 2359SOL    HW2 7422   1.591   5.746   1.569
 2360SOL     OW 7423   0.122   6.229   0.563
 2360SOL    HW1 7424   0.077   6.141   0.580
 2360SOL    HW2 7425   0.121   6.283   0.647
 2361SOL     OW 7426   1.842   7.353   0.359
 2361SOL    HW1 7427   1.896   7.324   0.439
 2361SOL    HW2 7428   1.872   7.443   0.330
 2362SOL     OW 7429   0.027   7.182   0.117
 2362SOL    HW1 7430   0.008   7.086   0.138
 2362SOL    HW2 7431  -0.006   7.240   0.192
 2363SOL     OW 7432   1.689   6.508   0.612
 2363SOL    HW1 7433   1.784   6.479   0.620
 2363SOL    HW2 7434   1.681   6.573   0.537
 2364SOL     OW 7435   1.641   6.694   0.432
 2364SOL    HW1 7436   1.727   6.696   0.380
 2364SOL    HW2 7437   1.655   6.741   0.520
 2365SOL     OW 7438   0.113   6.323   1.597
 2365SOL    HW1 7439   0.201   6.310   1.642
 2365SOL    HW2 7440   0.100   6.420   1.575
 2366SOL     OW 7441   0.613   6.951   0.726
 2366SOL    HW1 7442   0.564   6.864   0.735
 2366SOL    HW2 7443   0.590   6.994   0.639
 2367SOL     OW 7444   1.293   6.814   1.423
 2367SOL    HW1 7445   1.330   6.741   1.365
 2367SOL    HW2 7446   1.345   6.819   1.508
 2368SOL     OW 7447   0.809   5.590   0.502
 2368SOL    HW1 7448   0.849   5.681   0.493
 2368SOL    HW2 7449   0.709   5.598   0.508
 2369SOL     OW 7450   0.197   6.562   1.264
 2369SOL    HW1 7451   0.286   6.517   1.250
 2369SOL    HW2 7452   0.124   6.497   1.245
 2370SOL     OW 7453   1.525   6.585   0.190
 2370SOL    HW1 7454   1.462   6.509   0.203
 2370SOL    HW2 7455   1.573   6.603   0.276
 2371SOL     OW 7456   1.187   7.378   1.616
 2371SOL    HW1 7457   1.211   7.438   1.540
 2371SOL    HW2 7458   1.194   7.283   1.586
 2372SOL     OW 7459   0.317   5.837   1.801
 2372SOL    HW1 7460   0.388   5.908   1.807
 2372SOL    HW2 7461   0.229   5.876   1.829
 2373SOL     OW 7462   1.466   7.003   0.953
 2373SOL    HW1 7463   1.407   7.009   1.033
 2373SOL    HW2 7464   1.451   6.915   0.907
 2374SOL     OW 7465   1.667   7.300   0.572
 2374SOL    HW1 7466   1.626   7.277   0.484
 2374SOL    HW2 7467   1.649   7.226   0.637
 2375SOL     OW 7468   0.598   6.315   0.270
 2375SOL    HW1 7469   0.622   6.384   0.202
 2375SOL    HW2 7470   0.520   6.348   0.324
 2376SOL     OW 7471   1.281   5.931   0.944
 2376SOL    HW1 7472   1.195   5.881   0.931
 2376SOL    HW2 7473   1.343   5.877   1.000
 2377SOL     OW 7474   1.576   7.248   0.307
 2377SOL    HW1 7475   1.665   7.294   0.310
 2377SOL    HW2 7476   1.555   7.224   0.212
 2378SOL     OW 7477   0.807   6.191   1.465
 2378SOL    HW1 7478   0.760   6.188   1.554
 2378SOL    HW2 7479   0.756   6.136   1.399
 2379SOL     OW 7480   1.394   6.055   1.674
 2379SOL    HW1 7481   1.374   6.098   1.762
 2379SOL    HW2 7482   1.472   5.993   1.683
 2380SOL     OW 7483   0.973   6.476   1.572
 2380SOL    HW1 7484   1.019   6.392   1.543
 2380SOL    HW2 7485   0.917   6.510   1.497
 2381SOL     OW 7486   0.991   5.996   1.242
 2381SOL    HW1 7487   0.914   6.030   1.296
 2381SOL    HW2 7488   0.957   5.945   1.163
 2382SOL     OW 7489   1.041   6.287   0.429
 2382SOL    HW1 7490   1.067   6.283   0.525
 2382SOL    HW2 7491   0.956   6.236   0.415
 2383SOL     OW 7492   0.076   6.397   0.789
 2383SOL    HW1 7493   0.175   6.385   0.798
 2383SOL    HW2 7494   0.052   6.492   0.810
 2384SOL     OW 7495   0.130   7.407   1.571
 2384SOL    HW1 7496   0.120   7.392   1.670
 2384SOL    HW2 7497   0.044   7.443   1.535
 2385SOL     OW 7498   0.865   5.934   0.195
 2385SOL    HW1 7499   0.924   5.997   0.146
 2385SOL    HW2 7500   0.884   5.840   0.166
 2386SOL     OW 7501   1.719   6.171   1.831
 2386SOL    HW1 7502   1.693   6.260   1.795
 2386SOL    HW2 7503   1.717   6.103   1.758
 2387SOL     OW 7504   1.362   6.730   0.545
 2387SOL    HW1 7505   1.445   6.701   0.497
 2387SOL    HW2 7506   1.313   6.797   0.489
 2388SOL     OW 7507   0.550   5.782   0.885
 2388SOL    HW1 7508   0.545   5.777   0.985
 2388SOL    HW2 7509   0.552   5.878   0.856
 2389SOL     OW 7510   1.008   7.042   0.477
 2389SOL    HW1 7511   0.962   7.114   0.425
 2389SOL    HW2 7512   1.004   7.062   0.575
 2390SOL     OW 7513   0.351   7.387   0.853
 2390SOL    HW1 7514   0.401   7.301   0.859
 2390SOL    HW2 7515   0.416   7.464   0.850
 2391SOL     OW 7516   1.795   6.652   0.873
 2391SOL    HW1 7517   1.733   6.637   0.797
 2391SOL    HW2 7518   1.743   6.663   0.958
 2392SOL     OW 7519   1.227   7.136   1.506
 2392SOL    HW1 7520   1.233   7.059   1.570
 2392SOL    HW2 7521   1.175   7.110   1.426
 2393SOL     OW 7522   0.321   6.529   0.242
 2393SOL    HW1 7523   0.403   6.568   0.200
 2393SOL    HW2 7524   0.294   6.447   0.193
 2394SOL     OW 7525   1.458   6.321   0.728
 2394SOL    HW1 7526   1.453   6.256   0.803
 2394SOL    HW2 7527   1.538   6.380   0.741
 2395SOL     OW 7528   0.461   6.852   1.727
 2395SOL    HW1 7529   0.411   6.853   1.641
 2395SOL    HW2 7530   0.398   6.834   1.803
 2396SOL     OW 7531   1.111   7.362   0.237
 2396SOL    HW1 7532   1.051   7.300   0.287
 2396SOL    HW2 7533   1.142   7.318   0.152
 2397SOL     OW 7534   0.202   5.871   1.498
 2397SOL    HW1 7535   0.122   5.931   1.485
 2397SOL    HW2 7536   0.192   5.822   1.584
 2398SOL     OW 7537   0.464   7.329   0.323
 2398SOL    HW1 7538   0.497   7.368   0.409
 2398SOL    HW2 7539   0.540   7.322   0.258
 2399SOL     OW 7540   1.400   5.693   0.426
 2399SOL    HW1 7541   1.376   5.656   0.336
 2399SOL    HW2 7542   1.499   5.709   0.430
 2400SOL     OW 7543   0.249   7.371   1.241
 2400SOL    HW1 7544   0.306   7.306   1.291
 2400SOL    HW2 7545   0.233   7.338   1.148
 2401SOL     OW 7546   0.940   7.284   0.904
 2401SOL    HW1 7547   1.020   7.227   0.925
 2401SOL    HW2 7548   0.891   7.244   0.827
 2402SOL     OW 7549   0.382   6.286   0.480
 2402SOL    HW1 7550   0.427   6.196   0.477
 2402SOL    HW2 7551   0.288   6.275   0.513
 2403SOL     OW 7552   1.547   5.808   1.729
 2403SOL    HW1 7553   1.542   5.845   1.821
 2403SOL    HW2 7554   1.475   5.739   1.717
 2404SOL     OW 7555   0.614   5.708   0.117
 2404SOL    HW1 7556   0.712   5.686   0.124
 2404SOL    HW2 7557   0.583   5.691   0.024
 2405SOL     OW 7558   0.781   5.850   1.749
 2405SOL    HW1 7559   0.848   5.789   1.792
 2405SOL    HW2 7560   0.708   5.869   1.814
 2406SOL     OW 7561   0.888   7.100   1.195
 2406SOL    HW1 7562   0.865   7.075   1.101
 2406SOL    HW2 7563   0.949   7.031   1.234
 2407SOL     OW 7564   1.351   6.176   1.433
 2407SOL    HW1 7565   1.379   6.133   1.518
 2407SOL    HW2 7566   1.376   6.272   1.434
 2408SOL     OW 7567   0.803   6.988   0.924
 2408SOL    HW1 7568   0.893   7.002   0.882
 2408SOL    HW2 7569   0.732   6.990   0.853
 2409SOL     OW 7570   0.922   6.089   0.899
 2409SOL    HW1 7571   0.897   6.080   0.803
 2409SOL    HW2 7572   0.970   6.007   0.930
 2410SOL     OW 7573   0.539   5.650   0.512
 2410SOL    HW1 7574   0.458   5.651   0.570
 2410SOL    HW2 7575   0.542   5.733   0.457
 2411SOL     OW 7576   1.434   6.774   0.041
 2411SOL    HW1 7577   1.466   6.698   0.098
 2411SOL    HW2 7578   1.342   6.801   0.071
 2412SOL     OW 7579   0.297   5.621   0.171
 2412SOL    HW1 7580   0.346   5.705   0.150
 2412SOL    HW2 7581   0.359   5.556   0.216
 2413SOL     OW 7582   0.935   5.822   0.480
 2413SOL    HW1 7583   0.887   5.863   0.402
 2413SOL    HW2 7584   1.034   5.820   0.461
 2414SOL     OW 7585   1.076   6.269   1.464
 2414SOL    HW1 7586   0.996   6.208   1.467
 2414SOL    HW2 7587   1.157   6.216   1.440
 2415SOL     OW 7588   1.227   7.156   0.793
 2415SOL    HW1 7589   1.248   7.230   0.728
 2415SOL    HW2 7590   1.295   7.156   0.866
 2416SOL     OW 7591   0.459   6.738   0.741
 2416SOL    HW1 7592   0.388   6.711   0.806
 2416SOL    HW2 7593   0.433   6.710   0.648
 2417SOL     OW 7594   1.271   7.383   0.591
 2417SOL    HW1 7595   1.315   7.447   0.527
 2417SOL    HW2 7596   1.221   7.435   0.661
 2418SOL     OW 7597   1.032   6.135   0.016
 2418SOL    HW1 7598   0.991   6.217  -0.023
 2418SOL    HW2 7599   1.096   6.161   0.089
 2419SOL     OW 7600   0.078   6.142   1.386
 2419SOL    HW1 7601   0.170   6.141   1.345
 2419SOL    HW2 7602   0.072   6.216   1.453
 2420SOL     OW 7603   0.561   5.808   1.147
 2420SOL    HW1 7604   0.599   5.724   1.184
 2420SOL    HW2 7605   0.473   5.827   1.191
 2421SOL     OW 7606   0.866   6.040   0.642
 2421SOL    HW1 7607   0.834   6.112   0.580
 2421SOL    HW2 7608   0.890   5.959   0.589
 2422SOL     OW 7609   1.017   5.625   0.753
 2422SOL    HW1 7610   0.945   5.630   0.684
 2422SOL    HW2 7611   0.993   5.556   0.822
 2423SOL     OW 7612   1.429   6.759   0.867
 2423SOL    HW1 7613   1.374   6.675   0.860
 2423SOL    HW2 7614   1.455   6.788   0.775
 2424SOL     OW 7615   1.466   6.176   0.992
 2424SOL    HW1 7616   1.436   6.081   0.999
 2424SOL    HW2 7617   1.539   6.192   1.058
 2425SOL     OW 7618   1.857   6.419   0.377
 2425SOL    HW1 7619   1.899   6.355   0.441
 2425SOL    HW2 7620   1.819   6.368   0.299
 2426SOL     OW 7621   0.488   6.971   0.174
 2426SOL    HW1 7622   0.401   6.956   0.221
 2426SOL    HW2 7623   0.471   6.997   0.079
 2427SOL     OW 7624   1.664   6.866   0.657
 2427SOL    HW1 7625   1.763   6.874   0.671
 2427SOL    HW2 7626   1.619   6.950   0.688
 2428SOL     OW 7627   1.390   6.161   0.078
 2428SOL    HW1 7628   1.336   6.140   0.159
 2428SOL    HW2 7629   1.481   6.120   0.087
 2429SOL     OW 7630   0.527   5.842   0.328
 2429SOL    HW1 7631   0.554   5.783   0.253
 2429SOL    HW2 7632   0.527   5.937   0.297
 2430SOL     OW 7633   1.754   6.809   1.588
 2430SOL    HW1 7634   1.845   6.770   1.575
 2430SOL    HW2 7635   1.762   6.905   1.612
 2431SOL     OW 7636   1.064   6.933   1.340
 2431SOL    HW1 7637   0.984   6.910   1.395
 2431SOL    HW2 7638   1.147   6.907   1.389
 2432SOL     OW 7639   1.592   7.215   1.625
 2432SOL    HW1 7640   1.619   7.249   1.535
 2432SOL    HW2 7641   1.671   7.177   1.671
 2433SOL     OW 7642   1.111   6.781   1.100
 2433SOL    HW1 7643   1.071   6.825   1.181
 2433SOL    HW2 7644   1.070   6.818   1.017
 2434SOL     OW 7645   1.638   6.685   1.079
 2434SOL    HW1 7646   1.643   6.766   1.138
 2434SOL    HW2 7647   1.552   6.687   1.028
 2435SOL     OW 7648   0.915   5.675   1.402
 2435SOL    HW1 7649   0.940   5.655   1.307
 2435SOL    HW2 7650   0.987   5.731   1.444
 2436SOL     OW 7651   0.980   6.702   1.719
 2436SOL    HW1 7652   0.881   6.708   1.729
 2436SOL    HW2 7653   1.003   6.622   1.663
 2437SOL     OW 7654   0.705   6.636   0.368
 2437SOL    HW1 7655   0.691   6.643   0.467
 2437SOL    HW2 7656   0.789   6.585   0.350
 2438SOL     OW 7657   0.410   6.399   1.251
 2438SOL    HW1 7658   0.496   6.411   1.301
 2438SOL    HW2 7659   0.368   6.312   1.278
 2439SOL     OW 7660   1.274   5.972   1.262
 2439SOL    HW1 7661   1.295   6.046   1.326
 2439SOL    HW2 7662   1.185   5.989   1.219
 2440SOL     OW 7663   0.064   7.150   1.331
 2440SOL    HW1 7664   0.018   7.232   1.297
 2440SOL    HW2 7665   0.162   7.169   1.340
 2441SOL     OW 7666   0.367   6.686   0.501
 2441SOL    HW1 7667   0.360   6.769   0.445
 2441SOL    HW2 7668   0.371   6.606   0.441
 2442SOL     OW 7669   0.566   6.123   0.865
 2442SOL    HW1 7670   0.578   6.189   0.791
 2442SOL    HW2 7671   0.612   6.157   0.948
 2443SOL     OW 7672   1.252   6.934   0.388
 2443SOL    HW1 7673   1.302   7.011   0.428
 2443SOL    HW2 7674   1.157   6.936   0.420
 2444SOL     OW 7675   1.272   7.031   1.142
 2444SOL    HW1 7676   1.319   7.044   1.229
 2444SOL    HW2 7677   1.206   6.957   1.151
 2445SOL     OW 7678   1.582   6.225   0.472
 2445SOL    HW1 7679   1.551   6.286   0.545
 2445SOL    HW2 7680   1.632   6.277   0.403
 2446SOL     OW 7681   0.354   7.096   1.329
 2446SOL    HW1 7682   0.333   7.052   1.242
 2446SOL    HW2 7683   0.451   7.122   1.332
 2447SOL     OW 7684   0.402   6.337   1.598
 2447SOL    HW1 7685   0.470   6.392   1.551
 2447SOL    HW2 7686   0.442   6.249   1.625
 2448SOL     OW 7687   1.587   6.365   1.670
 2448SOL    HW1 7688   1.495   6.403   1.665
 2448SOL    HW2 7689   1.647   6.412   1.605
 2449SOL     OW 7690   1.013   5.691   1.770
 2449SOL    HW1 7691   1.019   5.776   1.718
 2449SOL    HW2 7692   1.045   5.615   1.713
 2450SOL     OW 7693   0.504   5.636   1.740
 2450SOL    HW1 7694   0.462   5.579   1.670
 2450SOL    HW2 7695   0.438   5.705   1.772
 2451SOL     OW 7696   0.573   6.456   1.029
 2451SOL    HW1 7697   0.617   6.545   1.020
 2451SOL    HW2 7698   0.510   6.456   1.106
 2452SOL     OW 7699   1.360   6.448   1.045
 2452SOL    HW1 7700   1.285   6.448   0.979
 2452SOL    HW2 7701   1.397   6.356   1.054
 2453SOL     OW 7702   1.209   6.111   0.275
 2453SOL    HW1 7703   1.222   6.027   0.329
 2453SOL    HW2 7704   1.180   6.185   0.335
 2454SOL     OW 7705   0.307   5.799   1.231
 2454SOL    HW1 7706   0.284   5.836   1.321
 2454SOL    HW2 7707   0.277   5.704   1.225
 2455SOL     OW 7708   0.037   6.896   1.282
 2455SOL    HW1 7709   0.090   6.847   1.350
 2455SOL    HW2 7710   0.059   6.994   1.287
 2456SOL     OW 7711   0.732   6.220   1.064
 2456SOL    HW1 7712   0.791   6.194   0.988
 2456SOL    HW2 7713   0.704   6.316   1.053
 2457SOL     OW 7714   1.728   6.521   1.854
 2457SOL    HW1 7715   1.682   6.514   1.765
 2457SOL    HW2 7716   1.666   6.565   1.920
 2458SOL     OW 7717   0.307   5.649   0.618
 2458SOL    HW1 7718   0.296   5.743   0.651
 2458SOL    HW2 7719   0.302   5.586   0.695
 2459SOL     OW 7720   1.622   5.953   0.374
 2459SOL    HW1 7721   1.624   5.877   0.438
 2459SOL    HW2 7722   1.574   6.030   0.414
 2460SOL     OW 7723   1.023   6.352   0.966
 2460SOL    HW1 7724   1.038   6.373   1.062
 2460SOL    HW2 7725   0.993   6.257   0.957
 2461SOL     OW 7726   0.980   7.159   1.700
 2461SOL    HW1 7727   0.960   7.203   1.612
 2461SOL    HW2 7728   1.019   7.068   1.684
 2462SOL     OW 7729   1.859   7.104   1.605
 2462SOL    HW1 7730   1.873   7.131   1.510
 2462SOL    HW2 7731   1.942   7.126   1.658
 2463SOL     OW 7732   0.350   6.484   1.804
 2463SOL    HW1 7733   0.426   6.528   1.852
 2463SOL    HW2 7734   0.385   6.437   1.722
 2464SOL     OW 7735   1.540   5.860   0.125
 2464SOL    HW1 7736   1.479   5.785   0.148
 2464SOL    HW2 7737   1.562   5.912   0.208
 2465SOL     OW 7738   1.303   6.424   0.042
 2465SOL    HW1 7739   1.337   6.331   0.057
 2465SOL    HW2 7740   1.321   6.451  -0.053
 2466SOL     OW 7741   1.068   6.919   0.849
 2466SOL    HW1 7742   1.075   6.835   0.794
 2466SOL    HW2 7743   1.130   6.988   0.813
 2467SOL     OW 7744   0.319   6.396   0.949
 2467SOL    HW1 7745   0.412   6.432   0.954
 2467SOL    HW2 7746   0.313   6.311   1.001
 2468SOL     OW 7747   0.339   6.095   1.006
 2468SOL    HW1 7748   0.287   6.012   0.989
 2468SOL    HW2 7749   0.416   6.100   0.942
 2469SOL     OW 7750   1.138   5.966   1.678
 2469SOL    HW1 7751   1.093   6.029   1.742
 2469SOL    HW2 7752   1.231   5.997   1.661
 2470SOL     OW 7753   1.160   5.793   1.477
 2470SOL    HW1 7754   1.160   5.857   1.554
 2470SOL    HW2 7755   1.188   5.841   1.394
 2471SOL     OW 7756   0.008   6.912   0.200
 2471SOL    HW1 7757  -0.085   6.933   0.169
 2471SOL    HW2 7758   0.018   6.813   0.213
 2472SOL     OW 7759   0.088   7.387   0.927
 2472SOL    HW1 7760   0.046   7.301   0.900
 2472SOL    HW2 7761   0.182   7.390   0.893
 2473SOL     OW 7762   0.504   7.154   0.910
 2473SOL    HW1 7763   0.570   7.228   0.919
 2473SOL    HW2 7764   0.548   7.075   0.868
 2474SOL     OW 7765   1.002   6.382   1.238
 2474SOL    HW1 7766   1.043   6.350   1.324
 2474SOL    HW2 7767   0.906   6.355   1.235
 2475SOL     OW 7768   0.040   6.130   1.114
 2475SOL    HW1 7769   0.125   6.097   1.073
 2475SOL    HW2 7770   0.053   6.145   1.212
 2476SOL     OW 7771   0.189   6.106   1.722
 2476SOL    HW1 7772   0.248   6.066   1.652
 2476SOL    HW2 7773   0.131   6.177   1.681
 2477SOL     OW 7774   1.369   6.536   1.660
 2477SOL    HW1 7775   1.408   6.625   1.680
 2477SOL    HW2 7776   1.379   6.516   1.563
 2478SOL     OW 7777   0.815   6.158   0.325
 2478SOL    HW1 7778   0.822   6.069   0.279
 2478SOL    HW2 7779   0.721   6.192   0.317
 2479SOL     OW 7780   1.657   6.190   1.206
 2479SOL    HW1 7781   1.619   6.121   1.268
 2479SOL    HW2 7782   1.739   6.154   1.162
 2480SOL     OW 7783   0.252   7.150   1.744
 2480SOL    HW1 7784   0.222   7.207   1.820
 2480SOL    HW2 7785   0.245   7.053   1.770
 2481SOL     OW 7786   0.671   6.050   1.269
 2481SOL    HW1 7787   0.637   5.961   1.239
 2481SOL    HW2 7788   0.697   6.104   1.189
 2482SOL     OW 7789   0.930   7.264   1.465
 2482SOL    HW1 7790   0.906   7.246   1.370
 2482SOL    HW2 7791   0.960   7.358   1.475
 2483SOL     OW 7792   0.473   6.086   0.191
 2483SOL    HW1 7793   0.534   6.166   0.195
 2483SOL    HW2 7794   0.378   6.117   0.198
 2484SOL     OW 7795   0.159   6.723   1.466
 2484SOL    HW1 7796   0.181   6.662   1.542
 2484SOL    HW2 7797   0.169   6.674   1.380
 2485SOL     OW 7798   1.347   6.645   1.234
 2485SOL    HW1 7799   1.371   6.582   1.160
 2485SOL    HW2 7800   1.257   6.685   1.216
 2486SOL     OW 7801   1.302   6.441   0.309
 2486SOL    HW1 7802   1.216   6.410   0.351
 2486SOL    HW2 7803   1.298   6.427   0.210
 2487SOL     OW 7804   1.759   7.333   1.154
 2487SOL    HW1 7805   1.820   7.363   1.081
 2487SOL    HW2 7806   1.721   7.244   1.132
 2488SOL     OW 7807   1.252   7.317   1.128
 2488SOL    HW1 7808   1.336   7.322   1.074
 2488SOL    HW2 7809   1.229   7.221   1.146
 2489SOL     OW 7810   0.083   6.844   1.022
 2489SOL    HW1 7811   0.078   6.843   1.122
 2489SOL    HW2 7812   0.000   6.803   0.984
 2490SOL     OW 7813   0.688   7.248   1.716
 2490SOL    HW1 7814   0.632   7.329   1.725
 2490SOL    HW2 7815   0.740   7.252   1.630
 2491SOL     OW 7816   0.903   5.672   0.133
 2491SOL    HW1 7817   0.954   5.673   0.047
 2491SOL    HW2 7818   0.959   5.630   0.204
 2492SOL     OW 7819   1.726   5.721   0.523
 2492SOL    HW1 7820   1.799   5.704   0.456
 2492SOL    HW2 7821   1.695   5.634   0.561
 2493SOL     OW 7822   1.388   7.159   0.477
 2493SOL    HW1 7823   1.455   7.171   0.403
 2493SOL    HW2 7824   1.348   7.248   0.500
 2494SOL     OW 7825   0.130   7.380   1.851
 2494SOL    HW1 7826   0.089   7.306   1.904
 2494SOL    HW2 7827   0.194   7.431   1.909
 2495SOL     OW 7828   1.280   6.513   0.672
 2495SOL    HW1 7829   1.340   6.432   0.674
 2495SOL    HW2 7830   1.320   6.582   0.612
 2496SOL     OW 7831   0.830   6.859   1.422
 2496SOL    HW1 7832   0.825   6.892   1.517
 2496SOL    HW2 7833   0.744   6.878   1.376
 2497SOL     OW 7834   0.672   7.202   0.154
 2497SOL    HW1 7835   0.681   7.212   0.055
 2497SOL    HW2 7836   0.632   7.113   0.175
 2498SOL     OW 7837   1.650   7.306   1.394
 2498SOL    HW1 7838   1.703   7.316   1.310
 2498SOL    HW2 7839   1.623   7.396   1.428
 2499SOL     OW 7840   1.841   5.761   0.963
 2499SOL    HW1 7841   1.880   5.676   0.927
 2499SOL    HW2 7842   1.743   5.763   0.944
 2500SOL     OW 7843   0.263   5.912   0.720
 2500SOL    HW1 7844   0.184   5.963   0.686
 2500SOL    HW2 7845   0.254   5.897   0.818
 2501SOL     OW 7846   1.194   7.198   0.031
 2501SOL    HW1 7847   1.200   7.105   0.068
 2501SOL    HW2 7848   1.135   7.198  -0.049
 2502SOL     OW 7849   0.822   6.588   1.372
 2502SOL    HW1 7850   0.862   6.587   1.280
 2502SOL    HW2 7851   0.832   6.680   1.412
 2503SOL     OW 7852   0.916   6.496   0.291
 2503SOL    HW1 7853   0.979   6.534   0.223
 2503SOL    HW2 7854   0.956   6.413   0.330
 2504SOL     OW 7855   1.504   7.193   0.044
 2504SOL    HW1 7856   1.412   7.230   0.051
 2504SOL    HW2 7857   1.542   7.213  -0.046
 2505SOL     OW 7858   0.372   6.874   1.490
 2505SOL    HW1 7859   0.359   6.967   1.456
 2505SOL    HW2 7860   0.288   6.822   1.477
 2506SOL     OW 7861   1.614   6.878   1.289
 2506SOL    HW1 7862   1.674   6.881   1.369
 2506SOL    HW2 7863   1.539   6.942   1.302
 2507SOL     OW 7864   1.039   6.684   0.696
 2507SOL    HW1 7865   0.969   6.637   0.750
 2507SOL    HW2 7866   1.098   6.616   0.653
 2508SOL     OW 7867   1.014   5.822   0.971
 2508SOL    HW1 7868   1.006   5.786   0.878
 2508SOL    HW2 7869   1.012   5.746   1.036
 2509SOL     OW 7870   0.590   7.073   0.491
 2509SOL    HW1 7871   0.632   7.015   0.421
 2509SOL    HW2 7872   0.546   7.152   0.447
 2510SOL     OW 7873   1.709   5.971   1.381
 2510SOL    HW1 7874   1.782   6.040   1.385
 2510SOL    HW2 7875   1.737   5.896   1.322
 2511SOL     OW 7876   0.255   6.934   0.290
 2511SOL    HW1 7877   0.159   6.935   0.263
 2511SOL    HW2 7878   0.267   6.987   0.374
 2512SOL     OW 7879   0.105   6.599   1.726
 2512SOL    HW1 7880   0.028   6.566   1.780
 2512SOL    HW2 7881   0.190   6.569   1.768
 2513SOL     OW 7882   0.672   5.789   1.489
 2513SOL    HW1 7883   0.762   5.773   1.449
 2513SOL    HW2 7884   0.680   5.794   1.588
 2514SOL     OW 7885   0.075   5.931   0.033
 2514SOL    HW1 7886  -0.017   5.903   0.004
 2514SOL    HW2 7887   0.106   6.008  -0.023
 2515SOL     OW 7888   1.440   6.442   1.398
 2515SOL    HW1 7889   1.383   6.494   1.335
 2515SOL    HW2 7890   1.536   6.454   1.374
 2516SOL     OW 7891   0.072   5.752   0.318
 2516SOL    HW1 7892   0.055   5.835   0.264
 2516SOL    HW2 7893   0.162   5.715   0.296
 2517SOL     OW 7894   1.183   6.921   0.119
 2517SOL    HW1 7895   1.084   6.910   0.121
 2517SOL    HW2 7896   1.217   6.936   0.212
 2518SOL     OW 7897   0.613   6.428   1.431
 2518SOL    HW1 7898   0.669   6.509   1.414
 2518SOL    HW2 7899   0.672   6.348   1.434
 2519SOL     OW 7900   1.493   7.353   0.959
 2519SOL    HW1 7901   1.526   7.417   0.890
 2519SOL    HW2 7902   1.559   7.347   1.034
 2520SOL     OW 7903   0.716   6.151   1.708
 2520SOL    HW1 7904   0.735   6.216   1.782
 2520SOL    HW2 7905   0.776   6.071   1.717
 2521SOL     OW 7906   1.450   6.806   1.633
 2521SOL    HW1 7907   1.441   6.796   1.732
 2521SOL    HW2 7908   1.546   6.799   1.607
 2522SOL     OW 7909   0.390   7.327   1.560
 2522SOL    HW1 7910   0.299   7.368   1.558
 2522SOL    HW2 7911   0.383   7.233   1.592
 2523SOL     OW 7912   1.674   6.469   1.254
 2523SOL    HW1 7913   1.647   6.380   1.217
 2523SOL    HW2 7914   1.675   6.537   1.181
 2524SOL     OW 7915   1.225   5.911   0.449
 2524SOL    HW1 7916   1.290   5.837   0.438
 2524SOL    HW2 7917   1.245   5.961   0.533
 2525SOL     OW 7918   0.594   6.331   0.652
 2525SOL    HW1 7919   0.644   6.416   0.633
 2525SOL    HW2 7920   0.506   6.333   0.604
 2526SOL     OW 7921   1.777   5.928   1.642
 2526SOL    HW1 7922   1.760   5.959   1.548
 2526SOL    HW2 7923   1.693   5.891   1.680
 2527SOL     OW 7924   1.730   6.520   1.517
 2527SOL    HW1 7925   1.768   6.611   1.532
 2527SOL    HW2 7926   1.722   6.503   1.418
 2528SOL     OW 7927   0.859   6.960   0.016
 2528SOL    HW1 7928   0.813   6.975   0.104
 2528SOL    HW2 7929   0.903   7.045  -0.014
 2529SOL     OW 7930   0.661   7.376   0.953
 2529SOL    HW1 7931   0.615   7.464   0.940
 2529SOL    HW2 7932   0.760   7.388   0.946
 2530SOL     OW 7933   0.859   6.542   0.861
 2530SOL    HW1 7934   0.913   6.473   0.909
 2530SOL    HW2 7935   0.827   6.611   0.927
 2531SOL     OW 7936   1.083   6.570   0.087
 2531SOL    HW1 7937   1.060   6.623   0.005
 2531SOL    HW2 7938   1.164   6.514   0.068
 2532SOL     OW 7939   1.861   7.155   0.851
 2532SOL    HW1 7940   1.790   7.143   0.781
 2532SOL    HW2 7941   1.862   7.076   0.911
 2533SOL     OW 7942   0.221   6.900   1.844
 2533SOL    HW1 7943   0.156   6.827   1.823
 2533SOL    HW2 7944   0.225   6.914   1.942
 2534SOL     OW 7945   0.079   6.826   0.653
 2534SOL    HW1 7946   0.078   6.779   0.741
 2534SOL    HW2 7947   0.161   6.798   0.602
 2535SOL     OW 7948   0.672   6.977   1.624
 2535SOL    HW1 7949   0.594   6.927   1.662
 2535SOL    HW2 7950   0.669   7.072   1.655
 2536SOL     OW 7951   1.824   5.778   1.227
 2536SOL    HW1 7952   1.820   5.688   1.271
 2536SOL    HW2 7953   1.827   5.767   1.128
 2537SOL     OW 7954   0.428   6.010   0.520
 2537SOL    HW1 7955   0.458   5.938   0.458
 2537SOL    HW2 7956   0.389   5.970   0.603
 2538SOL     OW 7957   1.705   7.073   1.104
 2538SOL    HW1 7958   1.612   7.048   1.077
 2538SOL    HW2 7959   1.731   7.023   1.186
 2539SOL     OW 7960   0.317   6.133   1.280
 2539SOL    HW1 7961   0.355   6.074   1.352
 2539SOL    HW2 7962   0.357   6.107   1.192
 2540SOL     OW 7963   0.812   7.172   0.687
 2540SOL    HW1 7964   0.844   7.182   0.593
 2540SOL    HW2 7965   0.733   7.110   0.689
 2541SOL     OW 7966   1.424   5.800   1.112
 2541SOL    HW1 7967   1.476   5.735   1.167
 2541SOL    HW2 7968   1.375   5.863   1.173
 2542SOL     OW 7969   1.001   5.620   1.154
 2542SOL    HW1 7970   0.938   5.548   1.123
 2542SOL    HW2 7971   1.094   5.584   1.154
 2543SOL     OW 7972   0.770   6.916   0.301
 2543SOL    HW1 7973   0.724   6.829   0.318
 2543SOL    HW2 7974   0.861   6.913   0.342
 2544SOL     OW 7975   0.618   7.153   1.284
 2544SOL    HW1 7976   0.613   7.235   1.341
 2544SOL    HW2 7977   0.707   7.150   1.239
 2545SOL     OW 7978   1.352   5.638   0.168
 2545SOL    HW1 7979   1.387   5.597   0.084
 2545SOL    HW2 7980   1.262   5.600   0.188
 2546SOL     OW 7981   1.300   6.039   0.691
 2546SOL    HW1 7982   1.241   6.119   0.695
 2546SOL    HW2 7983   1.315   6.004   0.784
 2547SOL     OW 7984   1.593   5.807   0.882
 2547SOL    HW1 7985   1.509   5.806   0.936
 2547SOL    HW2 7986   1.595   5.890   0.826
 2548SOL     OW 7987   0.039   6.663   0.300
 2548SOL    HW1 7988   0.138   6.652   0.291
 2548SOL    HW2 7989  -0.001   6.577   0.332
 2549SOL     OW 7990   0.875   7.232   0.337
 2549SOL    HW1 7991   0.798   7.197   0.283
 2549SOL    HW2 7992   0.843   7.303   0.399
 2550SOL     OW 7993   0.230   6.214   1.975
 2550SOL    HW1 7994   0.137   6.212   2.012
 2550SOL    HW2 7995   0.231   6.175   1.883
 2551SOL     OW 7996   0.225   5.861   2.858
 2551SOL    HW1 7997   0.260   5.844   2.950
 2551SOL    HW2 7998   0.137   5.816   2.846
 2552SOL     OW 7999   0.019   5.954   2.509
 2552SOL    HW1 8000  -0.063   5.997   2.548
 2552SOL    HW2 8001  -0.009   5.881   2.446
 2553SOL     OW 8002   0.569   6.861   3.027
 2553SOL    HW1 8003   0.476   6.854   2.990
 2553SOL    HW2 8004   0.580   6.950   3.071
 2554SOL     OW 8005   1.555   7.097   2.565
 2554SOL    HW1 8006   1.498   7.081   2.646
 2554SOL    HW2 8007   1.496   7.107   2.485
 2555SOL     OW 8008   1.135   6.289   2.579
 2555SOL    HW1 8009   1.192   6.367   2.554
 2555SOL    HW2 8010   1.075   6.315   2.655
 2556SOL     OW 8011   1.755   6.193   2.093
 2556SOL    HW1 8012   1.743   6.180   1.994
 2556SOL    HW2 8013   1.725   6.112   2.142
 2557SOL     OW 8014   0.768   6.730   2.885
 2557SOL    HW1 8015   0.690   6.747   2.945
 2557SOL    HW2 8016   0.802   6.817   2.849
 2558SOL     OW 8017   0.850   6.384   3.685
 2558SOL    HW1 8018   0.846   6.460   3.750
 2558SOL    HW2 8019   0.872   6.420   3.594
 2559SOL     OW 8020   0.685   6.598   2.527
 2559SOL    HW1 8021   0.754   6.582   2.597
 2559SOL    HW2 8022   0.612   6.655   2.565
 2560SOL     OW 8023   0.686   6.747   3.665
 2560SOL    HW1 8024   0.746   6.826   3.679
 2560SOL    HW2 8025   0.600   6.778   3.624
 2561SOL     OW 8026   0.335   7.021   2.923
 2561SOL    HW1 8027   0.257   6.990   2.870
 2561SOL    HW2 8028   0.393   7.079   2.866
 2562SOL     OW 8029   1.460   7.091   3.201
 2562SOL    HW1 8030   1.484   7.185   3.227
 2562SOL    HW2 8031   1.444   7.037   3.283
 2563SOL     OW 8032   0.438   5.978   3.361
 2563SOL    HW1 8033   0.520   5.922   3.370
 2563SOL    HW2 8034   0.357   5.920   3.365
 2564SOL     OW 8035   1.603   6.033   2.599
 2564SOL    HW1 8036   1.529   6.079   2.549
 2564SOL    HW2 8037   1.654   6.101   2.652
 2565SOL     OW 8038   0.231   7.299   2.345
 2565SOL    HW1 8039   0.265   7.376   2.399
 2565SOL    HW2 8040   0.275   7.299   2.255
 2566SOL     OW 8041   1.127   6.927   3.552
 2566SOL    HW1 8042   1.174   6.927   3.640
 2566SOL    HW2 8043   1.079   6.840   3.541
 2567SOL     OW 8044   0.230   7.020   2.400
 2567SOL    HW1 8045   0.204   7.116   2.400
 2567SOL    HW2 8046   0.159   6.966   2.445
 2568SOL     OW 8047   0.240   6.677   2.748
 2568SOL    HW1 8048   0.254   6.593   2.800
 2568SOL    HW2 8049   0.185   6.741   2.803
 2569SOL     OW 8050   0.620   7.372   3.301
 2569SOL    HW1 8051   0.528   7.355   3.336
 2569SOL    HW2 8052   0.648   7.464   3.327
 2570SOL     OW 8053   0.606   6.550   1.985
 2570SOL    HW1 8054   0.613   6.634   1.931
 2570SOL    HW2 8055   0.652   6.563   2.073
 2571SOL     OW 8056   1.594   5.700   3.342
 2571SOL    HW1 8057   1.576   5.767   3.270
 2571SOL    HW2 8058   1.591   5.746   3.431
 2572SOL     OW 8059   0.122   6.229   2.425
 2572SOL    HW1 8060   0.077   6.141   2.442
 2572SOL    HW2 8061   0.121   6.283   2.509
 2573SOL     OW 8062   1.842   7.353   2.221
 2573SOL    HW1 8063   1.896   7.324   2.301
 2573SOL    HW2 8064   1.872   7.443   2.192
 2574SOL     OW 8065   0.027   7.182   1.979
 2574SOL    HW1 8066   0.008   7.086   2.000
 2574SOL    HW2 8067  -0.006   7.240   2.054
 2575SOL     OW 8068   1.689   6.508   2.474
 2575SOL    HW1 8069   1.784   6.479   2.482
 2575SOL    HW2 8070   1.681   6.573   2.399
 2576SOL     OW 8071   1.641   6.694   2.294
 2576SOL    HW1 8072   1.727   6.696   2.242
 2576SOL    HW2 8073   1.655   6.741   2.382
 2577SOL     OW 8074   0.113   6.323   3.459
 2577SOL    HW1 8075   0.201   6.310   3.504
 2577SOL    HW2 8076   0.100   6.420   3.437
 2578SOL     OW 8077   0.613   6.951   2.588
 2578SOL    HW1 8078   0.564   6.864   2.597
 2578SOL    HW2 8079   0.590   6.994   2.501
 2579SOL     OW 8080   1.293   6.814   3.285
 2579SOL    HW1 8081   1.330   6.741   3.227
 2579SOL    HW2 8082   1.345   6.819   3.370
 2580SOL     OW 8083   0.809   5.590   2.364
 2580SOL    HW1 8084   0.849   5.681   2.355
 2580SOL    HW2 8085   0.709   5.598   2.370
 2581SOL     OW 8086   0.197   6.562   3.126
 2581SOL    HW1 8087   0.286   6.517   3.112
 2581SOL    HW2 8088   0.124   6.497   3.107
 2582SOL     OW 8089   1.525   6.585   2.052
 2582SOL    HW1 8090   1.462   6.509   2.065
 2582SOL    HW2 8091   1.573   6.603   2.138
 2583SOL     OW 8092   1.187   7.378   3.478
 2583SOL    HW1 8093   1.211   7.438   3.402
 2583SOL    HW2 8094   1.194   7.283   3.448
 2584SOL     OW 8095   0.317   5.837   3.663
 2584SOL    HW1 8096   0.388   5.908   3.669
 2584SOL    HW2 8097   0.229   5.876   3.691
 2585SOL     OW 8098   1.466   7.003   2.815
 2585SOL    HW1 8099   1.407   7.009   2.895
 2585SOL    HW2 8100   1.451   6.915   2.769
 2586SOL     OW 8101   1.667   7.300   2.434
 2586SOL    HW1 8102   1.626   7.277   2.346
 2586SOL    HW2 8103   1.649   7.226   2.499
 2587SOL     OW 8104   0.598   6.315   2.132
 2587SOL    HW1 8105   0.622   6.384   2.064
 2587SOL    HW2 8106   0.520   6.348   2.186
 2588SOL     OW 8107   1.281   5.931   2.806
 2588SOL    HW1 8108   1.195   5.881   2.793
 2588SOL    HW2 8109   1.343   5.877   2.862
 2589SOL     OW 8110   1.576   7.248   2.169
 2589SOL    HW1 8111   1.665   7.294   2.172
 2589SOL    HW2 8112   1.555   7.224   2.074
 2590SOL     OW 8113   1.394   6.055   3.536
 2590SOL    HW1 8114   1.374   6.098   3.624
 2590SOL    HW2 8115   1.472   5.993   3.545
 2591SOL     OW 8116   0.973   6.476   3.434
 2591SOL    HW1 8117   1.019   6.392   3.405
 2591SOL    HW2 8118   0.917   6.510   3.359
 2592SOL     OW 8119   0.991   5.996   3.104
 2592SOL    HW1 8120   0.914   6.030   3.158
 2592SOL    HW2 8121   0.957   5.945   3.025
 2593SOL     OW 8122   1.041   6.287   2.291
 2593SOL    HW1 8123   1.067   6.283   2.387
 2593SOL    HW2 8124   0.956   6.236   2.277
 2594SOL     OW 8125   0.076   6.397   2.651
 2594SOL    HW1 8126   0.175   6.385   2.660
 2594SOL    HW2 8127   0.052   6.492   2.672
 2595SOL     OW 8128   0.130   7.407   3.433
 2595SOL    HW1 8129   0.120   7.392   3.532
 2595SOL    HW2 8130   0.044   7.443   3.397
 2596SOL     OW 8131   0.865   5.934   2.057
 2596SOL    HW1 8132   0.924   5.997   2.008
 2596SOL    HW2 8133   0.884   5.840   2.028
 2597SOL     OW 8134   1.719   6.171   3.693
 2597SOL    HW1 8135   1.693   6.260   3.657
 2597SOL    HW2 8136   1.717   6.103   3.620
 2598SOL     OW 8137   1.362   6.730   2.407
 2598SOL    HW1 8138   1.445   6.701   2.359
 2598SOL    HW2 8139   1.313   6.797   2.351
 2599SOL     OW 8140   0.550   5.782   2.747
 2599SOL    HW1 8141   0.545   5.777   2.847
 2599SOL    HW2 8142   0.552   5.878   2.718
 2600SOL     OW 8143   1.008   7.042   2.339
 2600SOL    HW1 8144   0.962   7.114   2.287
 2600SOL    HW2 8145   1.004   7.062   2.437
 2601SOL     OW 8146   0.351   7.387   2.715
 2601SOL    HW1 8147   0.401   7.301   2.721
 2601SOL    HW2 8148   0.416   7.464   2.712
 2602SOL     OW 8149   1.795   6.652   2.735
 2602SOL    HW1 8150   1.733   6.637   2.659
 2602SOL    HW2 8151   1.743   6.663   2.820
 2603SOL     OW 8152   1.227   7.136   3.368
 2603SOL    HW1 8153   1.233   7.059   3.432
 2603SOL    HW2 8154   1.175   7.110   3.288
 2604SOL     OW 8155   0.321   6.529   2.104
 2604SOL    HW1 8156   0.403   6.568   2.062
 2604SOL    HW2 8157   0.294   6.447   2.055
 2605SOL     OW 8158   1.458   6.321   2.590
 2605SOL    HW1 8159   1.453   6.256   2.665
 2605SOL    HW2 8160   1.538   6.380   2.603
 2606SOL     OW 8161   0.461   6.852   3.589
 2606SOL    HW1 8162   0.411   6.853   3.503
 2606SOL    HW2 8163   0.398   6.834   3.665
 2607SOL     OW 8164   1.111   7.362   2.099
 2607SOL    HW1 8165   1.051   7.300   2.149
 2607SOL    HW2 8166   1.142   7.318   2.014
 2608SOL     OW 8167   0.202   5.871   3.360
 2608SOL    HW1 8168   0.122   5.931   3.347
 2608SOL    HW2 8169   0.192   5.822   3.446
 2609SOL     OW 8170   1.632   6.963   1.943
 2609SOL    HW1 8171   1.600   7.057   1.933
 2609SOL    HW2 8172   1.556   6.900   1.931
 2610SOL     OW 8173   0.464   7.329   2.185
 2610SOL    HW1 8174   0.497   7.368   2.271
 2610SOL    HW2 8175   0.540   7.322   2.120
 2611SOL     OW 8176   1.400   5.693   2.288
 2611SOL    HW1 8177   1.376   5.656   2.198
 2611SOL    HW2 8178   1.499   5.709   2.292
 2612SOL     OW 8179   0.249   7.371   3.103
 2612SOL    HW1 8180   0.306   7.306   3.153
 2612SOL    HW2 8181   0.233   7.338   3.010
 2613SOL     OW 8182   0.940   7.284   2.766
 2613SOL    HW1 8183   1.020   7.227   2.787
 2613SOL    HW2 8184   0.891   7.244   2.689
 2614SOL     OW 8185   0.382   6.286   2.342
 2614SOL    HW1 8186   0.427   6.196   2.339
 2614SOL    HW2 8187   0.288   6.275   2.375
 2615SOL     OW 8188   1.547   5.808   3.591
 2615SOL    HW1 8189   1.542   5.845   3.683
 2615SOL    HW2 8190   1.475   5.739   3.579
 2616SOL     OW 8191   0.614   5.708   1.979
 2616SOL    HW1 8192   0.712   5.686   1.986
 2616SOL    HW2 8193   0.583   5.691   1.886
 2617SOL     OW 8194   0.781   5.850   3.611
 2617SOL    HW1 8195   0.848   5.789   3.654
 2617SOL    HW2 8196   0.708   5.869   3.676
 2618SOL     OW 8197   0.888   7.100   3.057
 2618SOL    HW1 8198   0.865   7.075   2.963
 2618SOL    HW2 8199   0.949   7.031   3.096
 2619SOL     OW 8200   1.351   6.176   3.295
 2619SOL    HW1 8201   1.379   6.133   3.380
 2619SOL    HW2 8202   1.376   6.272   3.296
 2620SOL     OW 8203   0.803   6.988   2.786
 2620SOL    HW1 8204   0.893   7.002   2.744
 2620SOL    HW2 8205   0.732   6.990   2.715
 2621SOL     OW 8206   0.922   6.089   2.761
 2621SOL    HW1 8207   0.897   6.080   2.665
 2621SOL    HW2 8208   0.970   6.007   2.792
 2622SOL     OW 8209   0.539   5.650   2.374
 2622SOL    HW1 8210   0.458   5.651   2.432
 2622SOL    HW2 8211   0.542   5.733   2.319
 2623SOL     OW 8212   1.434   6.774   1.903
 2623SOL    HW1 8213   1.466   6.698   1.960
 2623SOL    HW2 8214   1.342   6.801   1.933
 2624SOL     OW 8215   0.297   5.621   2.033
 2624SOL    HW1 8216   0.346   5.705   2.012
 2624SOL    HW2 8217   0.359   5.556   2.078
 2625SOL     OW 8218   0.935   5.822   2.342
 2625SOL    HW1 8219   0.887   5.863   2.264
 2625SOL    HW2 8220   1.034   5.820   2.323
 2626SOL     OW 8221   1.076   6.269   3.326
 2626SOL    HW1 8222   0.996   6.208   3.329
 2626SOL    HW2 8223   1.157   6.216   3.302
 2627SOL     OW 8224   1.227   7.156   2.655
 2627SOL    HW1 8225   1.248   7.230   2.590
 2627SOL    HW2 8226   1.295   7.156   2.728
 2628SOL     OW 8227   0.459   6.738   2.603
 2628SOL    HW1 8228   0.388   6.711   2.668
 2628SOL    HW2 8229   0.433   6.710   2.510
 2629SOL     OW 8230   1.271   7.383   2.453
 2629SOL    HW1 8231   1.315   7.447   2.389
 2629SOL    HW2 8232   1.221   7.435   2.523
 2630SOL     OW 8233   1.032   6.135   1.878
 2630SOL    HW1 8234   0.991   6.217   1.839
 2630SOL    HW2 8235   1.096   6.161   1.951
 2631SOL     OW 8236   0.078   6.142   3.248
 2631SOL    HW1 8237   0.170   6.141   3.207
 2631SOL    HW2 8238   0.072   6.216   3.315
 2632SOL     OW 8239   0.561   5.808   3.009
 2632SOL    HW1 8240   0.599   5.724   3.046
 2632SOL    HW2 8241   0.473   5.827   3.053
 2633SOL     OW 8242   0.866   6.040   2.504
 2633SOL    HW1 8243   0.834   6.112   2.442
 2633SOL    HW2 8244   0.890   5.959   2.451
 2634SOL     OW 8245   1.017   5.625   2.615
 2634SOL    HW1 8246   0.945   5.630   2.546
 2634SOL    HW2 8247   0.993   5.556   2.684
 2635SOL     OW 8248   1.429   6.759   2.729
 2635SOL    HW1 8249   1.374   6.675   2.722
 2635SOL    HW2 8250   1.455   6.788   2.637
 2636SOL     OW 8251   1.466   6.176   2.854
 2636SOL    HW1 8252   1.436   6.081   2.861
 2636SOL    HW2 8253   1.539   6.192   2.920
 2637SOL     OW 8254   1.857   6.419   2.239
 2637SOL    HW1 8255   1.899   6.355   2.303
 2637SOL    HW2 8256   1.819   6.368   2.161
 2638SOL     OW 8257   0.488   6.971   2.036
 2638SOL    HW1 8258   0.401   6.956   2.083
 2638SOL    HW2 8259   0.471   6.997   1.941
 2639SOL     OW 8260   1.664   6.866   2.519
 2639SOL    HW1 8261   1.763   6.874   2.533
 2639SOL    HW2 8262   1.619   6.950   2.550
 2640SOL     OW 8263   1.390   6.161   1.940
 2640SOL    HW1 8264   1.336   6.140   2.021
 2640SOL    HW2 8265   1.481   6.120   1.949
 2641SOL     OW 8266   0.527   5.842   2.190
 2641SOL    HW1 8267   0.554   5.783   2.115
 2641SOL    HW2 8268   0.527   5.937   2.159
 2642SOL     OW 8269   1.754   6.809   3.450
 2642SOL    HW1 8270   1.845   6.770   3.437
 2642SOL    HW2 8271   1.762   6.905   3.474
 2643SOL     OW 8272   1.064   6.933   3.202
 2643SOL    HW1 8273   0.984   6.910   3.257
 2643SOL    HW2 8274   1.147   6.907   3.251
 2644SOL     OW 8275   1.592   7.215   3.487
 2644SOL    HW1 8276   1.619   7.249   3.397
 2644SOL    HW2 8277   1.671   7.177   3.533
 2645SOL     OW 8278   1.111   6.781   2.962
 2645SOL    HW1 8279   1.071   6.825   3.043
 2645SOL    HW2 8280   1.070   6.818   2.879
 2646SOL     OW 8281   1.638   6.685   2.941
 2646SOL    HW1 8282   1.643   6.766   3.000
 2646SOL    HW2 8283   1.552   6.687   2.890
 2647SOL     OW 8284   0.915   5.675   3.264
 2647SOL    HW1 8285   0.940   5.655   3.169
 2647SOL    HW2 8286   0.987   5.731   3.306
 2648SOL     OW 8287   0.980   6.702   3.581
 2648SOL    HW1 8288   0.881   6.708   3.591
 2648SOL    HW2 8289   1.003   6.622   3.525
 2649SOL     OW 8290   0.705   6.636   2.230
 2649SOL    HW1 8291   0.691   6.643   2.329
 2649SOL    HW2 8292   0.789   6.585   2.212
 2650SOL     OW 8293   0.410   6.399   3.113
 2650SOL    HW1 8294   0.496   6.411   3.163
 2650SOL    HW2 8295   0.368   6.312   3.140
 2651SOL     OW 8296   1.274   5.972   3.124
 2651SOL    HW1 8297   1.295   6.046   3.188
 2651SOL    HW2 8298   1.185   5.989   3.081
 2652SOL     OW 8299   0.064   7.150   3.193
 2652SOL    HW1 8300   0.018   7.232   3.159
 2652SOL    HW2 8301   0.162   7.169   3.202
 2653SOL     OW 8302   0.367   6.686   2.363
 2653SOL    HW1 8303   0.360   6.769   2.307
 2653SOL    HW2 8304   0.371   6.606   2.303
 2654SOL     OW 8305   0.566   6.123   2.727
 2654SOL    HW1 8306   0.578   6.189   2.653
 2654SOL    HW2 8307   0.612   6.157   2.810
 2655SOL     OW 8308   1.252   6.934   2.250
 2655SOL    HW1 8309   1.302   7.011   2.290
 2655SOL    HW2 8310   1.157   6.936   2.282
 2656SOL     OW 8311   1.272   7.031   3.004
 2656SOL    HW1 8312   1.319   7.044   3.091
 2656SOL    HW2 8313   1.206   6.957   3.013
 2657SOL     OW 8314   1.582   6.225   2.334
 2657SOL    HW1 8315   1.551   6.286   2.407
 2657SOL    HW2 8316   1.632   6.277   2.265
 2658SOL     OW 8317   0.354   7.096   3.191
 2658SOL    HW1 8318   0.333   7.052   3.104
 2658SOL    HW2 8319   0.451   7.122   3.194
 2659SOL     OW 8320   0.402   6.337   3.460
 2659SOL    HW1 8321   0.470   6.392   3.413
 2659SOL    HW2 8322   0.442   6.249   3.487
 2660SOL     OW 8323   1.587   6.365   3.532
 2660SOL    HW1 8324   1.495   6.403   3.527
 2660SOL    HW2 8325   1.647   6.412   3.467
 2661SOL     OW 8326   1.013   5.691   3.632
 2661SOL    HW1 8327   1.019   5.776   3.580
 2661SOL    HW2 8328   1.045   5.615   3.575
 2662SOL     OW 8329   0.504   5.636   3.602
 2662SOL    HW1 8330   0.462   5.579   3.532
 2662SOL    HW2 8331   0.438   5.705   3.634
 2663SOL     OW 8332   0.573   6.456   2.891
 2663SOL    HW1 8333   0.617   6.545   2.882
 2663SOL    HW2 8334   0.510   6.456   2.968
 2664SOL     OW 8335   1.360   6.448   2.907
 2664SOL    HW1 8336   1.285   6.448   2.841
 2664SOL    HW2 8337   1.397   6.356   2.916
 2665SOL     OW 8338   1.209   6.111   2.137
 2665SOL    HW1 8339   1.222   6.027   2.191
 2665SOL    HW2 8340   1.180   6.185   2.197
 2666SOL     OW 8341   0.307   5.799   3.093
 2666SOL    HW1 8342   0.284   5.836   3.183
 2666SOL    HW2 8343   0.277   5.704   3.087
 2667SOL     OW 8344   0.037   6.896   3.144
 2667SOL    HW1 8345   0.090   6.847   3.212
 2667SOL    HW2 8346   0.059   6.994   3.149
 2668SOL     OW 8347   0.732   6.220   2.926
 2668SOL    HW1 8348   0.791   6.194   2.850
 2668SOL    HW2 8349   0.704   6.316   2.915
 2669SOL     OW 8350   1.728   6.521   3.716
 2669SOL    HW1 8351   1.682   6.514   3.627
 2669SOL    HW2 8352   1.666   6.565   3.782
 2670SOL     OW 8353   0.307   5.649   2.480
 2670SOL    HW1 8354   0.296   5.743   2.513
 2670SOL    HW2 8355   0.302   5.586   2.557
 2671SOL     OW 8356   1.622   5.953   2.236
 2671SOL    HW1 8357   1.624   5.877   2.300
 2671SOL    HW2 8358   1.574   6.030   2.276
 2672SOL     OW 8359   1.023   6.352   2.828
 2672SOL    HW1 8360   1.038   6.373   2.924
 2672SOL    HW2 8361   0.993   6.257   2.819
 2673SOL     OW 8362   0.980   7.159   3.562
 2673SOL    HW1 8363   0.960   7.203   3.474
 2673SOL    HW2 8364   1.019   7.068   3.546
 2674SOL     OW 8365   1.859   7.104   3.467
 2674SOL    HW1 8366   1.873   7.131   3.372
 2674SOL    HW2 8367   1.942   7.126   3.520
 2675SOL     OW 8368   0.350   6.484   3.666
 2675SOL    HW1 8369   0.426   6.528   3.714
 2675SOL    HW2 8370   0.385   6.437   3.584
 2676SOL     OW 8371   1.540   5.860   1.987
 2676SOL    HW1 8372   1.479   5.785   2.010
 2676SOL    HW2 8373   1.562   5.912   2.070
 2677SOL     OW 8374   1.303   6.424   1.904
 2677SOL    HW1 8375   1.337   6.331   1.919
 2677SOL    HW2 8376   1.321   6.451   1.809
 2678SOL     OW 8377   1.068   6.919   2.711
 2678SOL    HW1 8378   1.075   6.835   2.656
 2678SOL    HW2 8379   1.130   6.988   2.675
 2679SOL     OW 8380   0.319   6.396   2.811
 2679SOL    HW1 8381   0.412   6.432   2.816
 2679SOL    HW2 8382   0.313   6.311   2.863
 2680SOL     OW 8383   0.339   6.095   2.868
 2680SOL    HW1 8384   0.287   6.012   2.851
 2680SOL    HW2 8385   0.416   6.100   2.804
 2681SOL     OW 8386   1.138   5.966   3.540
 2681SOL    HW1 8387   1.093   6.029   3.604
 2681SOL    HW2 8388   1.231   5.997   3.523
 2682SOL     OW 8389   1.160   5.793   3.339
 2682SOL    HW1 8390   1.160   5.857   3.416
 2682SOL    HW2 8391   1.188   5.841   3.256
 2683SOL     OW 8392   0.008   6.912   2.062
 2683SOL    HW1 8393  -0.085   6.933   2.031
 2683SOL    HW2 8394   0.018   6.813   2.075
 2684SOL     OW 8395   0.088   7.387   2.789
 2684SOL    HW1 8396   0.046   7.301   2.762
 2684SOL    HW2 8397   0.182   7.390   2.755
 2685SOL     OW 8398   0.504   7.154   2.772
 2685SOL    HW1 8399   0.570   7.228   2.781
 2685SOL    HW2 8400   0.548   7.075   2.730
 2686SOL     OW 8401   1.002   6.382   3.100
 2686SOL    HW1 8402   1.043   6.350   3.186
 2686SOL    HW2 8403   0.906   6.355   3.097
 2687SOL     OW 8404   0.040   6.130   2.976
 2687SOL    HW1 8405   0.125   6.097   2.935
 2687SOL    HW2 8406   0.053   6.145   3.074
 2688SOL     OW 8407   0.189   6.106   3.584
 2688SOL    HW1 8408   0.248   6.066   3.514
 2688SOL    HW2 8409   0.131   6.177   3.543
 2689SOL     OW 8410   1.369   6.536   3.522
 2689SOL    HW1 8411   1.408   6.625   3.542
 2689SOL    HW2 8412   1.379   6.516   3.425
 2690SOL     OW 8413   0.815   6.158   2.187
 2690SOL    HW1 8414   0.822   6.069   2.141
 2690SOL    HW2 8415   0.721   6.192   2.179
 2691SOL     OW 8416   1.657   6.190   3.068
 2691SOL    HW1 8417   1.619   6.121   3.130
 2691SOL    HW2 8418   1.739   6.154   3.024
 2692SOL     OW 8419   0.252   7.150   3.606
 2692SOL    HW1 8420   0.222   7.207   3.682
 2692SOL    HW2 8421   0.245   7.053   3.632
 2693SOL     OW 8422   0.671   6.050   3.131
 2693SOL    HW1 8423   0.637   5.961   3.101
 2693SOL    HW2 8424   0.697   6.104   3.051
 2694SOL     OW 8425   0.930   7.264   3.327
 2694SOL    HW1 8426   0.906   7.246   3.232
 2694SOL    HW2 8427   0.960   7.358   3.337
 2695SOL     OW 8428   0.473   6.086   2.053
 2695SOL    HW1 8429   0.534   6.166   2.057
 2695SOL    HW2 8430   0.378   6.117   2.060
 2696SOL     OW 8431   0.159   6.723   3.328
 2696SOL    HW1 8432   0.181   6.662   3.404
 2696SOL    HW2 8433   0.169   6.674   3.242
 2697SOL     OW 8434   1.347   6.645   3.096
 2697SOL    HW1 8435   1.371   6.582   3.022
 2697SOL    HW2 8436   1.257   6.685   3.078
 2698SOL     OW 8437   1.302   6.441   2.171
 2698SOL    HW1 8438   1.216   6.410   2.213
 2698SOL    HW2 8439   1.298   6.427   2.072
 2699SOL     OW 8440   1.759   7.333   3.016
 2699SOL    HW1 8441   1.820   7.363   2.943
 2699SOL    HW2 8442   1.721   7.244   2.994
 2700SOL     OW 8443   1.252   7.317   2.990
 2700SOL    HW1 8444   1.336   7.322   2.936
 2700SOL    HW2 8445   1.229   7.221   3.008
 2701SOL     OW 8446   0.083   6.844   2.884
 2701SOL    HW1 8447   0.078   6.843   2.984
 2701SOL    HW2 8448   0.000   6.803   2.846
 2702SOL     OW 8449   0.688   7.248   3.578
 2702SOL    HW1 8450   0.632   7.329   3.587
 2702SOL    HW2 8451   0.740   7.252   3.492
 2703SOL     OW 8452   1.726   5.721   2.385
 2703SOL    HW1 8453   1.799   5.704   2.318
 2703SOL    HW2 8454   1.695   5.634   2.423
 2704SOL     OW 8455   1.388   7.159   2.339
 2704SOL    HW1 8456   1.455   7.171   2.265
 2704SOL    HW2 8457   1.348   7.248   2.362
 2705SOL     OW 8458   0.130   7.380   3.713
 2705SOL    HW1 8459   0.089   7.306   3.766
 2705SOL    HW2 8460   0.194   7.431   3.771
 2706SOL     OW 8461   1.280   6.513   2.534
 2706SOL    HW1 8462   1.340   6.432   2.536
 2706SOL    HW2 8463   1.320   6.582   2.474
 2707SOL     OW 8464   0.830   6.859   3.284
 2707SOL    HW1 8465   0.825   6.892   3.379
 2707SOL    HW2 8466   0.744   6.878   3.238
 2708SOL     OW 8467   0.672   7.202   2.016
 2708SOL    HW1 8468   0.681   7.212   1.917
 2708SOL    HW2 8469   0.632   7.113   2.037
 2709SOL     OW 8470   1.650   7.306   3.256
 2709SOL    HW1 8471   1.703   7.316   3.172
 2709SOL    HW2 8472   1.623   7.396   3.290
 2710SOL     OW 8473   1.841   5.761   2.825
 2710SOL    HW1 8474   1.880   5.676   2.789
 2710SOL    HW2 8475   1.743   5.763   2.806
 2711SOL     OW 8476   0.263   5.912   2.582
 2711SOL    HW1 8477   0.184   5.963   2.548
 2711SOL    HW2 8478   0.254   5.897   2.680
 2712SOL     OW 8479   1.194   7.198   1.893
 2712SOL    HW1 8480   1.200   7.105   1.930
 2712SOL    HW2 8481   1.135   7.198   1.813
 2713SOL     OW 8482   0.822   6.588   3.234
 2713SOL    HW1 8483   0.862   6.587   3.142
 2713SOL    HW2 8484   0.832   6.680   3.274
 2714SOL     OW 8485   0.916   6.496   2.153
 2714SOL    HW1 8486   0.979   6.534   2.085
 2714SOL    HW2 8487   0.956   6.413   2.192
 2715SOL     OW 8488   1.504   7.193   1.906
 2715SOL    HW1 8489   1.412   7.230   1.913
 2715SOL    HW2 8490   1.542   7.213   1.816
 2716SOL     OW 8491   0.372   6.874   3.352
 2716SOL    HW1 8492   0.359   6.967   3.318
 2716SOL    HW2 8493   0.288   6.822   3.339
 2717SOL     OW 8494   1.614   6.878   3.151
 2717SOL    HW1 8495   1.674   6.881   3.231
 2717SOL    HW2 8496   1.539   6.942   3.164
 2718SOL     OW 8497   1.039   6.684   2.558
 2718SOL    HW1 8498   0.969   6.637   2.612
 2718SOL    HW2 8499   1.098   6.616   2.515
 2719SOL     OW 8500   1.014   5.822   2.833
 2719SOL    HW1 8501   1.006   5.786   2.740
 2719SOL    HW2 8502   1.012   5.746   2.898
 2720SOL     OW 8503   0.590   7.073   2.353
 2720SOL    HW1 8504   0.632   7.015   2.283
 2720SOL    HW2 8505   0.546   7.152   2.309
 2721SOL     OW 8506   1.709   5.971   3.243
 2721SOL    HW1 8507   1.782   6.040   3.247
 2721SOL    HW2 8508   1.737   5.896   3.184
 2722SOL     OW 8509   0.255   6.934   2.152
 2722SOL    HW1 8510   0.159   6.935   2.125
 2722SOL    HW2 8511   0.267   6.987   2.236
 2723SOL     OW 8512   0.105   6.599   3.588
 2723SOL    HW1 8513   0.028   6.566   3.642
 2723SOL    HW2 8514   0.190   6.569   3.630
 2724SOL     OW 8515   0.672   5.789   3.351
 2724SOL    HW1 8516   0.762   5.773   3.311
 2724SOL    HW2 8517   0.680   5.794   3.450
 2725SOL     OW 8518   0.075   5.931   1.895
 2725SOL    HW1 8519  -0.017   5.903   1.866
 2725SOL    HW2 8520   0.106   6.008   1.839
 2726SOL     OW 8521   1.440   6.442   3.260
 2726SOL    HW1 8522   1.383   6.494   3.197
 2726SOL    HW2 8523   1.536   6.454   3.236
 2727SOL     OW 8524   0.072   5.752   2.180
 2727SOL    HW1 8525   0.055   5.835   2.126
 2727SOL    HW2 8526   0.162   5.715   2.158
 2728SOL     OW 8527   1.183   6.921   1.981
 2728SOL    HW1 8528   1.084   6.910   1.983
 2728SOL    HW2 8529   1.217   6.936   2.074
 2729SOL     OW 8530   0.613   6.428   3.293
 2729SOL    HW1 8531   0.669   6.509   3.276
 2729SOL    HW2 8532   0.672   6.348   3.296
 2730SOL     OW 8533   1.493   7.353   2.821
 2730SOL    HW1 8534   1.526   7.417   2.752
 2730SOL    HW2 8535   1.559   7.347   2.896
 2731SOL     OW 8536   0.716   6.151   3.570
 2731SOL    HW1 8537   0.735   6.216   3.644
 2731SOL    HW2 8538   0.776   6.071   3.579
 2732SOL     OW 8539   1.450   6.806   3.495
 2732SOL    HW1 8540   1.441   6.796   3.594
 2732SOL    HW2 8541   1.546   6.799   3.469
 2733SOL     OW 8542   0.390   7.327   3.422
 2733SOL    HW1 8543   0.299   7.368   3.420
 2733SOL    HW2 8544   0.383   7.233   3.454
 2734SOL     OW 8545   1.674   6.469   3.116
 2734SOL    HW1 8546   1.647   6.380   3.079
 2734SOL    HW2 8547   1.675   6.537   3.043
 2735SOL     OW 8548   1.225   5.911   2.311
 2735SOL    HW1 8549   1.290   5.837   2.300
 2735SOL    HW2 8550   1.245   5.961   2.395
 2736SOL     OW 8551   0.594   6.331   2.514
 2736SOL    HW1 8552   0.644   6.416   2.495
 2736SOL    HW2 8553   0.506   6.333   2.466
 2737SOL     OW 8554   1.777   5.928   3.504
 2737SOL    HW1 8555   1.760   5.959   3.410
 2737SOL    HW2 8556   1.693   5.891   3.542
 2738SOL     OW 8557   1.730   6.520   3.379
 2738SOL    HW1 8558   1.768   6.611   3.394
 2738SOL    HW2 8559   1.722   6.503   3.280
 2739SOL     OW 8560   0.859   6.960   1.878
 2739SOL    HW1 8561   0.813   6.975   1.966
 2739SOL    HW2 8562   0.903   7.045   1.848
 2740SOL     OW 8563   0.661   7.376   2.815
 2740SOL    HW1 8564   0.615   7.464   2.802
 2740SOL    HW2 8565   0.760   7.388   2.808
 2741SOL     OW 8566   0.859   6.542   2.723
 2741SOL    HW1 8567   0.913   6.473   2.771
 2741SOL    HW2 8568   0.827   6.611   2.789
 2742SOL     OW 8569   1.083   6.570   1.949
 2742SOL    HW1 8570   1.060   6.623   1.867
 2742SOL    HW2 8571   1.164   6.514   1.930
 2743SOL     OW 8572   1.861   7.155   2.713
 2743SOL    HW1 8573   1.790   7.143   2.643
 2743SOL    HW2 8574   1.862   7.076   2.773
 2744SOL     OW 8575   0.221   6.900   3.706
 2744SOL    HW1 8576   0.156   6.827   3.685
 2744SOL    HW2 8577   0.225   6.914   3.804
 2745SOL     OW 8578   0.079   6.826   2.515
 2745SOL    HW1 8579   0.078   6.779   2.603
 2745SOL    HW2 8580   0.161   6.798   2.464
 2746SOL     OW 8581   0.672   6.977   3.486
 2746SOL    HW1 8582   0.594   6.927   3.524
 2746SOL    HW2 8583   0.669   7.072   3.517
 2747SOL     OW 8584   1.824   5.778   3.089
 2747SOL    HW1 8585   1.820   5.688   3.133
 2747SOL    HW2 8586   1.827   5.767   2.990
 2748SOL     OW 8587   0.428   6.010   2.382
 2748SOL    HW1 8588   0.458   5.938   2.320
 2748SOL    HW2 8589   0.389   5.970   2.465
 2749SOL     OW 8590   1.705   7.073   2.966
 2749SOL    HW1 8591   1.612   7.048   2.939
 2749SOL    HW2 8592   1.731   7.023   3.048
 2750SOL     OW 8593   0.317   6.133   3.142
 2750SOL    HW1 8594   0.355   6.074   3.214
 2750SOL    HW2 8595   0.357   6.107   3.054
 2751SOL     OW 8596   1.424   5.800   2.974
 2751SOL    HW1 8597   1.476   5.735   3.029
 2751SOL    HW2 8598   1.375   5.863   3.035
 2752SOL     OW 8599   1.001   5.620   3.016
 2752SOL    HW1 8600   0.938   5.548   2.985
 2752SOL    HW2 8601   1.094   5.584   3.016
 2753SOL     OW 8602   0.770   6.916   2.163
 2753SOL    HW1 8603   0.724   6.829   2.180
 2753SOL    HW2 8604   0.861   6.913   2.204
 2754SOL     OW 8605   0.618   7.153   3.146
 2754SOL    HW1 8606   0.613   7.235   3.203
 2754SOL    HW2 8607   0.707   7.150   3.101
 2755SOL     OW 8608   1.352   5.638   2.030
 2755SOL    HW1 8609   1.387   5.597   1.946
 2755SOL    HW2 8610   1.262   5.600   2.050
 2756SOL     OW 8611   1.300   6.039   2.553
 2756SOL    HW1 8612   1.241   6.119   2.557
 2756SOL    HW2 8613   1.315   6.004   2.646
 2757SOL     OW 8614   1.593   5.807   2.744
 2757SOL    HW1 8615   1.509   5.806   2.798
 2757SOL    HW2 8616   1.595   5.890   2.688
 2758SOL     OW 8617   0.039   6.663   2.162
 2758SOL    HW1 8618   0.138   6.652   2.153
 2758SOL    HW2 8619  -0.001   6.577   2.194
 2759SOL     OW 8620   0.875   7.232   2.199
 2759SOL    HW1 8621   0.798   7.197   2.145
 2759SOL    HW2 8622   0.843   7.303   2.261
 2760SOL     OW 8623   0.230   6.214   3.837
 2760SOL    HW1 8624   0.137   6.212   3.874
 2760SOL    HW2 8625   0.231   6.175   3.745
 2761SOL     OW 8626   0.225   5.861   4.720
 2761SOL    HW1 8627   0.260   5.844   4.812
 2761SOL    HW2 8628   0.137   5.816   4.708
 2762SOL     OW 8629   0.019   5.954   4.371
 2762SOL    HW1 8630  -0.063   5.997   4.410
 2762SOL    HW2 8631  -0.009   5.881   4.308
 2763SOL     OW 8632   0.569   6.861   4.889
 2763SOL    HW1 8633   0.476   6.854   4.852
 2763SOL    HW2 8634   0.580   6.950   4.933
 2764SOL     OW 8635   1.555   7.097   4.427
 2764SOL    HW1 8636   1.498   7.081   4.508
 2764SOL    HW2 8637   1.496   7.107   4.347
 2765SOL     OW 8638   1.135   6.289   4.441
 2765SOL    HW1 8639   1.192   6.367   4.416
 2765SOL    HW2 8640   1.075   6.315   4.517
 2766SOL     OW 8641   1.755   6.193   3.955
 2766SOL    HW1 8642   1.743   6.180   3.856
 2766SOL    HW2 8643   1.725   6.112   4.004
 2767SOL     OW 8644   0.768   6.730   4.747
 2767SOL    HW1 8645   0.690   6.747   4.807
 2767SOL    HW2 8646   0.802   6.817   4.711
 2768SOL     OW 8647   0.850   6.384   5.547
 2768SOL    HW1 8648   0.846   6.460   5.612
 2768SOL    HW2 8649   0.872   6.420   5.456
 2769SOL     OW 8650   0.685   6.598   4.389
 2769SOL    HW1 8651   0.754   6.582   4.459
 2769SOL    HW2 8652   0.612   6.655   4.427
 2770SOL     OW 8653   0.686   6.747   5.527
 2770SOL    HW1 8654   0.746   6.826   5.541
 2770SOL    HW2 8655   0.600   6.778   5.486
 2771SOL     OW 8656   0.335   7.021   4.785
 2771SOL    HW1 8657   0.257   6.990   4.732
 2771SOL    HW2 8658   0.393   7.079   4.728
 2772SOL     OW 8659   1.460   7.091   5.063
 2772SOL    HW1 8660   1.484   7.185   5.089
 2772SOL    HW2 8661   1.444   7.037   5.145
 2773SOL     OW 8662   0.438   5.978   5.223
 2773SOL    HW1 8663   0.520   5.922   5.232
 2773SOL    HW2 8664   0.357   5.920   5.227
 2774SOL     OW 8665   1.603   6.033   4.461
 2774SOL    HW1 8666   1.529   6.079   4.411
 2774SOL    HW2 8667   1.654   6.101   4.514
 2775SOL     OW 8668   0.231   7.299   4.207
 2775SOL    HW1 8669   0.265   7.376   4.261
 2775SOL    HW2 8670   0.275   7.299   4.117
 2776SOL     OW 8671   1.127   6.927   5.414
 2776SOL    HW1 8672   1.174   6.927   5.502
 2776SOL    HW2 8673   1.079   6.840   5.403
 2777SOL     OW 8674   0.230   7.020   4.262
 2777SOL    HW1 8675   0.204   7.116   4.262
 2777SOL    HW2 8676   0.159   6.966   4.307
 2778SOL     OW 8677   0.240   6.677   4.610
 2778SOL    HW1 8678   0.254   6.593   4.662
 2778SOL    HW2 8679   0.185   6.741   4.665
 2779SOL     OW 8680   0.620   7.372   5.163
 2779SOL    HW1 8681   0.528   7.355   5.198
 2779SOL    HW2 8682   0.648   7.464   5.189
 2780SOL     OW 8683   0.606   6.550   3.847
 2780SOL    HW1 8684   0.613   6.634   3.793
 2780SOL    HW2 8685   0.652   6.563   3.935
 2781SOL     OW 8686   1.594   5.700   5.204
 2781SOL    HW1 8687   1.576   5.767   5.132
 2781SOL    HW2 8688   1.591   5.746   5.293
 2782SOL     OW 8689   0.122   6.229   4.287
 2782SOL    HW1 8690   0.077   6.141   4.304
 2782SOL    HW2 8691   0.121   6.283   4.371
 2783SOL     OW 8692   1.842   7.353   4.083
 2783SOL    HW1 8693   1.896   7.324   4.163
 2783SOL    HW2 8694   1.872   7.443   4.054
 2784SOL     OW 8695   0.027   7.182   3.841
 2784SOL    HW1 8696   0.008   7.086   3.862
 2784SOL    HW2 8697  -0.006   7.240   3.916
 2785SOL     OW 8698   1.689   6.508   4.336
 2785SOL    HW1 8699   1.784   6.479   4.344
 2785SOL    HW2 8700   1.681   6.573   4.261
 2786SOL     OW 8701   1.641   6.694   4.156
 2786SOL    HW1 8702   1.727   6.696   4.104
 2786SOL    HW2 8703   1.655   6.741   4.244
 2787SOL     OW 8704   0.113   6.323   5.321
 2787SOL    HW1 8705   0.201   6.310   5.366
 2787SOL    HW2 8706   0.100   6.420   5.299
 2788SOL     OW 8707   0.613   6.951   4.450
 2788SOL    HW1 8708   0.564   6.864   4.459
 2788SOL    HW2 8709   0.590   6.994   4.363
 2789SOL     OW 8710   1.293   6.814   5.147
 2789SOL    HW1 8711   1.330   6.741   5.089
 2789SOL    HW2 8712   1.345   6.819   5.232
 2790SOL     OW 8713   0.809   5.590   4.226
 2790SOL    HW1 8714   0.849   5.681   4.217
 2790SOL    HW2 8715   0.709   5.598   4.232
 2791SOL     OW 8716   0.197   6.562   4.988
 2791SOL    HW1 8717   0.286   6.517   4.974
 2791SOL    HW2 8718   0.124   6.497   4.969
 2792SOL     OW 8719   1.525   6.585   3.914
 2792SOL    HW1 8720   1.462   6.509   3.927
 2792SOL    HW2 8721   1.573   6.603   4.000
 2793SOL     OW 8722   1.187   7.378   5.340
 2793SOL    HW1 8723   1.211   7.438   5.264
 2793SOL    HW2 8724   1.194   7.283   5.310
 2794SOL     OW 8725   0.317   5.837   5.525
 2794SOL    HW1 8726   0.388   5.908   5.531
 2794SOL    HW2 8727   0.229   5.876   5.553
 2795SOL     OW 8728   1.466   7.003   4.677
 2795SOL    HW1 8729   1.407   7.009   4.757
 2795SOL    HW2 8730   1.451   6.915   4.631
 2796SOL     OW 8731   1.667   7.300   4.296
 2796SOL    HW1 8732   1.626   7.277   4.208
 2796SOL    HW2 8733   1.649   7.226   4.361
 2797SOL     OW 8734   0.598   6.315   3.994
 2797SOL    HW1 8735   0.622   6.384   3.926
 2797SOL    HW2 8736   0.520   6.348   4.048
 2798SOL     OW 8737   1.281   5.931   4.668
 2798SOL    HW1 8738   1.195   5.881   4.655
 2798SOL    HW2 8739   1.343   5.877   4.724
 2799SOL     OW 8740   1.576   7.248   4.031
 2799SOL    HW1 8741   1.665   7.294   4.034
 2799SOL    HW2 8742   1.555   7.224   3.936
 2800SOL     OW 8743   0.807   6.191   5.189
 2800SOL    HW1 8744   0.760   6.188   5.278
 2800SOL    HW2 8745   0.756   6.136   5.123
 2801SOL     OW 8746   1.394   6.055   5.398
 2801SOL    HW1 8747   1.374   6.098   5.486
 2801SOL    HW2 8748   1.472   5.993   5.407
 2802SOL     OW 8749   0.973   6.476   5.296
 2802SOL    HW1 8750   1.019   6.392   5.267
 2802SOL    HW2 8751   0.917   6.510   5.221
 2803SOL     OW 8752   0.991   5.996   4.966
 2803SOL    HW1 8753   0.914   6.030   5.020
 2803SOL    HW2 8754   0.957   5.945   4.887
 2804SOL     OW 8755   1.041   6.287   4.153
 2804SOL    HW1 8756   1.067   6.283   4.249
 2804SOL    HW2 8757   0.956   6.236   4.139
 2805SOL     OW 8758   0.076   6.397   4.513
 2805SOL    HW1 8759   0.175   6.385   4.522
 2805SOL    HW2 8760   0.052   6.492   4.534
 2806SOL     OW 8761   0.130   7.407   5.295
 2806SOL    HW1 8762   0.120   7.392   5.394
 2806SOL    HW2 8763   0.044   7.443   5.259
 2807SOL     OW 8764   0.865   5.934   3.919
 2807SOL    HW1 8765   0.924   5.997   3.870
 2807SOL    HW2 8766   0.884   5.840   3.890
 2808SOL     OW 8767   1.719   6.171   5.555
 2808SOL    HW1 8768   1.693   6.260   5.519
 2808SOL    HW2 8769   1.717   6.103   5.482
 2809SOL     OW 8770   1.362   6.730   4.269
 2809SOL    HW1 8771   1.445   6.701   4.221
 2809SOL    HW2 8772   1.313   6.797   4.213
 2810SOL     OW 8773   0.550   5.782   4.609
 2810SOL    HW1 8774   0.545   5.777   4.709
 2810SOL    HW2 8775   0.552   5.878   4.580
 2811SOL     OW 8776   1.008   7.042   4.201
 2811SOL    HW1 8777   0.962   7.114   4.149
 2811SOL    HW2 8778   1.004   7.062   4.299
 2812SOL     OW 8779   0.351   7.387   4.577
 2812SOL    HW1 8780   0.401   7.301   4.583
 2812SOL    HW2 8781   0.416   7.464   4.574
 2813SOL     OW 8782   1.795   6.652   4.597
 2813SOL    HW1 8783   1.733   6.637   4.521
 2813SOL    HW2 8784   1.743   6.663   4.682
 2814SOL     OW 8785   1.227   7.136   5.230
 2814SOL    HW1 8786   1.233   7.059   5.294
 2814SOL    HW2 8787   1.175   7.110   5.150
 2815SOL     OW 8788   0.321   6.529   3.966
 2815SOL    HW1 8789   0.403   6.568   3.924
 2815SOL    HW2 8790   0.294   6.447   3.917
 2816SOL     OW 8791   1.458   6.321   4.452
 2816SOL    HW1 8792   1.453   6.256   4.527
 2816SOL    HW2 8793   1.538   6.380   4.465
 2817SOL     OW 8794   0.461   6.852   5.451
 2817SOL    HW1 8795   0.411   6.853   5.365
 2817SOL    HW2 8796   0.398   6.834   5.527
 2818SOL     OW 8797   1.111   7.362   3.961
 2818SOL    HW1 8798   1.051   7.300   4.011
 2818SOL    HW2 8799   1.142   7.318   3.876
 2819SOL     OW 8800   0.202   5.871   5.222
 2819SOL    HW1 8801   0.122   5.931   5.209
 2819SOL    HW2 8802   0.192   5.822   5.308
 2820SOL     OW 8803   1.632   6.963   3.805
 2820SOL    HW1 8804   1.600   7.057   3.795
 2820SOL    HW2 8805   1.556   6.900   3.793
 2821SOL     OW 8806   0.464   7.329   4.047
 2821SOL    HW1 8807   0.497   7.368   4.133
 2821SOL    HW2 8808   0.540   7.322   3.982
 2822SOL     OW 8809   1.400   5.693   4.150
 2822SOL    HW1 8810   1.376   5.656   4.060
 2822SOL    HW2 8811   1.499   5.709   4.154
 2823SOL     OW 8812   0.249   7.371   4.965
 2823SOL    HW1 8813   0.306   7.306   5.015
 2823SOL    HW2 8814   0.233   7.338   4.872
 2824SOL     OW 8815   0.940   7.284   4.628
 2824SOL    HW1 8816   1.020   7.227   4.649
 2824SOL    HW2 8817   0.891   7.244   4.551
 2825SOL     OW 8818   0.382   6.286   4.204
 2825SOL    HW1 8819   0.427   6.196   4.201
 2825SOL    HW2 8820   0.288   6.275   4.237
 2826SOL     OW 8821   1.547   5.808   5.453
 2826SOL    HW1 8822   1.542   5.845   5.545
 2826SOL    HW2 8823   1.475   5.739   5.441
 2827SOL     OW 8824   0.614   5.708   3.841
 2827SOL    HW1 8825   0.712   5.686   3.848
 2827SOL    HW2 8826   0.583   5.691   3.748
 2828SOL     OW 8827   0.781   5.850   5.473
 2828SOL    HW1 8828   0.848   5.789   5.516
 2828SOL    HW2 8829   0.708   5.869   5.538
 2829SOL     OW 8830   0.888   7.100   4.919
 2829SOL    HW1 8831   0.865   7.075   4.825
 2829SOL    HW2 8832   0.949   7.031   4.958
 2830SOL     OW 8833   1.351   6.176   5.157
 2830SOL    HW1 8834   1.379   6.133   5.242
 2830SOL    HW2 8835   1.376   6.272   5.158
 2831SOL     OW 8836   0.803   6.988   4.648
 2831SOL    HW1 8837   0.893   7.002   4.606
 2831SOL    HW2 8838   0.732   6.990   4.577
 2832SOL     OW 8839   0.922   6.089   4.623
 2832SOL    HW1 8840   0.897   6.080   4.527
 2832SOL    HW2 8841   0.970   6.007   4.654
 2833SOL     OW 8842   0.539   5.650   4.236
 2833SOL    HW1 8843   0.458   5.651   4.294
 2833SOL    HW2 8844   0.542   5.733   4.181
 2834SOL     OW 8845   1.434   6.774   3.765
 2834SOL    HW1 8846   1.466   6.698   3.822
 2834SOL    HW2 8847   1.342   6.801   3.795
 2835SOL     OW 8848   0.297   5.621   3.895
 2835SOL    HW1 8849   0.346   5.705   3.874
 2835SOL    HW2 8850   0.359   5.556   3.940
 2836SOL     OW 8851   0.935   5.822   4.204
 2836SOL    HW1 8852   0.887   5.863   4.126
 2836SOL    HW2 8853   1.034   5.820   4.185
 2837SOL     OW 8854   1.076   6.269   5.188
 2837SOL    HW1 8855   0.996   6.208   5.191
 2837SOL    HW2 8856   1.157   6.216   5.164
 2838SOL     OW 8857   1.227   7.156   4.517
 2838SOL    HW1 8858   1.248   7.230   4.452
 2838SOL    HW2 8859   1.295   7.156   4.590
 2839SOL     OW 8860   0.459   6.738   4.465
 2839SOL    HW1 8861   0.388   6.711   4.530
 2839SOL    HW2 8862   0.433   6.710   4.372
 2840SOL     OW 8863   1.271   7.383   4.315
 2840SOL    HW1 8864   1.315   7.447   4.251
 2840SOL    HW2 8865   1.221   7.435   4.385
 2841SOL     OW 8866   1.032   6.135   3.740
 2841SOL    HW1 8867   0.991   6.217   3.701
 2841SOL    HW2 8868   1.096   6.161   3.813
 2842SOL     OW 8869   0.078   6.142   5.110
 2842SOL    HW1 8870   0.170   6.141   5.069
 2842SOL    HW2 8871   0.072   6.216   5.177
 2843SOL     OW 8872   0.561   5.808   4.871
 2843SOL    HW1 8873   0.599   5.724   4.908
 2843SOL    HW2 8874   0.473   5.827   4.915
 2844SOL     OW 8875   0.866   6.040   4.366
 2844SOL    HW1 8876   0.834   6.112   4.304
 2844SOL    HW2 8877   0.890   5.959   4.313
 2845SOL     OW 8878   1.017   5.625   4.477
 2845SOL    HW1 8879   0.945   5.630   4.408
 2845SOL    HW2 8880   0.993   5.556   4.546
 2846SOL     OW 8881   1.429   6.759   4.591
 2846SOL    HW1 8882   1.374   6.675   4.584
 2846SOL    HW2 8883   1.455   6.788   4.499
 2847SOL     OW 8884   1.466   6.176   4.716
 2847SOL    HW1 8885   1.436   6.081   4.723
 2847SOL    HW2 8886   1.539   6.192   4.782
 2848SOL     OW 8887   1.857   6.419   4.101
 2848SOL    HW1 8888   1.899   6.355   4.165
 2848SOL    HW2 8889   1.819   6.368   4.023
 2849SOL     OW 8890   0.488   6.971   3.898
 2849SOL    HW1 8891   0.401   6.956   3.945
 2849SOL    HW2 8892   0.471   6.997   3.803
 2850SOL     OW 8893   1.664   6.866   4.381
 2850SOL    HW1 8894   1.763   6.874   4.395
 2850SOL    HW2 8895   1.619   6.950   4.412
 2851SOL     OW 8896   1.390   6.161   3.802
 2851SOL    HW1 8897   1.336   6.140   3.883
 2851SOL    HW2 8898   1.481   6.120   3.811
 2852SOL     OW 8899   0.527   5.842   4.052
 2852SOL    HW1 8900   0.554   5.783   3.977
 2852SOL    HW2 8901   0.527   5.937   4.021
 2853SOL     OW 8902   1.754   6.809   5.312
 2853SOL    HW1 8903   1.845   6.770   5.299
 2853SOL    HW2 8904   1.762   6.905   5.336
 2854SOL     OW 8905   1.064   6.933   5.064
 2854SOL    HW1 8906   0.984   6.910   5.119
 2854SOL    HW2 8907   1.147   6.907   5.113
 2855SOL     OW 8908   1.592   7.215   5.349
 2855SOL    HW1 8909   1.619   7.249   5.259
 2855SOL    HW2 8910   1.671   7.177   5.395
 2856SOL     OW 8911   1.111   6.781   4.824
 2856SOL    HW1 8912   1.071   6.825   4.905
 2856SOL    HW2 8913   1.070   6.818   4.741
 2857SOL     OW 8914   1.638   6.685   4.803
 2857SOL    HW1 8915   1.643   6.766   4.862
 2857SOL    HW2 8916   1.552   6.687   4.752
 2858SOL     OW 8917   0.915   5.675   5.126
 2858SOL    HW1 8918   0.940   5.655   5.031
 2858SOL    HW2 8919   0.987   5.731   5.168
 2859SOL     OW 8920   0.980   6.702   5.443
 2859SOL    HW1 8921   0.881   6.708   5.453
 2859SOL    HW2 8922   1.003   6.622   5.387
 2860SOL     OW 8923   0.705   6.636   4.092
 2860SOL    HW1 8924   0.691   6.643   4.191
 2860SOL    HW2 8925   0.789   6.585   4.074
 2861SOL     OW 8926   0.410   6.399   4.975
 2861SOL    HW1 8927   0.496   6.411   5.025
 2861SOL    HW2 8928   0.368   6.312   5.002
 2862SOL     OW 8929   1.274   5.972   4.986
 2862SOL    HW1 8930   1.295   6.046   5.050
 2862SOL    HW2 8931   1.185   5.989   4.943
 2863SOL     OW 8932   0.064   7.150   5.055
 2863SOL    HW1 8933   0.018   7.232   5.021
 2863SOL    HW2 8934   0.162   7.169   5.064
 2864SOL     OW 8935   0.367   6.686   4.225
 2864SOL    HW1 8936   0.360   6.769   4.169
 2864SOL    HW2 8937   0.371   6.606   4.165
 2865SOL     OW 8938   0.566   6.123   4.589
 2865SOL    HW1 8939   0.578   6.189   4.515
 2865SOL    HW2 8940   0.612   6.157   4.672
 2866SOL     OW 8941   1.252   6.934   4.112
 2866SOL    HW1 8942   1.302   7.011   4.152
 2866SOL    HW2 8943   1.157   6.936   4.144
 2867SOL     OW 8944   1.272   7.031   4.866
 2867SOL    HW1 8945   1.319   7.044   4.953
 2867SOL    HW2 8946   1.206   6.957   4.875
 2868SOL     OW 8947   1.582   6.225   4.196
 2868SOL    HW1 8948   1.551   6.286   4.269
 2868SOL    HW2 8949   1.632   6.277   4.127
 2869SOL     OW 8950   0.354   7.096   5.053
 2869SOL    HW1 8951   0.333   7.052   4.966
 2869SOL    HW2 8952   0.451   7.122   5.056
 2870SOL     OW 8953   0.402   6.337   5.322
 2870SOL    HW1 8954   0.470   6.392   5.275
 2870SOL    HW2 8955   0.442   6.249   5.349
 2871SOL     OW 8956   1.587   6.365   5.394
 2871SOL    HW1 8957   1.495   6.403   5.389
 2871SOL    HW2 8958   1.647   6.412   5.329
 2872SOL     OW 8959   0.504   5.636   5.464
 2872SOL    HW1 8960   0.462   5.579   5.394
 2872SOL    HW2 8961   0.438   5.705   5.496
 2873SOL     OW 8962   0.573   6.456   4.753
 2873SOL    HW1 8963   0.617   6.545   4.744
 2873SOL    HW2 8964   0.510   6.456   4.830
 2874SOL     OW 8965   1.360   6.448   4.769
 2874SOL    HW1 8966   1.285   6.448   4.703
 2874SOL    HW2 8967   1.397   6.356   4.778
 2875SOL     OW 8968   1.209   6.111   3.999
 2875SOL    HW1 8969   1.222   6.027   4.053
 2875SOL    HW2 8970   1.180   6.185   4.059
 2876SOL     OW 8971   0.307   5.799   4.955
 2876SOL    HW1 8972   0.284   5.836   5.045
 2876SOL    HW2 8973   0.277   5.704   4.949
 2877SOL     OW 8974   0.037   6.896   5.006
 2877SOL    HW1 8975   0.090   6.847   5.074
 2877SOL    HW2 8976   0.059   6.994   5.011
 2878SOL     OW 8977   0.732   6.220   4.788
 2878SOL    HW1 8978   0.791   6.194   4.712
 2878SOL    HW2 8979   0.704   6.316   4.777
 2879SOL     OW 8980   1.728   6.521   5.578
 2879SOL    HW1 8981   1.682   6.514   5.489
 2879SOL    HW2 8982   1.666   6.565   5.644
 2880SOL     OW 8983   0.307   5.649   4.342
 2880SOL    HW1 8984   0.296   5.743   4.375
 2880SOL    HW2 8985   0.302   5.586   4.419
 2881SOL     OW 8986   1.622   5.953   4.098
 2881SOL    HW1 8987   1.624   5.877   4.162
 2881SOL    HW2 8988   1.574   6.030   4.138
 2882SOL     OW 8989   1.023   6.352   4.690
 2882SOL    HW1 8990   1.038   6.373   4.786
 2882SOL    HW2 8991   0.993   6.257   4.681
 2883SOL     OW 8992   0.980   7.159   5.424
 2883SOL    HW1 8993   0.960   7.203   5.336
 2883SOL    HW2 8994   1.019   7.068   5.408
 2884SOL     OW 8995   1.859   7.104   5.329
 2884SOL    HW1 8996   1.873   7.131   5.234
 2884SOL    HW2 8997   1.942   7.126   5.382
 2885SOL     OW 8998   0.350   6.484   5.528
 2885SOL    HW1 8999   0.426   6.528   5.576
 2885SOL    HW2 9000   0.385   6.437   5.446
 2886SOL     OW 9001   1.540   5.860   3.849
 2886SOL    HW1 9002   1.479   5.785   3.872
 2886SOL    HW2 9003   1.562   5.912   3.932
 2887SOL     OW 9004   1.303   6.424   3.766
 2887SOL    HW1 9005   1.337   6.331   3.781
 2887SOL    HW2 9006   1.321   6.451   3.671
 2888SOL     OW 9007   1.068   6.919   4.573
 2888SOL    HW1 9008   1.075   6.835   4.518
 2888SOL    HW2 9009   1.130   6.988   4.537
 2889SOL     OW 9010   0.319   6.396   4.673
 2889SOL    HW1 9011   0.412   6.432   4.678
 2889SOL    HW2 9012   0.313   6.311   4.725
 2890SOL     OW 9013   0.339   6.095   4.730
 2890SOL    HW1 9014   0.287   6.012   4.713
 2890SOL    HW2 9015   0.416   6.100   4.666
 2891SOL     OW 9016   1.138   5.966   5.402
 2891SOL    HW1 9017   1.093   6.029   5.466
 2891SOL    HW2 9018   1.231   5.997   5.385
 2892SOL     OW 9019   1.160   5.793   5.201
 2892SOL    HW1 9020   1.160   5.857   5.278
 2892SOL    HW2 9021   1.188   5.841   5.118
 2893SOL     OW 9022   0.008   6.912   3.924
 2893SOL    HW1 9023  -0.085   6.933   3.893
 2893SOL    HW2 9024   0.018   6.813   3.937
 2894SOL     OW 9025   0.088   7.387   4.651
 2894SOL    HW1 9026   0.046   7.301   4.624
 2894SOL    HW2 9027   0.182   7.390   4.617
 2895SOL     OW 9028   0.504   7.154   4.634
 2895SOL    HW1 9029   0.570   7.228   4.643
 2895SOL    HW2 9030   0.548   7.075   4.592
 2896SOL     OW 9031   1.002   6.382   4.962
 2896SOL    HW1 9032   1.043   6.350   5.048
 2896SOL    HW2 9033   0.906   6.355   4.959
 2897SOL     OW 9034   0.040   6.130   4.838
 2897SOL    HW1 9035   0.125   6.097   4.797
 2897SOL    HW2 9036   0.053   6.145   4.936
 2898SOL     OW 9037   0.189   6.106   5.446
 2898SOL    HW1 9038   0.248   6.066   5.376
 2898SOL    HW2 9039   0.131   6.177   5.405
 2899SOL     OW 9040   1.369   6.536   5.384
 2899SOL    HW1 9041   1.408   6.625   5.404
 2899SOL    HW2 9042   1.379   6.516   5.287
 2900SOL     OW 9043   0.815   6.158   4.049
 2900SOL    HW1 9044   0.822   6.069   4.003
 2900SOL    HW2 9045   0.721   6.192   4.041
 2901SOL     OW 9046   1.657   6.190   4.930
 2901SOL    HW1 9047   1.619   6.121   4.992
 2901SOL    HW2 9048   1.739   6.154   4.886
 2902SOL     OW 9049   0.252   7.150   5.468
 2902SOL    HW1 9050   0.222   7.207   5.544
 2902SOL    HW2 9051   0.245   7.053   5.494
 2903SOL     OW 9052   0.671   6.050   4.993
 2903SOL    HW1 9053   0.637   5.961   4.963
 2903SOL    HW2 9054   0.697   6.104   4.913
 2904SOL     OW 9055   0.930   7.264   5.189
 2904SOL    HW1 9056   0.906   7.246   5.094
 2904SOL    HW2 9057   0.960   7.358   5.199
 2905SOL     OW 9058   0.473   6.086   3.915
 2905SOL    HW1 9059   0.534   6.166   3.919
 2905SOL    HW2 9060   0.378   6.117   3.922
 2906SOL     OW 9061   0.159   6.723   5.190
 2906SOL    HW1 9062   0.181   6.662   5.266
 2906SOL    HW2 9063   0.169   6.674   5.104
 2907SOL     OW 9064   1.347   6.645   4.958
 2907SOL    HW1 9065   1.371   6.582   4.884
 2907SOL    HW2 9066   1.257   6.685   4.940
 2908SOL     OW 9067   1.302   6.441   4.033
 2908SOL    HW1 9068   1.216   6.410   4.075
 2908SOL    HW2 9069   1.298   6.427   3.934
 2909SOL     OW 9070   1.759   7.333   4.878
 2909SOL    HW1 9071   1.820   7.363   4.805
 2909SOL    HW2 9072   1.721   7.244   4.856
 2910SOL     OW 9073   1.252   7.317   4.852
 2910SOL    HW1 9074   1.336   7.322   4.798
 2910SOL    HW2 9075   1.229   7.221   4.870
 2911SOL     OW 9076   0.083   6.844   4.746
 2911SOL    HW1 9077   0.078   6.843   4.846
 2911SOL    HW2 9078   0.000   6.803   4.708
 2912SOL     OW 9079   0.688   7.248   5.440
 2912SOL    HW1 9080   0.632   7.329   5.449
 2912SOL    HW2 9081   0.740   7.252   5.354
 2913SOL     OW 9082   1.726   5.721   4.247
 2913SOL    HW1 9083   1.799   5.704   4.180
 2913SOL    HW2 9084   1.695   5.634   4.285
 2914SOL     OW 9085   1.388   7.159   4.201
 2914SOL    HW1 9086   1.455   7.171   4.127
 2914SOL    HW2 9087   1.348   7.248   4.224
 2915SOL     OW 9088   0.130   7.380   5.575
 2915SOL    HW1 9089   0.089   7.306   5.628
 2915SOL    HW2 9090   0.194   7.431   5.633
 2916SOL     OW 9091   1.280   6.513   4.396
 2916SOL    HW1 9092   1.340   6.432   4.398
 2916SOL    HW2 9093   1.320   6.582   4.336
 2917SOL     OW 9094   0.830   6.859   5.146
 2917SOL    HW1 9095   0.825   6.892   5.241
 2917SOL    HW2 9096   0.744   6.878   5.100
 2918SOL     OW 9097   0.672   7.202   3.878
 2918SOL    HW1 9098   0.681   7.212   3.779
 2918SOL    HW2 9099   0.632   7.113   3.899
 2919SOL     OW 9100   1.650   7.306   5.118
 2919SOL    HW1 9101   1.703   7.316   5.034
 2919SOL    HW2 9102   1.623   7.396   5.152
 2920SOL     OW 9103   1.841   5.761   4.687
 2920SOL    HW1 9104   1.880   5.676   4.651
 2920SOL    HW2 9105   1.743   5.763   4.668
 2921SOL     OW 9106   0.263   5.912   4.444
 2921SOL    HW1 9107   0.184   5.963   4.410
 2921SOL    HW2 9108   0.254   5.897   4.542
 2922SOL     OW 9109   1.194   7.198   3.755
 2922SOL    HW1 9110   1.200   7.105   3.792
 2922SOL    HW2 9111   1.135   7.198   3.675
 2923SOL     OW 9112   0.822   6.588   5.096
 2923SOL    HW1 9113   0.862   6.587   5.004
 2923SOL    HW2 9114   0.832   6.680   5.136
 2924SOL     OW 9115   0.916   6.496   4.015
 2924SOL    HW1 9116   0.979   6.534   3.947
 2924SOL    HW2 9117   0.956   6.413   4.054
 2925SOL     OW 9118   1.504   7.193   3.768
 2925SOL    HW1 9119   1.412   7.230   3.775
 2925SOL    HW2 9120   1.542   7.213   3.678
 2926SOL     OW 9121   0.372   6.874   5.214
 2926SOL    HW1 9122   0.359   6.967   5.180
 2926SOL    HW2 9123   0.288   6.822   5.201
 2927SOL     OW 9124   1.614   6.878   5.013
 2927SOL    HW1 9125   1.674   6.881   5.093
 2927SOL    HW2 9126   1.539   6.942   5.026
 2928SOL     OW 9127   1.039   6.684   4.420
 2928SOL    HW1 9128   0.969   6.637   4.474
 2928SOL    HW2 9129   1.098   6.616   4.377
 2929SOL     OW 9130   1.014   5.822   4.695
 2929SOL    HW1 9131   1.006   5.786   4.602
 2929SOL    HW2 9132   1.012   5.746   4.760
 2930SOL     OW 9133   0.590   7.073   4.215
 2930SOL    HW1 9134   0.632   7.015   4.145
 2930SOL    HW2 9135   0.546   7.152   4.171
 2931SOL     OW 9136   1.709   5.971   5.105
 2931SOL    HW1 9137   1.782   6.040   5.109
 2931SOL    HW2 9138   1.737   5.896   5.046
 2932SOL     OW 9139   0.255   6.934   4.014
 2932SOL    HW1 9140   0.159   6.935   3.987
 2932SOL    HW2 9141   0.267   6.987   4.098
 2933SOL     OW 9142   0.105   6.599   5.450
 2933SOL    HW1 9143   0.028   6.566   5.504
 2933SOL    HW2 9144   0.190   6.569   5.492
 2934SOL     OW 9145   0.672   5.789   5.213
 2934SOL    HW1 9146   0.762   5.773   5.173
 2934SOL    HW2 9147   0.680   5.794   5.312
 2935SOL     OW 9148   0.075   5.931   3.757
 2935SOL    HW1 9149  -0.017   5.903   3.728
 2935SOL    HW2 9150   0.106   6.008   3.701
 2936SOL     OW 9151   1.440   6.442   5.122
 2936SOL    HW1 9152   1.383   6.494   5.059
 2936SOL    HW2 9153   1.536   6.454   5.098
 2937SOL     OW 9154   0.072   5.752   4.042
 2937SOL    HW1 9155   0.055   5.835   3.988
 2937SOL    HW2 9156   0.162   5.715   4.020
 2938SOL     OW 9157   1.183   6.921   3.843
 2938SOL    HW1 9158   1.084   6.910   3.845
 2938SOL    HW2 9159   1.217   6.936   3.936
 2939SOL     OW 9160   0.613   6.428   5.155
 2939SOL    HW1 9161   0.669   6.509   5.138
 2939SOL    HW2 9162   0.672   6.348   5.158
 2940SOL     OW 9163   1.493   7.353   4.683
 2940SOL    HW1 9164   1.526   7.417   4.614
 2940SOL    HW2 9165   1.559   7.347   4.758
 2941SOL     OW 9166   0.716   6.151   5.432
 2941SOL    HW1 9167   0.735   6.216   5.506
 2941SOL    HW2 9168   0.776   6.071   5.441
 2942SOL     OW 9169   1.450   6.806   5.357
 2942SOL    HW1 9170   1.441   6.796   5.456
 2942SOL    HW2 9171   1.546   6.799   5.331
 2943SOL     OW 9172   0.390   7.327   5.284
 2943SOL    HW1 9173   0.299   7.368   5.282
 2943SOL    HW2 9174   0.383   7.233   5.316
 2944SOL     OW 9175   1.674   6.469   4.978
 2944SOL    HW1 9176   1.647   6.380   4.941
 2944SOL    HW2 9177   1.675   6.537   4.905
 2945SOL     OW 9178   1.225   5.911   4.173
 2945SOL    HW1 9179   1.290   5.837   4.162
 2945SOL    HW2 9180   1.245   5.961   4.257
 2946SOL     OW 9181   0.594   6.331   4.376
 2946SOL    HW1 9182   0.644   6.416   4.357
 2946SOL    HW2 9183   0.506   6.333   4.328
 2947SOL     OW 9184   1.777   5.928   5.366
 2947SOL    HW1 9185   1.760   5.959   5.272
 2947SOL    HW2 9186   1.693   5.891   5.404
 2948SOL     OW 9187   1.730   6.520   5.241
 2948SOL    HW1 9188   1.768   6.611   5.256
 2948SOL    HW2 9189   1.722   6.503   5.142
 2949SOL     OW 9190   0.859   6.960   3.740
 2949SOL    HW1 9191   0.813   6.975   3.828
 2949SOL    HW2 9192   0.903   7.045   3.710
 2950SOL     OW 9193   0.661   7.376   4.677
 2950SOL    HW1 9194   0.615   7.464   4.664
 2950SOL    HW2 9195   0.760   7.388   4.670
 2951SOL     OW 9196   0.859   6.542   4.585
 2951SOL    HW1 9197   0.913   6.473   4.633
 2951SOL    HW2 9198   0.827   6.611   4.651
 2952SOL     OW 9199   1.083   6.570   3.811
 2952SOL    HW1 9200   1.060   6.623   3.729
 2952SOL    HW2 9201   1.164   6.514   3.792
 2953SOL     OW 9202   1.861   7.155   4.575
 2953SOL    HW1 9203   1.790   7.143   4.505
 2953SOL    HW2 9204   1.862   7.076   4.635
 2954SOL     OW 9205   0.221   6.900   5.568
 2954SOL    HW1 9206   0.156   6.827   5.547
 2954SOL    HW2 9207   0.225   6.914   5.666
 2955SOL     OW 9208   0.079   6.826   4.377
 2955SOL    HW1 9209   0.078   6.779   4.465
 2955SOL    HW2 9210   0.161   6.798   4.326
 2956SOL     OW 9211   0.672   6.977   5.348
 2956SOL    HW1 9212   0.594   6.927   5.386
 2956SOL    HW2 9213   0.669   7.072   5.379
 2957SOL     OW 9214   1.824   5.778   4.951
 2957SOL    HW1 9215   1.820   5.688   4.995
 2957SOL    HW2 9216   1.827   5.767   4.852
 2958SOL     OW 9217   0.428   6.010   4.244
 2958SOL    HW1 9218   0.458   5.938   4.182
 2958SOL    HW2 9219   0.389   5.970   4.327
 2959SOL     OW 9220   1.705   7.073   4.828
 2959SOL    HW1 9221   1.612   7.048   4.801
 2959SOL    HW2 9222   1.731   7.023   4.910
 2960SOL     OW 9223   0.317   6.133   5.004
 2960SOL    HW1 9224   0.355   6.074   5.076
 2960SOL    HW2 9225   0.357   6.107   4.916
 2961SOL     OW 9226   0.812   7.172   4.411
 2961SOL    HW1 9227   0.844   7.182   4.317
 2961SOL    HW2 9228   0.733   7.110   4.413
 2962SOL     OW 9229   1.424   5.800   4.836
 2962SOL    HW1 9230   1.476   5.735   4.891
 2962SOL    HW2 9231   1.375   5.863   4.897
 2963SOL     OW 9232   1.001   5.620   4.878
 2963SOL    HW1 9233   0.938   5.548   4.847
 2963SOL    HW2 9234   1.094   5.584   4.878
 2964SOL     OW 9235   0.770   6.916   4.025
 2964SOL    HW1 9236   0.724   6.829   4.042
 2964SOL    HW2 9237   0.861   6.913   4.066
 2965SOL     OW 9238   0.618   7.153   5.008
 2965SOL    HW1 9239   0.613   7.235   5.065
 2965SOL    HW2 9240   0.707   7.150   4.963
 2966SOL     OW 9241   1.352   5.638   3.892
 2966SOL    HW1 9242   1.387   5.597   3.808
 2966SOL    HW2 9243   1.262   5.600   3.912
 2967SOL     OW 9244   1.300   6.039   4.415
 2967SOL    HW1 9245   1.241   6.119   4.419
 2967SOL    HW2 9246   1.315   6.004   4.508
 2968SOL     OW 9247   1.593   5.807   4.606
 2968SOL    HW1 9248   1.509   5.806   4.660
 2968SOL    HW2 9249   1.595   5.890   4.550
 2969SOL     OW 9250   0.039   6.663   4.024
 2969SOL    HW1 9251   0.138   6.652   4.015
 2969SOL    HW2 9252  -0.001   6.577   4.056
 2970SOL     OW 9253   0.875   7.232   4.061
 2970SOL    HW1 9254   0.798   7.197   4.007
 2970SOL    HW2 9255   0.843   7.303   4.123
 2971SOL     OW 9256   0.230   6.214   5.699
 2971SOL    HW1 9257   0.137   6.212   5.736
 2971SOL    HW2 9258   0.231   6.175   5.607
 2972SOL     OW 9259   0.225   5.861   6.582
 2972SOL    HW1 9260   0.260   5.844   6.674
 2972SOL    HW2 9261   0.137   5.816   6.570
 2973SOL     OW 9262   0.019   5.954   6.233
 2973SOL    HW1 9263  -0.063   5.997   6.272
 2973SOL    HW2 9264  -0.009   5.881   6.170
 2974SOL     OW 9265   0.569   6.861   6.751
 2974SOL    HW1 9266   0.476   6.854   6.714
 2974SOL    HW2 9267   0.580   6.950   6.795
 2975SOL     OW 9268   1.555   7.097   6.289
 2975SOL    HW1 9269   1.498   7.081   6.370
 2975SOL    HW2 9270   1.496   7.107   6.209
 2976SOL     OW 9271   1.135   6.289   6.303
 2976SOL    HW1 9272   1.192   6.367   6.278
 2976SOL    HW2 9273   1.075   6.315   6.379
 2977SOL     OW 9274   1.755   6.193   5.817
 2977SOL    HW1 9275   1.743   6.180   5.718
 2977SOL    HW2 9276   1.725   6.112   5.866
 2978SOL     OW 9277   0.768   6.730   6.609
 2978SOL    HW1 9278   0.690   6.747   6.669
 2978SOL    HW2 9279   0.802   6.817   6.573
 2979SOL     OW 9280   0.685   6.598   6.251
 2979SOL    HW1 9281   0.754   6.582   6.321
 2979SOL    HW2 9282   0.612   6.655   6.289
 2980SOL     OW 9283   0.335   7.021   6.647
 2980SOL    HW1 9284   0.257   6.990   6.594
 2980SOL    HW2 9285   0.393   7.079   6.590
 2981SOL     OW 9286   1.603   6.033   6.323
 2981SOL    HW1 9287   1.529   6.079   6.273
 2981SOL    HW2 9288   1.654   6.101   6.376
 2982SOL     OW 9289   0.231   7.299   6.069
 2982SOL    HW1 9290   0.265   7.376   6.123
 2982SOL    HW2 9291   0.275   7.299   5.979
 2983SOL     OW 9292   0.230   7.020   6.124
 2983SOL    HW1 9293   0.204   7.116   6.124
 2983SOL    HW2 9294   0.159   6.966   6.169
 2984SOL     OW 9295   0.240   6.677   6.472
 2984SOL    HW1 9296   0.254   6.593   6.524
 2984SOL    HW2 9297   0.185   6.741   6.527
 2985SOL     OW 9298   0.606   6.550   5.709
 2985SOL    HW1 9299   0.613   6.634   5.655
 2985SOL    HW2 9300   0.652   6.563   5.797
 2986SOL     OW 9301   0.122   6.229   6.149
 2986SOL    HW1 9302   0.077   6.141   6.166
 2986SOL    HW2 9303   0.121   6.283   6.233
 2987SOL     OW 9304   1.842   7.353   5.945
 2987SOL    HW1 9305   1.896   7.324   6.025
 2987SOL    HW2 9306   1.872   7.443   5.916
 2988SOL     OW 9307   0.027   7.182   5.703
 2988SOL    HW1 9308   0.008   7.086   5.724
 2988SOL    HW2 9309  -0.006   7.240   5.778
 2989SOL     OW 9310   1.689   6.508   6.198
 2989SOL    HW1 9311   1.784   6.479   6.206
 2989SOL    HW2 9312   1.681   6.573   6.123
 2990SOL     OW 9313   1.641   6.694   6.018
 2990SOL    HW1 9314   1.727   6.696   5.966
 2990SOL    HW2 9315   1.655   6.741   6.106
 2991SOL     OW 9316   0.613   6.951   6.312
 2991SOL    HW1 9317   0.564   6.864   6.321
 2991SOL    HW2 9318   0.590   6.994   6.225
 2992SOL     OW 9319   0.809   5.590   6.088
 2992SOL    HW1 9320   0.849   5.681   6.079
 2992SOL    HW2 9321   0.709   5.598   6.094
 2993SOL     OW 9322   1.525   6.585   5.776
 2993SOL    HW1 9323   1.462   6.509   5.789
 2993SOL    HW2 9324   1.573   6.603   5.862
 2994SOL     OW 9325   1.466   7.003   6.539
 2994SOL    HW1 9326   1.407   7.009   6.619
 2994SOL    HW2 9327   1.451   6.915   6.493
 2995SOL     OW 9328   1.667   7.300   6.158
 2995SOL    HW1 9329   1.626   7.277   6.070
 2995SOL    HW2 9330   1.649   7.226   6.223
 2996SOL     OW 9331   0.598   6.315   5.856
 2996SOL    HW1 9332   0.622   6.384   5.788
 2996SOL    HW2 9333   0.520   6.348   5.910
 2997SOL     OW 9334   1.281   5.931   6.530
 2997SOL    HW1 9335   1.195   5.881   6.517
 2997SOL    HW2 9336   1.343   5.877   6.586
 2998SOL     OW 9337   1.576   7.248   5.893
 2998SOL    HW1 9338   1.665   7.294   5.896
 2998SOL    HW2 9339   1.555   7.224   5.798
 2999SOL     OW 9340   0.991   5.996   6.828
 2999SOL    HW1 9341   0.914   6.030   6.882
 2999SOL    HW2 9342   0.957   5.945   6.749
 3000SOL     OW 9343   1.041   6.287   6.015
 3000SOL    HW1 9344   1.067   6.283   6.111
 3000SOL    HW2 9345   0.956   6.236   6.001
 3001SOL     OW 9346   0.076   6.397   6.375
 3001SOL    HW1 9347   0.175   6.385   6.384
 3001SOL    HW2 9348   0.052   6.492   6.396
 3002SOL     OW 9349   0.865   5.934   5.781
 3002SOL    HW1 9350   0.924   5.997   5.732
 3002SOL    HW2 9351   0.884   5.840   5.752
 3003SOL     OW 9352   1.362   6.730   6.131
 3003SOL    HW1 9353   1.445   6.701   6.083
 3003SOL    HW2 9354   1.313   6.797   6.075
 3004SOL     OW 9355   0.550   5.782   6.471
 3004SOL    HW1 9356   0.545   5.777   6.571
 3004SOL    HW2 9357   0.552   5.878   6.442
 3005SOL     OW 9358   1.008   7.042   6.063
 3005SOL    HW1 9359   0.962   7.114   6.011
 3005SOL    HW2 9360   1.004   7.062   6.161
 3006SOL     OW 9361   0.351   7.387   6.439
 3006SOL    HW1 9362   0.401   7.301   6.445
 3006SOL    HW2 9363   0.416   7.464   6.436
 3007SOL     OW 9364   1.795   6.652   6.459
 3007SOL    HW1 9365   1.733   6.637   6.383
 3007SOL    HW2 9366   1.743   6.663   6.544
 3008SOL     OW 9367   0.321   6.529   5.828
 3008SOL    HW1 9368   0.403   6.568   5.786
 3008SOL    HW2 9369   0.294   6.447   5.779
 3009SOL     OW 9370   1.458   6.321   6.314
 3009SOL    HW1 9371   1.453   6.256   6.389
 3009SOL    HW2 9372   1.538   6.380   6.327
 3010SOL     OW 9373   1.111   7.362   5.823
 3010SOL    HW1 9374   1.051   7.300   5.873
 3010SOL    HW2 9375   1.142   7.318   5.738
 3011SOL     OW 9376   1.632   6.963   5.667
 3011SOL    HW1 9377   1.600   7.057   5.657
 3011SOL    HW2 9378   1.556   6.900   5.655
 3012SOL     OW 9379   0.464   7.329   5.909
 3012SOL    HW1 9380   0.497   7.368   5.995
 3012SOL    HW2 9381   0.540   7.322   5.844
 3013SOL     OW 9382   1.400   5.693   6.012
 3013SOL    HW1 9383   1.376   5.656   5.922
 3013SOL    HW2 9384   1.499   5.709   6.016
 3014SOL     OW 9385   0.249   7.371   6.827
 3014SOL    HW1 9386   0.306   7.306   6.877
 3014SOL    HW2 9387   0.233   7.338   6.734
 3015SOL     OW 9388   0.940   7.284   6.490
 3015SOL    HW1 9389   1.020   7.227   6.511
 3015SOL    HW2 9390   0.891   7.244   6.413
 3016SOL     OW 9391   0.382   6.286   6.066
 3016SOL    HW1 9392   0.427   6.196   6.063
 3016SOL    HW2 9393   0.288   6.275   6.099
 3017SOL     OW 9394   0.614   5.708   5.703
 3017SOL    HW1 9395   0.712   5.686   5.710
 3017SOL    HW2 9396   0.583   5.691   5.610
 3018SOL     OW 9397   0.888   7.100   6.781
 3018SOL    HW1 9398   0.865   7.075   6.687
 3018SOL    HW2 9399   0.949   7.031   6.820
 3019SOL     OW 9400   0.803   6.988   6.510
 3019SOL    HW1 9401   0.893   7.002   6.468
 3019SOL    HW2 9402   0.732   6.990   6.439
 3020SOL     OW 9403   0.922   6.089   6.485
 3020SOL    HW1 9404   0.897   6.080   6.389
 3020SOL    HW2 9405   0.970   6.007   6.516
 3021SOL     OW 9406   0.539   5.650   6.098
 3021SOL    HW1 9407   0.458   5.651   6.156
 3021SOL    HW2 9408   0.542   5.733   6.043
 3022SOL     OW 9409   1.434   6.774   5.627
 3022SOL    HW1 9410   1.466   6.698   5.684
 3022SOL    HW2 9411   1.342   6.801   5.657
 3023SOL     OW 9412   0.297   5.621   5.757
 3023SOL    HW1 9413   0.346   5.705   5.736
 3023SOL    HW2 9414   0.359   5.556   5.802
 3024SOL     OW 9415   0.935   5.822   6.066
 3024SOL    HW1 9416   0.887   5.863   5.988
 3024SOL    HW2 9417   1.034   5.820   6.047
 3025SOL     OW 9418   1.227   7.156   6.379
 3025SOL    HW1 9419   1.248   7.230   6.314
 3025SOL    HW2 9420   1.295   7.156   6.452
 3026SOL     OW 9421   0.459   6.738   6.327
 3026SOL    HW1 9422   0.388   6.711   6.392
 3026SOL    HW2 9423   0.433   6.710   6.234
 3027SOL     OW 9424   1.271   7.383   6.177
 3027SOL    HW1 9425   1.315   7.447   6.113
 3027SOL    HW2 9426   1.221   7.435   6.247
 3028SOL     OW 9427   1.032   6.135   5.602
 3028SOL    HW1 9428   0.991   6.217   5.563
 3028SOL    HW2 9429   1.096   6.161   5.675
 3029SOL     OW 9430   0.561   5.808   6.733
 3029SOL    HW1 9431   0.599   5.724   6.770
 3029SOL    HW2 9432   0.473   5.827   6.777
 3030SOL     OW 9433   0.866   6.040   6.228
 3030SOL    HW1 9434   0.834   6.112   6.166
 3030SOL    HW2 9435   0.890   5.959   6.175
 3031SOL     OW 9436   1.017   5.625   6.339
 3031SOL    HW1 9437   0.945   5.630   6.270
 3031SOL    HW2 9438   0.993   5.556   6.408
 3032SOL     OW 9439   1.429   6.759   6.453
 3032SOL    HW1 9440   1.374   6.675   6.446
 3032SOL    HW2 9441   1.455   6.788   6.361
 3033SOL     OW 9442   1.466   6.176   6.578
 3033SOL    HW1 9443   1.436   6.081   6.585
 3033SOL    HW2 9444   1.539   6.192   6.644
 3034SOL     OW 9445   1.857   6.419   5.963
 3034SOL    HW1 9446   1.899   6.355   6.027
 3034SOL    HW2 9447   1.819   6.368   5.885
 3035SOL     OW 9448   0.488   6.971   5.760
 3035SOL    HW1 9449   0.401   6.956   5.807
 3035SOL    HW2 9450   0.471   6.997   5.665
 3036SOL     OW 9451   1.664   6.866   6.243
 3036SOL    HW1 9452   1.763   6.874   6.257
 3036SOL    HW2 9453   1.619   6.950   6.274
 3037SOL     OW 9454   1.390   6.161   5.664
 3037SOL    HW1 9455   1.336   6.140   5.745
 3037SOL    HW2 9456   1.481   6.120   5.673
 3038SOL     OW 9457   0.527   5.842   5.914
 3038SOL    HW1 9458   0.554   5.783   5.839
 3038SOL    HW2 9459   0.527   5.937   5.883
 3039SOL     OW 9460   1.111   6.781   6.686
 3039SOL    HW1 9461   1.071   6.825   6.767
 3039SOL    HW2 9462   1.070   6.818   6.603
 3040SOL     OW 9463   1.638   6.685   6.665
 3040SOL    HW1 9464   1.643   6.766   6.724
 3040SOL    HW2 9465   1.552   6.687   6.614
 3041SOL     OW 9466   0.705   6.636   5.954
 3041SOL    HW1 9467   0.691   6.643   6.053
 3041SOL    HW2 9468   0.789   6.585   5.936
 3042SOL     OW 9469   0.367   6.686   6.087
 3042SOL    HW1 9470   0.360   6.769   6.031
 3042SOL    HW2 9471   0.371   6.606   6.027
 3043SOL     OW 9472   0.566   6.123   6.451
 3043SOL    HW1 9473   0.578   6.189   6.377
 3043SOL    HW2 9474   0.612   6.157   6.534
 3044SOL     OW 9475   1.252   6.934   5.974
 3044SOL    HW1 9476   1.302   7.011   6.014
 3044SOL    HW2 9477   1.157   6.936   6.006
 3045SOL     OW 9478   1.272   7.031   6.728
 3045SOL    HW1 9479   1.319   7.044   6.815
 3045SOL    HW2 9480   1.206   6.957   6.737
 3046SOL     OW 9481   1.582   6.225   6.058
 3046SOL    HW1 9482   1.551   6.286   6.131
 3046SOL    HW2 9483   1.632   6.277   5.989
 3047SOL     OW 9484   0.573   6.456   6.615
 3047SOL    HW1 9485   0.617   6.545   6.606
 3047SOL    HW2 9486   0.510   6.456   6.692
 3048SOL     OW 9487   1.360   6.448   6.631
 3048SOL    HW1 9488   1.285   6.448   6.565
 3048SOL    HW2 9489   1.397   6.356   6.640
 3049SOL     OW 9490   1.209   6.111   5.861
 3049SOL    HW1 9491   1.222   6.027   5.915
 3049SOL    HW2 9492   1.180   6.185   5.921
 3050SOL     OW 9493   0.732   6.220   6.650
 3050SOL    HW1 9494   0.791   6.194   6.574
 3050SOL    HW2 9495   0.704   6.316   6.639
 3051SOL     OW 9496   0.307   5.649   6.204
 3051SOL    HW1 9497   0.296   5.743   6.237
 3051SOL    HW2 9498   0.302   5.586   6.281
 3052SOL     OW 9499   1.622   5.953   5.960
 3052SOL    HW1 9500   1.624   5.877   6.024
 3052SOL    HW2 9501   1.574   6.030   6.000
 3053SOL     OW 9502   1.023   6.352   6.552
 3053SOL    HW1 9503   1.038   6.373   6.648
 3053SOL    HW2 9504   0.993   6.257   6.543
 3054SOL     OW 9505   1.540   5.860   5.711
 3054SOL    HW1 9506   1.479   5.785   5.734
 3054SOL    HW2 9507   1.562   5.912   5.794
 3055SOL     OW 9508   1.303   6.424   5.628
 3055SOL    HW1 9509   1.337   6.331   5.643
 3055SOL    HW2 9510   1.321   6.451   5.533
 3056SOL     OW 9511   1.068   6.919   6.435
 3056SOL    HW1 9512   1.075   6.835   6.380
 3056SOL    HW2 9513   1.130   6.988   6.399
 3057SOL     OW 9514   0.319   6.396   6.535
 3057SOL    HW1 9515   0.412   6.432   6.540
 3057SOL    HW2 9516   0.313   6.311   6.587
 3058SOL     OW 9517   0.339   6.095   6.592
 3058SOL    HW1 9518   0.287   6.012   6.575
 3058SOL    HW2 9519   0.416   6.100   6.528
 3059SOL     OW 9520   0.008   6.912   5.786
 3059SOL    HW1 9521  -0.085   6.933   5.755
 3059SOL    HW2 9522   0.018   6.813   5.799
 3060SOL     OW 9523   0.088   7.387   6.513
 3060SOL    HW1 9524   0.046   7.301   6.486
 3060SOL    HW2 9525   0.182   7.390   6.479
 3061SOL     OW 9526   0.504   7.154   6.496
 3061SOL    HW1 9527   0.570   7.228   6.505
 3061SOL    HW2 9528   0.548   7.075   6.454
 3062SOL     OW 9529   0.040   6.130   6.700
 3062SOL    HW1 9530   0.125   6.097   6.659
 3062SOL    HW2 9531   0.053   6.145   6.798
 3063SOL     OW 9532   0.815   6.158   5.911
 3063SOL    HW1 9533   0.822   6.069   5.865
 3063SOL    HW2 9534   0.721   6.192   5.903
 3064SOL     OW 9535   1.657   6.190   6.792
 3064SOL    HW1 9536   1.619   6.121   6.854
 3064SOL    HW2 9537   1.739   6.154   6.748
 3065SOL     OW 9538   0.671   6.050   6.855
 3065SOL    HW1 9539   0.637   5.961   6.825
 3065SOL    HW2 9540   0.697   6.104   6.775
 3066SOL     OW 9541   0.473   6.086   5.777
 3066SOL    HW1 9542   0.534   6.166   5.781
 3066SOL    HW2 9543   0.378   6.117   5.784
 3067SOL     OW 9544   1.347   6.645   6.820
 3067SOL    HW1 9545   1.371   6.582   6.746
 3067SOL    HW2 9546   1.257   6.685   6.802
 3068SOL     OW 9547   1.302   6.441   5.895
 3068SOL    HW1 9548   1.216   6.410   5.937
 3068SOL    HW2 9549   1.298   6.427   5.796
 3069SOL     OW 9550   1.759   7.333   6.740
 3069SOL    HW1 9551   1.820   7.363   6.667
 3069SOL    HW2 9552   1.721   7.244   6.718
 3070SOL     OW 9553   1.252   7.317   6.714
 3070SOL    HW1 9554   1.336   7.322   6.660
 3070SOL    HW2 9555   1.229   7.221   6.732
 3071SOL     OW 9556   0.083   6.844   6.608
 3071SOL    HW1 9557   0.078   6.843   6.708
 3071SOL    HW2 9558   0.000   6.803   6.570
 3072SOL     OW 9559   1.726   5.721   6.109
 3072SOL    HW1 9560   1.799   5.704   6.042
 3072SOL    HW2 9561   1.695   5.634   6.147
 3073SOL     OW 9562   1.388   7.159   6.063
 3073SOL    HW1 9563   1.455   7.171   5.989
 3073SOL    HW2 9564   1.348   7.248   6.086
 3074SOL     OW 9565   1.280   6.513   6.258
 3074SOL    HW1 9566   1.340   6.432   6.260
 3074SOL    HW2 9567   1.320   6.582   6.198
 3075SOL     OW 9568   0.672   7.202   5.740
 3075SOL    HW1 9569   0.681   7.212   5.641
 3075SOL    HW2 9570   0.632   7.113   5.761
 3076SOL     OW 9571   1.841   5.761   6.549
 3076SOL    HW1 9572   1.880   5.676   6.513
 3076SOL    HW2 9573   1.743   5.763   6.530
 3077SOL     OW 9574   0.263   5.912   6.306
 3077SOL    HW1 9575   0.184   5.963   6.272
 3077SOL    HW2 9576   0.254   5.897   6.404
 3078SOL     OW 9577   1.194   7.198   5.617
 3078SOL    HW1 9578   1.200   7.105   5.654
 3078SOL    HW2 9579   1.135   7.198   5.537
 3079SOL     OW 9580   0.916   6.496   5.877
 3079SOL    HW1 9581   0.979   6.534   5.809
 3079SOL    HW2 9582   0.956   6.413   5.916
 3080SOL     OW 9583   1.504   7.193   5.630
 3080SOL    HW1 9584   1.412   7.230   5.637
 3080SOL    HW2 9585   1.542   7.213   5.540
 3081SOL     OW 9586   1.039   6.684   6.282
 3081SOL    HW1 9587   0.969   6.637   6.336
 3081SOL    HW2 9588   1.098   6.616   6.239
 3082SOL     OW 9589   1.014   5.822   6.557
 3082SOL    HW1 9590   1.006   5.786   6.464
 3082SOL    HW2 9591   1.012   5.746   6.622
 3083SOL     OW 9592   0.590   7.073   6.077
 3083SOL    HW1 9593   0.632   7.015   6.007
 3083SOL    HW2 9594   0.546   7.152   6.033
 3084SOL     OW 9595   0.255   6.934   5.876
 3084SOL    HW1 9596   0.159   6.935   5.849
 3084SOL    HW2 9597   0.267   6.987   5.960
 3085SOL     OW 9598   0.075   5.931   5.619
 3085SOL    HW1 9599  -0.017   5.903   5.590
 3085SOL    HW2 9600   0.106   6.008   5.563
 3086SOL     OW 9601   0.072   5.752   5.904
 3086SOL    HW1 9602   0.055   5.835   5.850
 3086SOL    HW2 9603   0.162   5.715   5.882
 3087SOL     OW 9604   1.183   6.921   5.705
 3087SOL    HW1 9605   1.084   6.910   5.707
 3087SOL    HW2 9606   1.217   6.936   5.798
 3088SOL     OW 9607   1.493   7.353   6.545
 3088SOL    HW1 9608   1.526   7.417   6.476
 3088SOL    HW2 9609   1.559   7.347   6.620
 3089SOL     OW 9610   1.674   6.469   6.840
 3089SOL    HW1 9611   1.647   6.380   6.803
 3089SOL    HW2 9612   1.675   6.537   6.767
 3090SOL     OW 9613   1.225   5.911   6.035
 3090SOL    HW1 9614   1.290   5.837   6.024
 3090SOL    HW2 9615   1.245   5.961   6.119
 3091SOL     OW 9616   0.594   6.331   6.238
 3091SOL    HW1 9617   0.644   6.416   6.219
 3091SOL    HW2 9618   0.506   6.333   6.190
 3092SOL     OW 9619   0.859   6.960   5.602
 3092SOL    HW1 9620   0.813   6.975   5.690
 3092SOL    HW2 9621   0.903   7.045   5.572
 3093SOL     OW 9622   0.661   7.376   6.539
 3093SOL    HW1 9623   0.615   7.464   6.526
 3093SOL    HW2 9624   0.760   7.388   6.532
 3094SOL     OW 9625   0.859   6.542   6.447
 3094SOL    HW1 9626   0.913   6.473   6.495
 3094SOL    HW2 9627   0.827   6.611   6.513
 3095SOL     OW 9628   1.083   6.570   5.673
 3095SOL    HW1 9629   1.060   6.623   5.591
 3095SOL    HW2 9630   1.164   6.514   5.654
 3096SOL     OW 9631   1.861   7.155   6.437
 3096SOL    HW1 9632   1.790   7.143   6.367
 3096SOL    HW2 9633   1.862   7.076   6.497
 3097SOL     OW 9634   0.079   6.826   6.239
 3097SOL    HW1 9635   0.078   6.779   6.327
 3097SOL    HW2 9636   0.161   6.798   6.188
 3098SOL     OW 9637   1.824   5.778   6.813
 3098SOL    HW1 9638   1.820   5.688   6.857
 3098SOL    HW2 9639   1.827   5.767   6.714
 3099SOL     OW 9640   0.428   6.010   6.106
 3099SOL    HW1 9641   0.458   5.938   6.044
 3099SOL    HW2 9642   0.389   5.970   6.189
 3100SOL     OW 9643   1.705   7.073   6.690
 3100SOL    HW1 9644   1.612   7.048   6.663
 3100SOL    HW2 9645   1.731   7.023   6.772
 3101SOL     OW 9646   0.317   6.133   6.866
 3101SOL    HW1 9647   0.355   6.074   6.938
 3101SOL    HW2 9648   0.357   6.107   6.778
 3102SOL     OW 9649   0.812   7.172   6.273
 3102SOL    HW1 9650   0.844   7.182   6.179
 3102SOL    HW2 9651   0.733   7.110   6.275
 3103SOL     OW 9652   1.424   5.800   6.698
 3103SOL    HW1 9653   1.476   5.735   6.753
 3103SOL    HW2 9654   1.375   5.863   6.759
 3104SOL     OW 9655   1.001   5.620   6.740
 3104SOL    HW1 9656   0.938   5.548   6.709
 3104SOL    HW2 9657   1.094   5.584   6.740
 3105SOL     OW 9658   0.770   6.916   5.887
 3105SOL    HW1 9659   0.724   6.829   5.904
 3105SOL    HW2 9660   0.861   6.913   5.928
 3106SOL     OW 9661   1.352   5.638   5.754
 3106SOL    HW1 9662   1.387   5.597   5.670
 3106SOL    HW2 9663   1.262   5.600   5.774
 3107SOL     OW 9664   1.300   6.039   6.277
 3107SOL    HW1 9665   1.241   6.119   6.281
 3107SOL    HW2 9666   1.315   6.004   6.370
 3108SOL     OW 9667   1.593   5.807   6.468
 3108SOL    HW1 9668   1.509   5.806   6.522
 3108SOL    HW2 9669   1.595   5.890   6.412
 3109SOL     OW 9670   0.039   6.663   5.886
 3109SOL    HW1 9671   0.138   6.652   5.877
 3109SOL    HW2 9672  -0.001   6.577   5.918
 3110SOL     OW 9673   0.875   7.232   5.923
 3110SOL    HW1 9674   0.798   7.197   5.869
 3110SOL    HW2 9675   0.843   7.303   5.985
 3111SOL     OW 9676   0.225   7.723   0.996
 3111SOL    HW1 9677   0.260   7.706   1.088
 3111SOL    HW2 9678   0.137   7.678   0.984
 3112SOL     OW 9679   0.019   7.816   0.647
 3112SOL    HW1 9680  -0.063   7.859   0.686
 3112SOL    HW2 9681  -0.009   7.743   0.584
 3113SOL     OW 9682   0.438   7.840   1.499
 3113SOL    HW1 9683   0.520   7.784   1.508
 3113SOL    HW2 9684   0.357   7.782   1.503
 3114SOL     OW 9685   1.594   7.562   1.480
 3114SOL    HW1 9686   1.576   7.629   1.408
 3114SOL    HW2 9687   1.591   7.608   1.569
 3115SOL     OW 9688   0.809   7.452   0.502
 3115SOL    HW1 9689   0.849   7.543   0.493
 3115SOL    HW2 9690   0.709   7.460   0.508
 3116SOL     OW 9691   0.317   7.699   1.801
 3116SOL    HW1 9692   0.388   7.770   1.807
 3116SOL    HW2 9693   0.229   7.738   1.829
 3117SOL     OW 9694   1.281   7.793   0.944
 3117SOL    HW1 9695   1.195   7.743   0.931
 3117SOL    HW2 9696   1.343   7.739   1.000
 3118SOL     OW 9697   0.865   7.796   0.195
 3118SOL    HW1 9698   0.924   7.859   0.146
 3118SOL    HW2 9699   0.884   7.702   0.166
 3119SOL     OW 9700   0.550   7.644   0.885
 3119SOL    HW1 9701   0.545   7.639   0.985
 3119SOL    HW2 9702   0.552   7.740   0.856
 3120SOL     OW 9703   0.202   7.733   1.498
 3120SOL    HW1 9704   0.122   7.793   1.485
 3120SOL    HW2 9705   0.192   7.684   1.584
 3121SOL     OW 9706   1.400   7.555   0.426
 3121SOL    HW1 9707   1.376   7.518   0.336
 3121SOL    HW2 9708   1.499   7.571   0.430
 3122SOL     OW 9709   1.547   7.670   1.729
 3122SOL    HW1 9710   1.542   7.707   1.821
 3122SOL    HW2 9711   1.475   7.601   1.717
 3123SOL     OW 9712   0.614   7.570   0.117
 3123SOL    HW1 9713   0.712   7.548   0.124
 3123SOL    HW2 9714   0.583   7.553   0.024
 3124SOL     OW 9715   0.781   7.712   1.749
 3124SOL    HW1 9716   0.848   7.651   1.792
 3124SOL    HW2 9717   0.708   7.731   1.814
 3125SOL     OW 9718   0.539   7.512   0.512
 3125SOL    HW1 9719   0.458   7.513   0.570
 3125SOL    HW2 9720   0.542   7.595   0.457
 3126SOL     OW 9721   0.297   7.483   0.171
 3126SOL    HW1 9722   0.346   7.567   0.150
 3126SOL    HW2 9723   0.359   7.418   0.216
 3127SOL     OW 9724   0.935   7.684   0.480
 3127SOL    HW1 9725   0.887   7.725   0.402
 3127SOL    HW2 9726   1.034   7.682   0.461
 3128SOL     OW 9727   0.561   7.670   1.147
 3128SOL    HW1 9728   0.599   7.586   1.184
 3128SOL    HW2 9729   0.473   7.689   1.191
 3129SOL     OW 9730   1.017   7.487   0.753
 3129SOL    HW1 9731   0.945   7.492   0.684
 3129SOL    HW2 9732   0.993   7.418   0.822
 3130SOL     OW 9733   0.527   7.704   0.328
 3130SOL    HW1 9734   0.554   7.645   0.253
 3130SOL    HW2 9735   0.527   7.799   0.297
 3131SOL     OW 9736   0.915   7.537   1.402
 3131SOL    HW1 9737   0.940   7.517   1.307
 3131SOL    HW2 9738   0.987   7.593   1.444
 3132SOL     OW 9739   1.013   7.553   1.770
 3132SOL    HW1 9740   1.019   7.638   1.718
 3132SOL    HW2 9741   1.045   7.477   1.713
 3133SOL     OW 9742   0.504   7.498   1.740
 3133SOL    HW1 9743   0.462   7.441   1.670
 3133SOL    HW2 9744   0.438   7.567   1.772
 3134SOL     OW 9745   0.307   7.661   1.231
 3134SOL    HW1 9746   0.284   7.698   1.321
 3134SOL    HW2 9747   0.277   7.566   1.225
 3135SOL     OW 9748   0.307   7.511   0.618
 3135SOL    HW1 9749   0.296   7.605   0.651
 3135SOL    HW2 9750   0.302   7.448   0.695
 3136SOL     OW 9751   1.622   7.815   0.374
 3136SOL    HW1 9752   1.624   7.739   0.438
 3136SOL    HW2 9753   1.574   7.892   0.414
 3137SOL     OW 9754   1.540   7.722   0.125
 3137SOL    HW1 9755   1.479   7.647   0.148
 3137SOL    HW2 9756   1.562   7.774   0.208
 3138SOL     OW 9757   1.160   7.655   1.477
 3138SOL    HW1 9758   1.160   7.719   1.554
 3138SOL    HW2 9759   1.188   7.703   1.394
 3139SOL     OW 9760   0.903   7.534   0.133
 3139SOL    HW1 9761   0.954   7.535   0.047
 3139SOL    HW2 9762   0.959   7.492   0.204
 3140SOL     OW 9763   1.726   7.583   0.523
 3140SOL    HW1 9764   1.799   7.566   0.456
 3140SOL    HW2 9765   1.695   7.496   0.561
 3141SOL     OW 9766   1.841   7.623   0.963
 3141SOL    HW1 9767   1.880   7.538   0.927
 3141SOL    HW2 9768   1.743   7.625   0.944
 3142SOL     OW 9769   0.263   7.774   0.720
 3142SOL    HW1 9770   0.184   7.825   0.686
 3142SOL    HW2 9771   0.254   7.759   0.818
 3143SOL     OW 9772   1.709   7.833   1.381
 3143SOL    HW1 9773   1.782   7.902   1.385
 3143SOL    HW2 9774   1.737   7.758   1.322
 3144SOL     OW 9775   0.672   7.651   1.489
 3144SOL    HW1 9776   0.762   7.635   1.449
 3144SOL    HW2 9777   0.680   7.656   1.588
 3145SOL     OW 9778   0.075   7.793   0.033
 3145SOL    HW1 9779  -0.017   7.765   0.004
 3145SOL    HW2 9780   0.106   7.870  -0.023
 3146SOL     OW 9781   0.072   7.614   0.318
 3146SOL    HW1 9782   0.055   7.697   0.264
 3146SOL    HW2 9783   0.162   7.577   0.296
 3147SOL     OW 9784   1.225   7.773   0.449
 3147SOL    HW1 9785   1.290   7.699   0.438
 3147SOL    HW2 9786   1.245   7.823   0.533
 3148SOL     OW 9787   1.777   7.790   1.642
 3148SOL    HW1 9788   1.760   7.821   1.548
 3148SOL    HW2 9789   1.693   7.753   1.680
 3149SOL     OW 9790   1.824   7.640   1.227
 3149SOL    HW1 9791   1.820   7.550   1.271
 3149SOL    HW2 9792   1.827   7.629   1.128
 3150SOL     OW 9793   1.424   7.662   1.112
 3150SOL    HW1 9794   1.476   7.597   1.167
 3150SOL    HW2 9795   1.375   7.725   1.173
 3151SOL     OW 9796   1.001   7.482   1.154
 3151SOL    HW1 9797   0.938   7.410   1.123
 3151SOL    HW2 9798   1.094   7.446   1.154
 3152SOL     OW 9799   1.352   7.500   0.168
 3152SOL    HW1 9800   1.387   7.459   0.084
 3152SOL    HW2 9801   1.262   7.462   0.188
 3153SOL     OW 9802   1.593   7.669   0.882
 3153SOL    HW1 9803   1.509   7.668   0.936
 3153SOL    HW2 9804   1.595   7.752   0.826
 3154SOL     OW 9805   0.225   7.723   2.858
 3154SOL    HW1 9806   0.260   7.706   2.950
 3154SOL    HW2 9807   0.137   7.678   2.846
 3155SOL     OW 9808   0.019   7.816   2.509
 3155SOL    HW1 9809  -0.063   7.859   2.548
 3155SOL    HW2 9810  -0.009   7.743   2.446
 3156SOL     OW 9811   0.438   7.840   3.361
 3156SOL    HW1 9812   0.520   7.784   3.370
 3156SOL    HW2 9813   0.357   7.782   3.365
 3157SOL     OW 9814   1.594   7.562   3.342
 3157SOL    HW1 9815   1.576   7.629   3.270
 3157SOL    HW2 9816   1.591   7.608   3.431
 3158SOL     OW 9817   0.809   7.452   2.364
 3158SOL    HW1 9818   0.849   7.543   2.355
 3158SOL    HW2 9819   0.709   7.460   2.370
 3159SOL     OW 9820   0.317   7.699   3.663
 3159SOL    HW1 9821   0.388   7.770   3.669
 3159SOL    HW2 9822   0.229   7.738   3.691
 3160SOL     OW 9823   1.281   7.793   2.806
 3160SOL    HW1 9824   1.195   7.743   2.793
 3160SOL    HW2 9825   1.343   7.739   2.862
 3161SOL     OW 9826   0.865   7.796   2.057
 3161SOL    HW1 9827   0.924   7.859   2.008
 3161SOL    HW2 9828   0.884   7.702   2.028
 3162SOL     OW 9829   0.550   7.644   2.747
 3162SOL    HW1 9830   0.545   7.639   2.847
 3162SOL    HW2 9831   0.552   7.740   2.718
 3163SOL     OW 9832   0.202   7.733   3.360
 3163SOL    HW1 9833   0.122   7.793   3.347
 3163SOL    HW2 9834   0.192   7.684   3.446
 3164SOL     OW 9835   1.400   7.555   2.288
 3164SOL    HW1 9836   1.376   7.518   2.198
 3164SOL    HW2 9837   1.499   7.571   2.292
 3165SOL     OW 9838   1.547   7.670   3.591
 3165SOL    HW1 9839   1.542   7.707   3.683
 3165SOL    HW2 9840   1.475   7.601   3.579
 3166SOL     OW 9841   0.614   7.570   1.979
 3166SOL    HW1 9842   0.712   7.548   1.986
 3166SOL    HW2 9843   0.583   7.553   1.886
 3167SOL     OW 9844   0.781   7.712   3.611
 3167SOL    HW1 9845   0.848   7.651   3.654
 3167SOL    HW2 9846   0.708   7.731   3.676
 3168SOL     OW 9847   0.539   7.512   2.374
 3168SOL    HW1 9848   0.458   7.513   2.432
 3168SOL    HW2 9849   0.542   7.595   2.319
 3169SOL     OW 9850   0.297   7.483   2.033
 3169SOL    HW1 9851   0.346   7.567   2.012
 3169SOL    HW2 9852   0.359   7.418   2.078
 3170SOL     OW 9853   0.935   7.684   2.342
 3170SOL    HW1 9854   0.887   7.725   2.264
 3170SOL    HW2 9855   1.034   7.682   2.323
 3171SOL     OW 9856   0.561   7.670   3.009
 3171SOL    HW1 9857   0.599   7.586   3.046
 3171SOL    HW2 9858   0.473   7.689   3.053
 3172SOL     OW 9859   1.017   7.487   2.615
 3172SOL    HW1 9860   0.945   7.492   2.546
 3172SOL    HW2 9861   0.993   7.418   2.684
 3173SOL     OW 9862   0.527   7.704   2.190
 3173SOL    HW1 9863   0.554   7.645   2.115
 3173SOL    HW2 9864   0.527   7.799   2.159
 3174SOL     OW 9865   0.915   7.537   3.264
 3174SOL    HW1 9866   0.940   7.517   3.169
 3174SOL    HW2 9867   0.987   7.593   3.306
 3175SOL     OW 9868   1.013   7.553   3.632
 3175SOL    HW1 9869   1.019   7.638   3.580
 3175SOL    HW2 9870   1.045   7.477   3.575
 3176SOL     OW 9871   0.504   7.498   3.602
 3176SOL    HW1 9872   0.462   7.441   3.532
 3176SOL    HW2 9873   0.438   7.567   3.634
 3177SOL     OW 9874   0.307   7.661   3.093
 3177SOL    HW1 9875   0.284   7.698   3.183
 3177SOL    HW2 9876   0.277   7.566   3.087
 3178SOL     OW 9877   0.307   7.511   2.480
 3178SOL    HW1 9878   0.296   7.605   2.513
 3178SOL    HW2 9879   0.302   7.448   2.557
 3179SOL     OW 9880   1.622   7.815   2.236
 3179SOL    HW1 9881   1.624   7.739   2.300
 3179SOL    HW2 9882   1.574   7.892   2.276
 3180SOL     OW 9883   1.540   7.722   1.987
 3180SOL    HW1 9884   1.479   7.647   2.010
 3180SOL    HW2 9885   1.562   7.774   2.070
 3181SOL     OW 9886   1.160   7.655   3.339
 3181SOL    HW1 9887   1.160   7.719   3.416
 3181SOL    HW2 9888   1.188   7.703   3.256
 3182SOL     OW 9889   1.726   7.583   2.385
 3182SOL    HW1 9890   1.799   7.566   2.318
 3182SOL    HW2 9891   1.695   7.496   2.423
 3183SOL     OW 9892   1.841   7.623   2.825
 3183SOL    HW1 9893   1.880   7.538   2.789
 3183SOL    HW2 9894   1.743   7.625   2.806
 3184SOL     OW 9895   0.263   7.774   2.582
 3184SOL    HW1 9896   0.184   7.825   2.548
 3184SOL    HW2 9897   0.254   7.759   2.680
 3185SOL     OW 9898   1.014   7.684   2.833
 3185SOL    HW1 9899   1.006   7.648   2.740
 3185SOL    HW2 9900   1.012   7.608   2.898
 3186SOL     OW 9901   1.709   7.833   3.243
 3186SOL    HW1 9902   1.782   7.902   3.247
 3186SOL    HW2 9903   1.737   7.758   3.184
 3187SOL     OW 9904   0.672   7.651   3.351
 3187SOL    HW1 9905   0.762   7.635   3.311
 3187SOL    HW2 9906   0.680   7.656   3.450
 3188SOL     OW 9907   0.075   7.793   1.895
 3188SOL    HW1 9908  -0.017   7.765   1.866
 3188SOL    HW2 9909   0.106   7.870   1.839
 3189SOL     OW 9910   0.072   7.614   2.180
 3189SOL    HW1 9911   0.055   7.697   2.126
 3189SOL    HW2 9912   0.162   7.577   2.158
 3190SOL     OW 9913   1.225   7.773   2.311
 3190SOL    HW1 9914   1.290   7.699   2.300
 3190SOL    HW2 9915   1.245   7.823   2.395
 3191SOL     OW 9916   1.777   7.790   3.504
 3191SOL    HW1 9917   1.760   7.821   3.410
 3191SOL    HW2 9918   1.693   7.753   3.542
 3192SOL     OW 9919   1.824   7.640   3.089
 3192SOL    HW1 9920   1.820   7.550   3.133
 3192SOL    HW2 9921   1.827   7.629   2.990
 3193SOL     OW 9922   1.424   7.662   2.974
 3193SOL    HW1 9923   1.476   7.597   3.029
 3193SOL    HW2 9924   1.375   7.725   3.035
 3194SOL     OW 9925   1.001   7.482   3.016
 3194SOL    HW1 9926   0.938   7.410   2.985
 3194SOL    HW2 9927   1.094   7.446   3.016
 3195SOL     OW 9928   1.352   7.500   2.030
 3195SOL    HW1 9929   1.387   7.459   1.946
 3195SOL    HW2 9930   1.262   7.462   2.050
 3196SOL     OW 9931   1.593   7.669   2.744
 3196SOL    HW1 9932   1.509   7.668   2.798
 3196SOL    HW2 9933   1.595   7.752   2.688
 3197SOL     OW 9934   0.225   7.723   4.720
 3197SOL    HW1 9935   0.260   7.706   4.812
 3197SOL    HW2 9936   0.137   7.678   4.708
 3198SOL     OW 9937   0.019   7.816   4.371
 3198SOL    HW1 9938  -0.063   7.859   4.410
 3198SOL    HW2 9939  -0.009   7.743   4.308
 3199SOL     OW 9940   0.438   7.840   5.223
 3199SOL    HW1 9941   0.520   7.784   5.232
 3199SOL    HW2 9942   0.357   7.782   5.227
 3200SOL     OW 9943   1.594   7.562   5.204
 3200SOL    HW1 9944   1.576   7.629   5.132
 3200SOL    HW2 9945   1.591   7.608   5.293
 3201SOL     OW 9946   0.809   7.452   4.226
 3201SOL    HW1 9947   0.849   7.543   4.217
 3201SOL    HW2 9948   0.709   7.460   4.232
 3202SOL     OW 9949   0.317   7.699   5.525
 3202SOL    HW1 9950   0.388   7.770   5.531
 3202SOL    HW2 9951   0.229   7.738   5.553
 3203SOL     OW 9952   1.281   7.793   4.668
 3203SOL    HW1 9953   1.195   7.743   4.655
 3203SOL    HW2 9954   1.343   7.739   4.724
 3204SOL     OW 9955   0.865   7.796   3.919
 3204SOL    HW1 9956   0.924   7.859   3.870
 3204SOL    HW2 9957   0.884   7.702   3.890
 3205SOL     OW 9958   0.550   7.644   4.609
 3205SOL    HW1 9959   0.545   7.639   4.709
 3205SOL    HW2 9960   0.552   7.740   4.580
 3206SOL     OW 9961   0.202   7.733   5.222
 3206SOL    HW1 9962   0.122   7.793   5.209
 3206SOL    HW2 9963   0.192   7.684   5.308
 3207SOL     OW 9964   1.400   7.555   4.150
 3207SOL    HW1 9965   1.376   7.518   4.060
 3207SOL    HW2 9966   1.499   7.571   4.154
 3208SOL     OW 9967   1.547   7.670   5.453
 3208SOL    HW1 9968   1.542   7.707   5.545
 3208SOL    HW2 9969   1.475   7.601   5.441
 3209SOL     OW 9970   0.614   7.570   3.841
 3209SOL    HW1 9971   0.712   7.548   3.848
 3209SOL    HW2 9972   0.583   7.553   3.748
 3210SOL     OW 9973   0.781   7.712   5.473
 3210SOL    HW1 9974   0.848   7.651   5.516
 3210SOL    HW2 9975   0.708   7.731   5.538
 3211SOL     OW 9976   0.539   7.512   4.236
 3211SOL    HW1 9977   0.458   7.513   4.294
 3211SOL    HW2 9978   0.542   7.595   4.181
 3212SOL     OW 9979   0.297   7.483   3.895
 3212SOL    HW1 9980   0.346   7.567   3.874
 3212SOL    HW2 9981   0.359   7.418   3.940
 3213SOL     OW 9982   0.935   7.684   4.204
 3213SOL    HW1 9983   0.887   7.725   4.126
 3213SOL    HW2 9984   1.034   7.682   4.185
 3214SOL     OW 9985   0.561   7.670   4.871
 3214SOL    HW1 9986   0.599   7.586   4.908
 3214SOL    HW2 9987   0.473   7.689   4.915
 3215SOL     OW 9988   1.017   7.487   4.477
 3215SOL    HW1 9989   0.945   7.492   4.408
 3215SOL    HW2 9990   0.993   7.418   4.546
 3216SOL     OW 9991   0.527   7.704   4.052
 3216SOL    HW1 9992   0.554   7.645   3.977
 3216SOL    HW2 9993   0.527   7.799   4.021
 3217SOL     OW 9994   0.915   7.537   5.126
 3217SOL    HW1 9995   0.940   7.517   5.031
 3217SOL    HW2 9996   0.987   7.593   5.168
 3218SOL     OW 9997   1.013   7.553   5.494
 3218SOL    HW1 9998   1.019   7.638   5.442
 3218SOL    HW2 9999   1.045   7.477   5.437
 3219SOL     OW10000   0.504   7.498   5.464
 3219SOL    HW110001   0.462   7.441   5.394
 3219SOL    HW210002   0.438   7.567   5.496
 3220SOL     OW10003   0.307   7.661   4.955
 3220SOL    HW110004   0.284   7.698   5.045
 3220SOL    HW210005   0.277   7.566   4.949
 3221SOL     OW10006   0.307   7.511   4.342
 3221SOL    HW110007   0.296   7.605   4.375
 3221SOL    HW210008   0.302   7.448   4.419
 3222SOL     OW10009   1.622   7.815   4.098
 3222SOL    HW110010   1.624   7.739   4.162
 3222SOL    HW210011   1.574   7.892   4.138
 3223SOL     OW10012   1.540   7.722   3.849
 3223SOL    HW110013   1.479   7.647   3.872
 3223SOL    HW210014   1.562   7.774   3.932
 3224SOL     OW10015   1.160   7.655   5.201
 3224SOL    HW110016   1.160   7.719   5.278
 3224SOL    HW210017   1.188   7.703   5.118
 3225SOL     OW10018   1.726   7.583   4.247
 3225SOL    HW110019   1.799   7.566   4.180
 3225SOL    HW210020   1.695   7.496   4.285
 3226SOL     OW10021   1.841   7.623   4.687
 3226SOL    HW110022   1.880   7.538   4.651
 3226SOL    HW210023   1.743   7.625   4.668
 3227SOL     OW10024   0.263   7.774   4.444
 3227SOL    HW110025   0.184   7.825   4.410
 3227SOL    HW210026   0.254   7.759   4.542
 3228SOL     OW10027   1.709   7.833   5.105
 3228SOL    HW110028   1.782   7.902   5.109
 3228SOL    HW210029   1.737   7.758   5.046
 3229SOL     OW10030   0.672   7.651   5.213
 3229SOL    HW110031   0.762   7.635   5.173
 3229SOL    HW210032   0.680   7.656   5.312
 3230SOL     OW10033   0.075   7.793   3.757
 3230SOL    HW110034  -0.017   7.765   3.728
 3230SOL    HW210035   0.106   7.870   3.701
 3231SOL     OW10036   0.072   7.614   4.042
 3231SOL    HW110037   0.055   7.697   3.988
 3231SOL    HW210038   0.162   7.577   4.020
 3232SOL     OW10039   1.225   7.773   4.173
 3232SOL    HW110040   1.290   7.699   4.162
 3232SOL    HW210041   1.245   7.823   4.257
 3233SOL     OW10042   1.777   7.790   5.366
 3233SOL    HW110043   1.760   7.821   5.272
 3233SOL    HW210044   1.693   7.753   5.404
 3234SOL     OW10045   1.824   7.640   4.951
 3234SOL    HW110046   1.820   7.550   4.995
 3234SOL    HW210047   1.827   7.629   4.852
 3235SOL     OW10048   1.424   7.662   4.836
 3235SOL    HW110049   1.476   7.597   4.891
 3235SOL    HW210050   1.375   7.725   4.897
 3236SOL     OW10051   1.001   7.482   4.878
 3236SOL    HW110052   0.938   7.410   4.847
 3236SOL    HW210053   1.094   7.446   4.878
 3237SOL     OW10054   1.352   7.500   3.892
 3237SOL    HW110055   1.387   7.459   3.808
 3237SOL    HW210056   1.262   7.462   3.912
 3238SOL     OW10057   1.593   7.669   4.606
 3238SOL    HW110058   1.509   7.668   4.660
 3238SOL    HW210059   1.595   7.752   4.550
 3239SOL     OW10060   0.225   7.723   6.582
 3239SOL    HW110061   0.260   7.706   6.674
 3239SOL    HW210062   0.137   7.678   6.570
 3240SOL     OW10063   0.019   7.816   6.233
 3240SOL    HW110064  -0.063   7.859   6.272
 3240SOL    HW210065  -0.009   7.743   6.170
 3241SOL     OW10066   0.809   7.452   6.088
 3241SOL    HW110067   0.849   7.543   6.079
 3241SOL    HW210068   0.709   7.460   6.094
 3242SOL     OW10069   1.281   7.793   6.530
 3242SOL    HW110070   1.195   7.743   6.517
 3242SOL    HW210071   1.343   7.739   6.586
 3243SOL     OW10072   0.865   7.796   5.781
 3243SOL    HW110073   0.924   7.859   5.732
 3243SOL    HW210074   0.884   7.702   5.752
 3244SOL     OW10075   0.550   7.644   6.471
 3244SOL    HW110076   0.545   7.639   6.571
 3244SOL    HW210077   0.552   7.740   6.442
 3245SOL     OW10078   1.400   7.555   6.012
 3245SOL    HW110079   1.376   7.518   5.922
 3245SOL    HW210080   1.499   7.571   6.016
 3246SOL     OW10081   0.614   7.570   5.703
 3246SOL    HW110082   0.712   7.548   5.710
 3246SOL    HW210083   0.583   7.553   5.610
 3247SOL     OW10084   0.539   7.512   6.098
 3247SOL    HW110085   0.458   7.513   6.156
 3247SOL    HW210086   0.542   7.595   6.043
 3248SOL     OW10087   0.297   7.483   5.757
 3248SOL    HW110088   0.346   7.567   5.736
 3248SOL    HW210089   0.359   7.418   5.802
 3249SOL     OW10090   0.935   7.684   6.066
 3249SOL    HW110091   0.887   7.725   5.988
 3249SOL    HW210092   1.034   7.682   6.047
 3250SOL     OW10093   0.561   7.670   6.733
 3250SOL    HW110094   0.599   7.586   6.770
 3250SOL    HW210095   0.473   7.689   6.777
 3251SOL     OW10096   1.017   7.487   6.339
 3251SOL    HW110097   0.945   7.492   6.270
 3251SOL    HW210098   0.993   7.418   6.408
 3252SOL     OW10099   0.527   7.704   5.914
 3252SOL    HW110100   0.554   7.645   5.839
 3252SOL    HW210101   0.527   7.799   5.883
 3253SOL     OW10102   0.307   7.511   6.204
 3253SOL    HW110103   0.296   7.605   6.237
 3253SOL    HW210104   0.302   7.448   6.281
 3254SOL     OW10105   1.622   7.815   5.960
 3254SOL    HW110106   1.624   7.739   6.024
 3254SOL    HW210107   1.574   7.892   6.000
 3255SOL     OW10108   1.540   7.722   5.711
 3255SOL    HW110109   1.479   7.647   5.734
 3255SOL    HW210110   1.562   7.774   5.794
 3256SOL     OW10111   1.726   7.583   6.109
 3256SOL    HW110112   1.799   7.566   6.042
 3256SOL    HW210113   1.695   7.496   6.147
 3257SOL     OW10114   1.841   7.623   6.549
 3257SOL    HW110115   1.880   7.538   6.513
 3257SOL    HW210116   1.743   7.625   6.530
 3258SOL     OW10117   0.263   7.774   6.306
 3258SOL    HW110118   0.184   7.825   6.272
 3258SOL    HW210119   0.254   7.759   6.404
 3259SOL     OW10120   1.014   7.684   6.557
 3259SOL    HW110121   1.006   7.648   6.464
 3259SOL    HW210122   1.012   7.608   6.622
 3260SOL     OW10123   0.075   7.793   5.619
 3260SOL    HW110124  -0.017   7.765   5.590
 3260SOL    HW210125   0.106   7.870   5.563
 3261SOL     OW10126   0.072   7.614   5.904
 3261SOL    HW110127   0.055   7.697   5.850
 3261SOL    HW210128   0.162   7.577   5.882
 3262SOL     OW10129   1.225   7.773   6.035
 3262SOL    HW110130   1.290   7.699   6.024
 3262SOL    HW210131   1.245   7.823   6.119
 3263SOL     OW10132   1.824   7.640   6.813
 3263SOL    HW110133   1.820   7.550   6.857
 3263SOL    HW210134   1.827   7.629   6.714
 3264SOL     OW10135   1.424   7.662   6.698
 3264SOL    HW110136   1.476   7.597   6.753
 3264SOL    HW210137   1.375   7.725   6.759
 3265SOL     OW10138   1.001   7.482   6.740
 3265SOL    HW110139   0.938   7.410   6.709
 3265SOL    HW210140   1.094   7.446   6.740
 3266SOL     OW10141   1.352   7.500   5.754
 3266SOL    HW110142   1.387   7.459   5.670
 3266SOL    HW210143   1.262   7.462   5.774
 3267SOL     OW10144   1.593   7.669   6.468
 3267SOL    HW110145   1.509   7.668   6.522
 3267SOL    HW210146   1.595   7.752   6.412
 3268SOL     OW10147   2.092   0.628   0.113
 3268SOL    HW110148   1.999   0.626   0.150
 3268SOL    HW210149   2.093   0.589   0.021
 3269SOL     OW10150   2.087   0.275   0.996
 3269SOL    HW110151   2.122   0.258   1.088
 3269SOL    HW210152   1.999   0.230   0.984
 3270SOL     OW10153   1.881   0.368   0.647
 3270SOL    HW110154   1.799   0.411   0.686
 3270SOL    HW210155   1.853   0.295   0.584
 3271SOL     OW10156   2.431   1.275   1.165
 3271SOL    HW110157   2.338   1.268   1.128
 3271SOL    HW210158   2.442   1.364   1.209
 3272SOL     OW10159   3.417   1.511   0.703
 3272SOL    HW110160   3.360   1.495   0.784
 3272SOL    HW210161   3.358   1.521   0.623
 3273SOL     OW10162   2.997   0.703   0.717
 3273SOL    HW110163   3.054   0.781   0.692
 3273SOL    HW210164   2.937   0.729   0.793
 3274SOL     OW10165   2.630   1.144   1.023
 3274SOL    HW110166   2.552   1.161   1.083
 3274SOL    HW210167   2.664   1.231   0.987
 3275SOL     OW10168   2.712   0.798   1.823
 3275SOL    HW110169   2.708   0.874   1.888
 3275SOL    HW210170   2.734   0.834   1.732
 3276SOL     OW10171   2.547   1.012   0.665
 3276SOL    HW110172   2.616   0.996   0.735
 3276SOL    HW210173   2.474   1.069   0.703
 3277SOL     OW10174   2.548   1.161   1.803
 3277SOL    HW110175   2.608   1.240   1.817
 3277SOL    HW210176   2.462   1.192   1.762
 3278SOL     OW10177   2.197   1.435   1.061
 3278SOL    HW110178   2.119   1.404   1.008
 3278SOL    HW210179   2.255   1.493   1.004
 3279SOL     OW10180   3.322   1.505   1.339
 3279SOL    HW110181   3.346   1.599   1.365
 3279SOL    HW210182   3.306   1.451   1.421
 3280SOL     OW10183   2.300   0.392   1.499
 3280SOL    HW110184   2.382   0.336   1.508
 3280SOL    HW210185   2.219   0.334   1.503
 3281SOL     OW10186   3.465   0.447   0.737
 3281SOL    HW110187   3.391   0.493   0.687
 3281SOL    HW210188   3.516   0.515   0.790
 3282SOL     OW10189   2.093   1.713   0.483
 3282SOL    HW110190   2.127   1.790   0.537
 3282SOL    HW210191   2.137   1.713   0.393
 3283SOL     OW10192   2.989   1.341   1.690
 3283SOL    HW110193   3.036   1.341   1.778
 3283SOL    HW210194   2.941   1.254   1.679
 3284SOL     OW10195   2.102   1.091   0.886
 3284SOL    HW110196   2.116   1.007   0.938
 3284SOL    HW210197   2.047   1.155   0.941
 3285SOL     OW10198   2.482   1.786   1.439
 3285SOL    HW110199   2.390   1.769   1.474
 3285SOL    HW210200   2.510   1.878   1.465
 3286SOL     OW10201   2.468   0.964   0.123
 3286SOL    HW110202   2.475   1.048   0.069
 3286SOL    HW210203   2.514   0.977   0.211
 3287SOL     OW10204   3.456   0.114   1.480
 3287SOL    HW110205   3.438   0.181   1.408
 3287SOL    HW210206   3.453   0.160   1.569
 3288SOL     OW10207   1.984   0.643   0.563
 3288SOL    HW110208   1.939   0.555   0.580
 3288SOL    HW210209   1.983   0.697   0.647
 3289SOL     OW10210   1.889   1.596   0.117
 3289SOL    HW110211   1.870   1.500   0.138
 3289SOL    HW210212   1.856   1.654   0.192
 3290SOL     OW10213   3.551   0.922   0.612
 3290SOL    HW110214   3.646   0.893   0.620
 3290SOL    HW210215   3.543   0.987   0.537
 3291SOL     OW10216   3.503   1.108   0.432
 3291SOL    HW110217   3.589   1.110   0.380
 3291SOL    HW210218   3.517   1.155   0.520
 3292SOL     OW10219   1.975   0.737   1.597
 3292SOL    HW110220   2.063   0.724   1.642
 3292SOL    HW210221   1.962   0.834   1.575
 3293SOL     OW10222   2.475   1.365   0.726
 3293SOL    HW110223   2.426   1.278   0.735
 3293SOL    HW210224   2.452   1.408   0.639
 3294SOL     OW10225   3.155   1.228   1.423
 3294SOL    HW110226   3.192   1.155   1.365
 3294SOL    HW210227   3.207   1.233   1.508
 3295SOL     OW10228   2.671   0.004   0.502
 3295SOL    HW110229   2.711   0.095   0.493
 3295SOL    HW210230   2.571   0.012   0.508
 3296SOL     OW10231   2.059   0.976   1.264
 3296SOL    HW110232   2.148   0.931   1.250
 3296SOL    HW210233   1.986   0.911   1.245
 3297SOL     OW10234   3.049   1.792   1.616
 3297SOL    HW110235   3.073   1.852   1.540
 3297SOL    HW210236   3.056   1.697   1.586
 3298SOL     OW10237   2.179   0.251   1.801
 3298SOL    HW110238   2.250   0.322   1.807
 3298SOL    HW210239   2.091   0.290   1.829
 3299SOL     OW10240   3.328   1.417   0.953
 3299SOL    HW110241   3.269   1.423   1.033
 3299SOL    HW210242   3.313   1.329   0.907
 3300SOL     OW10243   3.529   1.714   0.572
 3300SOL    HW110244   3.488   1.691   0.484
 3300SOL    HW210245   3.511   1.640   0.637
 3301SOL     OW10246   2.460   0.729   0.270
 3301SOL    HW110247   2.484   0.798   0.202
 3301SOL    HW210248   2.382   0.762   0.324
 3302SOL     OW10249   3.143   0.345   0.944
 3302SOL    HW110250   3.057   0.295   0.931
 3302SOL    HW210251   3.205   0.291   1.000
 3303SOL     OW10252   3.438   1.662   0.307
 3303SOL    HW110253   3.527   1.708   0.310
 3303SOL    HW210254   3.417   1.638   0.212
 3304SOL     OW10255   2.669   0.605   1.465
 3304SOL    HW110256   2.622   0.602   1.554
 3304SOL    HW210257   2.618   0.550   1.399
 3305SOL     OW10258   3.256   0.469   1.674
 3305SOL    HW110259   3.236   0.512   1.762
 3305SOL    HW210260   3.334   0.407   1.683
 3306SOL     OW10261   2.835   0.890   1.572
 3306SOL    HW110262   2.881   0.806   1.543
 3306SOL    HW210263   2.779   0.924   1.497
 3307SOL     OW10264   2.853   0.410   1.242
 3307SOL    HW110265   2.776   0.444   1.296
 3307SOL    HW210266   2.819   0.359   1.163
 3308SOL     OW10267   2.903   0.701   0.429
 3308SOL    HW110268   2.929   0.697   0.525
 3308SOL    HW210269   2.818   0.650   0.415
 3309SOL     OW10270   1.938   0.811   0.789
 3309SOL    HW110271   2.037   0.799   0.798
 3309SOL    HW210272   1.914   0.906   0.810
 3310SOL     OW10273   1.992   1.821   1.571
 3310SOL    HW110274   1.982   1.806   1.670
 3310SOL    HW210275   1.906   1.857   1.535
 3311SOL     OW10276   3.581   0.585   1.831
 3311SOL    HW110277   3.555   0.674   1.795
 3311SOL    HW210278   3.579   0.517   1.758
 3312SOL     OW10279   3.224   1.144   0.545
 3312SOL    HW110280   3.307   1.115   0.497
 3312SOL    HW210281   3.175   1.211   0.489
 3313SOL     OW10282   2.412   0.196   0.885
 3313SOL    HW110283   2.407   0.191   0.985
 3313SOL    HW210284   2.414   0.292   0.856
 3314SOL     OW10285   2.870   1.456   0.477
 3314SOL    HW110286   2.824   1.528   0.425
 3314SOL    HW210287   2.866   1.476   0.575
 3315SOL     OW10288   2.213   1.801   0.853
 3315SOL    HW110289   2.263   1.715   0.859
 3315SOL    HW210290   2.278   1.878   0.850
 3316SOL     OW10291   3.657   1.066   0.873
 3316SOL    HW110292   3.595   1.051   0.797
 3316SOL    HW210293   3.605   1.077   0.958
 3317SOL     OW10294   3.089   1.550   1.506
 3317SOL    HW110295   3.095   1.473   1.570
 3317SOL    HW210296   3.037   1.524   1.426
 3318SOL     OW10297   2.183   0.943   0.242
 3318SOL    HW110298   2.265   0.982   0.200
 3318SOL    HW210299   2.156   0.861   0.193
 3319SOL     OW10300   3.320   0.735   0.728
 3319SOL    HW110301   3.315   0.670   0.803
 3319SOL    HW210302   3.400   0.794   0.741
 3320SOL     OW10303   2.323   1.266   1.727
 3320SOL    HW110304   2.273   1.267   1.641
 3320SOL    HW210305   2.260   1.248   1.803
 3321SOL     OW10306   2.064   0.285   1.498
 3321SOL    HW110307   1.984   0.345   1.485
 3321SOL    HW210308   2.054   0.236   1.584
 3322SOL     OW10309   2.326   1.743   0.323
 3322SOL    HW110310   2.359   1.782   0.409
 3322SOL    HW210311   2.402   1.736   0.258
 3323SOL     OW10312   2.111   1.785   1.241
 3323SOL    HW110313   2.168   1.720   1.291
 3323SOL    HW210314   2.095   1.752   1.148
 3324SOL     OW10315   2.802   1.698   0.904
 3324SOL    HW110316   2.882   1.641   0.925
 3324SOL    HW210317   2.753   1.658   0.827
 3325SOL     OW10318   2.244   0.700   0.480
 3325SOL    HW110319   2.289   0.610   0.477
 3325SOL    HW210320   2.150   0.689   0.513
 3326SOL     OW10321   3.409   0.222   1.729
 3326SOL    HW110322   3.404   0.259   1.821
 3326SOL    HW210323   3.337   0.153   1.717
 3327SOL     OW10324   2.476   0.122   0.117
 3327SOL    HW110325   2.574   0.100   0.124
 3327SOL    HW210326   2.445   0.105   0.024
 3328SOL     OW10327   2.643   0.264   1.749
 3328SOL    HW110328   2.710   0.203   1.792
 3328SOL    HW210329   2.570   0.283   1.814
 3329SOL     OW10330   2.750   1.514   1.195
 3329SOL    HW110331   2.727   1.489   1.101
 3329SOL    HW210332   2.811   1.445   1.234
 3330SOL     OW10333   3.213   0.590   1.433
 3330SOL    HW110334   3.241   0.547   1.518
 3330SOL    HW210335   3.238   0.686   1.434
 3331SOL     OW10336   2.665   1.402   0.924
 3331SOL    HW110337   2.755   1.416   0.882
 3331SOL    HW210338   2.594   1.404   0.853
 3332SOL     OW10339   2.784   0.503   0.899
 3332SOL    HW110340   2.759   0.494   0.803
 3332SOL    HW210341   2.832   0.421   0.930
 3333SOL     OW10342   2.401   0.064   0.512
 3333SOL    HW110343   2.320   0.065   0.570
 3333SOL    HW210344   2.404   0.147   0.457
 3334SOL     OW10345   2.159   0.035   0.171
 3334SOL    HW110346   2.208   0.119   0.150
 3334SOL    HW210347   2.221  -0.030   0.216
 3335SOL     OW10348   2.797   0.236   0.480
 3335SOL    HW110349   2.749   0.277   0.402
 3335SOL    HW210350   2.896   0.234   0.461
 3336SOL     OW10351   2.938   0.683   1.464
 3336SOL    HW110352   2.858   0.622   1.467
 3336SOL    HW210353   3.019   0.630   1.440
 3337SOL     OW10354   3.089   1.570   0.793
 3337SOL    HW110355   3.110   1.644   0.728
 3337SOL    HW210356   3.157   1.570   0.866
 3338SOL     OW10357   2.321   1.152   0.741
 3338SOL    HW110358   2.250   1.125   0.806
 3338SOL    HW210359   2.295   1.124   0.648
 3339SOL     OW10360   3.133   1.797   0.591
 3339SOL    HW110361   3.177   1.861   0.527
 3339SOL    HW210362   3.083   1.849   0.661
 3340SOL     OW10363   1.940   0.556   1.386
 3340SOL    HW110364   2.032   0.555   1.345
 3340SOL    HW210365   1.934   0.630   1.453
 3341SOL     OW10366   2.423   0.222   1.147
 3341SOL    HW110367   2.461   0.138   1.184
 3341SOL    HW210368   2.335   0.241   1.191
 3342SOL     OW10369   2.728   0.454   0.642
 3342SOL    HW110370   2.696   0.526   0.580
 3342SOL    HW210371   2.752   0.373   0.589
 3343SOL     OW10372   2.879   0.039   0.753
 3343SOL    HW110373   2.807   0.044   0.684
 3343SOL    HW210374   2.855  -0.030   0.822
 3344SOL     OW10375   3.291   1.173   0.867
 3344SOL    HW110376   3.236   1.089   0.860
 3344SOL    HW210377   3.317   1.202   0.775
 3345SOL     OW10378   3.328   0.590   0.992
 3345SOL    HW110379   3.298   0.495   0.999
 3345SOL    HW210380   3.401   0.606   1.058
 3346SOL     OW10381   3.719   0.833   0.377
 3346SOL    HW110382   3.761   0.769   0.441
 3346SOL    HW210383   3.681   0.782   0.299
 3347SOL     OW10384   2.350   1.385   0.174
 3347SOL    HW110385   2.263   1.370   0.221
 3347SOL    HW210386   2.333   1.411   0.079
 3348SOL     OW10387   3.526   1.280   0.657
 3348SOL    HW110388   3.625   1.288   0.671
 3348SOL    HW210389   3.481   1.364   0.688
 3349SOL     OW10390   2.389   0.256   0.328
 3349SOL    HW110391   2.416   0.197   0.253
 3349SOL    HW210392   2.389   0.351   0.297
 3350SOL     OW10393   3.616   1.223   1.588
 3350SOL    HW110394   3.707   1.184   1.575
 3350SOL    HW210395   3.624   1.319   1.612
 3351SOL     OW10396   2.926   1.347   1.340
 3351SOL    HW110397   2.846   1.324   1.395
 3351SOL    HW210398   3.009   1.321   1.389
 3352SOL     OW10399   3.454   1.629   1.625
 3352SOL    HW110400   3.481   1.663   1.535
 3352SOL    HW210401   3.533   1.591   1.671
 3353SOL     OW10402   2.973   1.195   1.100
 3353SOL    HW110403   2.933   1.239   1.181
 3353SOL    HW210404   2.932   1.232   1.017
 3354SOL     OW10405   3.500   1.099   1.079
 3354SOL    HW110406   3.505   1.180   1.138
 3354SOL    HW210407   3.414   1.101   1.028
 3355SOL     OW10408   2.777   0.089   1.402
 3355SOL    HW110409   2.802   0.069   1.307
 3355SOL    HW210410   2.849   0.145   1.444
 3356SOL     OW10411   2.842   1.116   1.719
 3356SOL    HW110412   2.743   1.122   1.729
 3356SOL    HW210413   2.865   1.036   1.663
 3357SOL     OW10414   2.567   1.050   0.368
 3357SOL    HW110415   2.553   1.057   0.467
 3357SOL    HW210416   2.651   0.999   0.350
 3358SOL     OW10417   2.272   0.813   1.251
 3358SOL    HW110418   2.358   0.825   1.301
 3358SOL    HW210419   2.230   0.726   1.278
 3359SOL     OW10420   3.136   0.386   1.262
 3359SOL    HW110421   3.157   0.460   1.326
 3359SOL    HW210422   3.047   0.403   1.219
 3360SOL     OW10423   1.926   1.564   1.331
 3360SOL    HW110424   1.880   1.646   1.297
 3360SOL    HW210425   2.024   1.583   1.340
 3361SOL     OW10426   2.229   1.100   0.501
 3361SOL    HW110427   2.222   1.183   0.445
 3361SOL    HW210428   2.233   1.020   0.441
 3362SOL     OW10429   2.428   0.537   0.865
 3362SOL    HW110430   2.440   0.603   0.791
 3362SOL    HW210431   2.474   0.571   0.948
 3363SOL     OW10432   3.114   1.348   0.388
 3363SOL    HW110433   3.164   1.425   0.428
 3363SOL    HW210434   3.019   1.350   0.420
 3364SOL     OW10435   3.134   1.445   1.142
 3364SOL    HW110436   3.181   1.458   1.229
 3364SOL    HW210437   3.068   1.371   1.151
 3365SOL     OW10438   3.444   0.639   0.472
 3365SOL    HW110439   3.413   0.700   0.545
 3365SOL    HW210440   3.494   0.691   0.403
 3366SOL     OW10441   2.216   1.510   1.329
 3366SOL    HW110442   2.195   1.466   1.242
 3366SOL    HW210443   2.313   1.536   1.332
 3367SOL     OW10444   2.264   0.751   1.598
 3367SOL    HW110445   2.332   0.806   1.551
 3367SOL    HW210446   2.304   0.663   1.625
 3368SOL     OW10447   3.449   0.779   1.670
 3368SOL    HW110448   3.357   0.817   1.665
 3368SOL    HW210449   3.509   0.826   1.605
 3369SOL     OW10450   2.875   0.105   1.770
 3369SOL    HW110451   2.881   0.190   1.718
 3369SOL    HW210452   2.907   0.029   1.713
 3370SOL     OW10453   2.366   0.050   1.740
 3370SOL    HW110454   2.324  -0.007   1.670
 3370SOL    HW210455   2.300   0.119   1.772
 3371SOL     OW10456   2.435   0.870   1.029
 3371SOL    HW110457   2.479   0.959   1.020
 3371SOL    HW210458   2.372   0.870   1.106
 3372SOL     OW10459   3.222   0.862   1.045
 3372SOL    HW110460   3.147   0.862   0.979
 3372SOL    HW210461   3.259   0.770   1.054
 3373SOL     OW10462   2.169   0.213   1.231
 3373SOL    HW110463   2.146   0.250   1.321
 3373SOL    HW210464   2.139   0.118   1.225
 3374SOL     OW10465   1.899   1.310   1.282
 3374SOL    HW110466   1.952   1.261   1.350
 3374SOL    HW210467   1.921   1.408   1.287
 3375SOL     OW10468   2.594   0.634   1.064
 3375SOL    HW110469   2.653   0.608   0.988
 3375SOL    HW210470   2.566   0.730   1.053
 3376SOL     OW10471   3.590   0.935   1.854
 3376SOL    HW110472   3.544   0.928   1.765
 3376SOL    HW210473   3.528   0.979   1.920
 3377SOL     OW10474   2.169   0.063   0.618
 3377SOL    HW110475   2.158   0.157   0.651
 3377SOL    HW210476   2.164   0.000   0.695
 3378SOL     OW10477   2.885   0.766   0.966
 3378SOL    HW110478   2.900   0.787   1.062
 3378SOL    HW210479   2.855   0.671   0.957
 3379SOL     OW10480   2.842   1.573   1.700
 3379SOL    HW110481   2.822   1.617   1.612
 3379SOL    HW210482   2.881   1.482   1.684
 3380SOL     OW10483   3.721   1.518   1.605
 3380SOL    HW110484   3.735   1.545   1.510
 3380SOL    HW210485   3.804   1.540   1.658
 3381SOL     OW10486   2.212   0.898   1.804
 3381SOL    HW110487   2.288   0.942   1.852
 3381SOL    HW210488   2.247   0.851   1.722
 3382SOL     OW10489   2.930   1.333   0.849
 3382SOL    HW110490   2.937   1.249   0.794
 3382SOL    HW210491   2.992   1.402   0.813
 3383SOL     OW10492   2.181   0.810   0.949
 3383SOL    HW110493   2.274   0.846   0.954
 3383SOL    HW210494   2.175   0.725   1.001
 3384SOL     OW10495   2.201   0.509   1.006
 3384SOL    HW110496   2.149   0.426   0.989
 3384SOL    HW210497   2.278   0.514   0.942
 3385SOL     OW10498   3.000   0.380   1.678
 3385SOL    HW110499   2.955   0.443   1.742
 3385SOL    HW210500   3.093   0.411   1.661
 3386SOL     OW10501   3.022   0.207   1.477
 3386SOL    HW110502   3.022   0.271   1.554
 3386SOL    HW210503   3.050   0.255   1.394
 3387SOL     OW10504   1.870   1.326   0.200
 3387SOL    HW110505   1.777   1.347   0.169
 3387SOL    HW210506   1.880   1.227   0.213
 3388SOL     OW10507   1.950   1.801   0.927
 3388SOL    HW110508   1.908   1.715   0.900
 3388SOL    HW210509   2.044   1.804   0.893
 3389SOL     OW10510   2.366   1.568   0.910
 3389SOL    HW110511   2.432   1.642   0.919
 3389SOL    HW210512   2.410   1.489   0.868
 3390SOL     OW10513   2.864   0.796   1.238
 3390SOL    HW110514   2.905   0.764   1.324
 3390SOL    HW210515   2.768   0.769   1.235
 3391SOL     OW10516   1.902   0.544   1.114
 3391SOL    HW110517   1.987   0.511   1.073
 3391SOL    HW210518   1.915   0.559   1.212
 3392SOL     OW10519   2.051   0.520   1.722
 3392SOL    HW110520   2.110   0.480   1.652
 3392SOL    HW210521   1.993   0.591   1.681
 3393SOL     OW10522   3.231   0.950   1.660
 3393SOL    HW110523   3.270   1.039   1.680
 3393SOL    HW210524   3.241   0.930   1.563
 3394SOL     OW10525   3.519   0.604   1.206
 3394SOL    HW110526   3.481   0.535   1.268
 3394SOL    HW210527   3.601   0.568   1.162
 3395SOL     OW10528   2.114   1.564   1.744
 3395SOL    HW110529   2.084   1.621   1.820
 3395SOL    HW210530   2.107   1.467   1.770
 3396SOL     OW10531   2.533   0.464   1.269
 3396SOL    HW110532   2.499   0.375   1.239
 3396SOL    HW210533   2.559   0.518   1.189
 3397SOL     OW10534   2.792   1.678   1.465
 3397SOL    HW110535   2.768   1.660   1.370
 3397SOL    HW210536   2.822   1.772   1.475
 3398SOL     OW10537   2.335   0.500   0.191
 3398SOL    HW110538   2.396   0.580   0.195
 3398SOL    HW210539   2.240   0.531   0.198
 3399SOL     OW10540   2.021   1.137   1.466
 3399SOL    HW110541   2.043   1.076   1.542
 3399SOL    HW210542   2.031   1.088   1.380
 3400SOL     OW10543   3.209   1.059   1.234
 3400SOL    HW110544   3.233   0.996   1.160
 3400SOL    HW210545   3.119   1.099   1.216
 3401SOL     OW10546   3.621   1.747   1.154
 3401SOL    HW110547   3.682   1.777   1.081
 3401SOL    HW210548   3.583   1.658   1.132
 3402SOL     OW10549   3.114   1.731   1.128
 3402SOL    HW110550   3.198   1.736   1.074
 3402SOL    HW210551   3.091   1.635   1.146
 3403SOL     OW10552   1.945   1.258   1.022
 3403SOL    HW110553   1.940   1.257   1.122
 3403SOL    HW210554   1.862   1.217   0.984
 3404SOL     OW10555   2.550   1.662   1.716
 3404SOL    HW110556   2.494   1.743   1.725
 3404SOL    HW210557   2.602   1.666   1.630
 3405SOL     OW10558   3.588   0.135   0.523
 3405SOL    HW110559   3.661   0.118   0.456
 3405SOL    HW210560   3.557   0.048   0.561
 3406SOL     OW10561   3.250   1.573   0.477
 3406SOL    HW110562   3.317   1.585   0.403
 3406SOL    HW210563   3.210   1.662   0.500
 3407SOL     OW10564   1.992   1.794   1.851
 3407SOL    HW110565   1.951   1.720   1.904
 3407SOL    HW210566   2.056   1.845   1.909
 3408SOL     OW10567   3.142   0.927   0.672
 3408SOL    HW110568   3.202   0.846   0.674
 3408SOL    HW210569   3.182   0.996   0.612
 3409SOL     OW10570   2.692   1.273   1.422
 3409SOL    HW110571   2.687   1.306   1.517
 3409SOL    HW210572   2.606   1.292   1.376
 3410SOL     OW10573   2.534   1.616   0.154
 3410SOL    HW110574   2.543   1.626   0.055
 3410SOL    HW210575   2.494   1.527   0.175
 3411SOL     OW10576   3.512   1.720   1.394
 3411SOL    HW110577   3.565   1.730   1.310
 3411SOL    HW210578   3.485   1.810   1.428
 3412SOL     OW10579   3.703   0.175   0.963
 3412SOL    HW110580   3.742   0.090   0.927
 3412SOL    HW210581   3.605   0.177   0.944
 3413SOL     OW10582   2.125   0.326   0.720
 3413SOL    HW110583   2.046   0.377   0.686
 3413SOL    HW210584   2.116   0.311   0.818
 3414SOL     OW10585   2.684   1.002   1.372
 3414SOL    HW110586   2.724   1.001   1.280
 3414SOL    HW210587   2.694   1.094   1.412
 3415SOL     OW10588   2.778   0.910   0.291
 3415SOL    HW110589   2.841   0.948   0.223
 3415SOL    HW210590   2.818   0.827   0.330
 3416SOL     OW10591   2.234   1.288   1.490
 3416SOL    HW110592   2.221   1.381   1.456
 3416SOL    HW210593   2.150   1.236   1.477
 3417SOL     OW10594   3.476   1.292   1.289
 3417SOL    HW110595   3.536   1.295   1.369
 3417SOL    HW210596   3.401   1.356   1.302
 3418SOL     OW10597   2.901   1.098   0.696
 3418SOL    HW110598   2.831   1.051   0.750
 3418SOL    HW210599   2.960   1.030   0.653
 3419SOL     OW10600   2.876   0.236   0.971
 3419SOL    HW110601   2.868   0.200   0.878
 3419SOL    HW210602   2.874   0.160   1.036
 3420SOL     OW10603   2.452   1.487   0.491
 3420SOL    HW110604   2.494   1.429   0.421
 3420SOL    HW210605   2.408   1.566   0.447
 3421SOL     OW10606   3.571   0.385   1.381
 3421SOL    HW110607   3.644   0.454   1.385
 3421SOL    HW210608   3.599   0.310   1.322
 3422SOL     OW10609   2.117   1.348   0.290
 3422SOL    HW110610   2.021   1.349   0.263
 3422SOL    HW210611   2.129   1.401   0.374
 3423SOL     OW10612   1.967   1.013   1.726
 3423SOL    HW110613   1.890   0.980   1.780
 3423SOL    HW210614   2.052   0.983   1.768
 3424SOL     OW10615   2.534   0.203   1.489
 3424SOL    HW110616   2.624   0.187   1.449
 3424SOL    HW210617   2.542   0.208   1.588
 3425SOL     OW10618   1.937   0.345   0.033
 3425SOL    HW110619   1.845   0.317   0.004
 3425SOL    HW210620   1.968   0.422  -0.023
 3426SOL     OW10621   3.302   0.856   1.398
 3426SOL    HW110622   3.245   0.908   1.335
 3426SOL    HW210623   3.398   0.868   1.374
 3427SOL     OW10624   2.475   0.842   1.431
 3427SOL    HW110625   2.531   0.923   1.414
 3427SOL    HW210626   2.534   0.762   1.434
 3428SOL     OW10627   3.355   1.767   0.959
 3428SOL    HW110628   3.388   1.831   0.890
 3428SOL    HW210629   3.421   1.761   1.034
 3429SOL     OW10630   2.578   0.565   1.708
 3429SOL    HW110631   2.597   0.630   1.782
 3429SOL    HW210632   2.638   0.485   1.717
 3430SOL     OW10633   3.312   1.220   1.633
 3430SOL    HW110634   3.303   1.210   1.732
 3430SOL    HW210635   3.408   1.213   1.607
 3431SOL     OW10636   2.252   1.741   1.560
 3431SOL    HW110637   2.161   1.782   1.558
 3431SOL    HW210638   2.245   1.647   1.592
 3432SOL     OW10639   3.536   0.883   1.254
 3432SOL    HW110640   3.509   0.794   1.217
 3432SOL    HW210641   3.537   0.951   1.181
 3433SOL     OW10642   2.456   0.745   0.652
 3433SOL    HW110643   2.506   0.830   0.633
 3433SOL    HW210644   2.368   0.747   0.604
 3434SOL     OW10645   3.639   0.342   1.642
 3434SOL    HW110646   3.622   0.373   1.548
 3434SOL    HW210647   3.555   0.305   1.680
 3435SOL     OW10648   3.592   0.934   1.517
 3435SOL    HW110649   3.630   1.025   1.532
 3435SOL    HW210650   3.584   0.917   1.418
 3436SOL     OW10651   2.721   1.374   0.016
 3436SOL    HW110652   2.675   1.389   0.104
 3436SOL    HW210653   2.765   1.459  -0.014
 3437SOL     OW10654   2.523   1.790   0.953
 3437SOL    HW110655   2.477   1.878   0.940
 3437SOL    HW210656   2.622   1.802   0.946
 3438SOL     OW10657   2.721   0.956   0.861
 3438SOL    HW110658   2.775   0.887   0.909
 3438SOL    HW210659   2.689   1.025   0.927
 3439SOL     OW10660   3.723   1.569   0.851
 3439SOL    HW110661   3.652   1.557   0.781
 3439SOL    HW210662   3.724   1.490   0.911
 3440SOL     OW10663   2.083   1.314   1.844
 3440SOL    HW110664   2.018   1.241   1.823
 3440SOL    HW210665   2.087   1.328   1.942
 3441SOL     OW10666   1.941   1.240   0.653
 3441SOL    HW110667   1.940   1.193   0.741
 3441SOL    HW210668   2.023   1.212   0.602
 3442SOL     OW10669   2.534   1.391   1.624
 3442SOL    HW110670   2.456   1.341   1.662
 3442SOL    HW210671   2.531   1.486   1.655
 3443SOL     OW10672   3.686   0.192   1.227
 3443SOL    HW110673   3.682   0.102   1.271
 3443SOL    HW210674   3.689   0.181   1.128
 3444SOL     OW10675   2.290   0.424   0.520
 3444SOL    HW110676   2.320   0.352   0.458
 3444SOL    HW210677   2.251   0.384   0.603
 3445SOL     OW10678   3.567   1.487   1.104
 3445SOL    HW110679   3.474   1.462   1.077
 3445SOL    HW210680   3.593   1.437   1.186
 3446SOL     OW10681   2.179   0.547   1.280
 3446SOL    HW110682   2.217   0.488   1.352
 3446SOL    HW210683   2.219   0.521   1.192
 3447SOL     OW10684   2.674   1.586   0.687
 3447SOL    HW110685   2.706   1.596   0.593
 3447SOL    HW210686   2.595   1.524   0.689
 3448SOL     OW10687   3.286   0.214   1.112
 3448SOL    HW110688   3.338   0.149   1.167
 3448SOL    HW210689   3.237   0.277   1.173
 3449SOL     OW10690   2.863   0.034   1.154
 3449SOL    HW110691   2.800  -0.038   1.123
 3449SOL    HW210692   2.956  -0.002   1.154
 3450SOL     OW10693   2.632   1.330   0.301
 3450SOL    HW110694   2.586   1.243   0.318
 3450SOL    HW210695   2.723   1.327   0.342
 3451SOL     OW10696   2.480   1.567   1.284
 3451SOL    HW110697   2.475   1.649   1.341
 3451SOL    HW210698   2.569   1.564   1.239
 3452SOL     OW10699   3.162   0.453   0.691
 3452SOL    HW110700   3.103   0.533   0.695
 3452SOL    HW210701   3.177   0.418   0.784
 3453SOL     OW10702   3.455   0.221   0.882
 3453SOL    HW110703   3.371   0.220   0.936
 3453SOL    HW210704   3.457   0.304   0.826
 3454SOL     OW10705   1.901   1.077   0.300
 3454SOL    HW110706   2.000   1.066   0.291
 3454SOL    HW210707   1.861   0.991   0.332
 3455SOL     OW10708   2.737   1.646   0.337
 3455SOL    HW110709   2.660   1.611   0.283
 3455SOL    HW210710   2.705   1.717   0.399
 3456SOL     OW10711   2.092   0.628   1.975
 3456SOL    HW110712   1.999   0.626   2.012
 3456SOL    HW210713   2.093   0.589   1.883
 3457SOL     OW10714   2.087   0.275   2.858
 3457SOL    HW110715   2.122   0.258   2.950
 3457SOL    HW210716   1.999   0.230   2.846
 3458SOL     OW10717   1.881   0.368   2.509
 3458SOL    HW110718   1.799   0.411   2.548
 3458SOL    HW210719   1.853   0.295   2.446
 3459SOL     OW10720   2.431   1.275   3.027
 3459SOL    HW110721   2.338   1.268   2.990
 3459SOL    HW210722   2.442   1.364   3.071
 3460SOL     OW10723   3.417   1.511   2.565
 3460SOL    HW110724   3.360   1.495   2.646
 3460SOL    HW210725   3.358   1.521   2.485
 3461SOL     OW10726   2.997   0.703   2.579
 3461SOL    HW110727   3.054   0.781   2.554
 3461SOL    HW210728   2.937   0.729   2.655
 3462SOL     OW10729   3.617   0.607   2.093
 3462SOL    HW110730   3.605   0.594   1.994
 3462SOL    HW210731   3.587   0.526   2.142
 3463SOL     OW10732   2.630   1.144   2.885
 3463SOL    HW110733   2.552   1.161   2.945
 3463SOL    HW210734   2.664   1.231   2.849
 3464SOL     OW10735   2.712   0.798   3.685
 3464SOL    HW110736   2.708   0.874   3.750
 3464SOL    HW210737   2.734   0.834   3.594
 3465SOL     OW10738   2.547   1.012   2.527
 3465SOL    HW110739   2.616   0.996   2.597
 3465SOL    HW210740   2.474   1.069   2.565
 3466SOL     OW10741   2.548   1.161   3.665
 3466SOL    HW110742   2.608   1.240   3.679
 3466SOL    HW210743   2.462   1.192   3.624
 3467SOL     OW10744   2.197   1.435   2.923
 3467SOL    HW110745   2.119   1.404   2.870
 3467SOL    HW210746   2.255   1.493   2.866
 3468SOL     OW10747   3.322   1.505   3.201
 3468SOL    HW110748   3.346   1.599   3.227
 3468SOL    HW210749   3.306   1.451   3.283
 3469SOL     OW10750   2.300   0.392   3.361
 3469SOL    HW110751   2.382   0.336   3.370
 3469SOL    HW210752   2.219   0.334   3.365
 3470SOL     OW10753   3.465   0.447   2.599
 3470SOL    HW110754   3.391   0.493   2.549
 3470SOL    HW210755   3.516   0.515   2.652
 3471SOL     OW10756   2.093   1.713   2.345
 3471SOL    HW110757   2.127   1.790   2.399
 3471SOL    HW210758   2.137   1.713   2.255
 3472SOL     OW10759   2.989   1.341   3.552
 3472SOL    HW110760   3.036   1.341   3.640
 3472SOL    HW210761   2.941   1.254   3.541
 3473SOL     OW10762   2.092   1.434   2.400
 3473SOL    HW110763   2.066   1.530   2.400
 3473SOL    HW210764   2.021   1.380   2.445
 3474SOL     OW10765   2.102   1.091   2.748
 3474SOL    HW110766   2.116   1.007   2.800
 3474SOL    HW210767   2.047   1.155   2.803
 3475SOL     OW10768   2.482   1.786   3.301
 3475SOL    HW110769   2.390   1.769   3.336
 3475SOL    HW210770   2.510   1.878   3.327
 3476SOL     OW10771   2.468   0.964   1.985
 3476SOL    HW110772   2.475   1.048   1.931
 3476SOL    HW210773   2.514   0.977   2.073
 3477SOL     OW10774   3.456   0.114   3.342
 3477SOL    HW110775   3.438   0.181   3.270
 3477SOL    HW210776   3.453   0.160   3.431
 3478SOL     OW10777   1.984   0.643   2.425
 3478SOL    HW110778   1.939   0.555   2.442
 3478SOL    HW210779   1.983   0.697   2.509
 3479SOL     OW10780   3.704   1.767   2.221
 3479SOL    HW110781   3.758   1.738   2.301
 3479SOL    HW210782   3.734   1.857   2.192
 3480SOL     OW10783   1.889   1.596   1.979
 3480SOL    HW110784   1.870   1.500   2.000
 3480SOL    HW210785   1.856   1.654   2.054
 3481SOL     OW10786   3.551   0.922   2.474
 3481SOL    HW110787   3.646   0.893   2.482
 3481SOL    HW210788   3.543   0.987   2.399
 3482SOL     OW10789   3.503   1.108   2.294
 3482SOL    HW110790   3.589   1.110   2.242
 3482SOL    HW210791   3.517   1.155   2.382
 3483SOL     OW10792   1.975   0.737   3.459
 3483SOL    HW110793   2.063   0.724   3.504
 3483SOL    HW210794   1.962   0.834   3.437
 3484SOL     OW10795   2.475   1.365   2.588
 3484SOL    HW110796   2.426   1.278   2.597
 3484SOL    HW210797   2.452   1.408   2.501
 3485SOL     OW10798   3.155   1.228   3.285
 3485SOL    HW110799   3.192   1.155   3.227
 3485SOL    HW210800   3.207   1.233   3.370
 3486SOL     OW10801   2.671   0.004   2.364
 3486SOL    HW110802   2.711   0.095   2.355
 3486SOL    HW210803   2.571   0.012   2.370
 3487SOL     OW10804   2.059   0.976   3.126
 3487SOL    HW110805   2.148   0.931   3.112
 3487SOL    HW210806   1.986   0.911   3.107
 3488SOL     OW10807   3.387   0.999   2.052
 3488SOL    HW110808   3.324   0.923   2.065
 3488SOL    HW210809   3.435   1.017   2.138
 3489SOL     OW10810   3.049   1.792   3.478
 3489SOL    HW110811   3.073   1.852   3.402
 3489SOL    HW210812   3.056   1.697   3.448
 3490SOL     OW10813   2.179   0.251   3.663
 3490SOL    HW110814   2.250   0.322   3.669
 3490SOL    HW210815   2.091   0.290   3.691
 3491SOL     OW10816   3.328   1.417   2.815
 3491SOL    HW110817   3.269   1.423   2.895
 3491SOL    HW210818   3.313   1.329   2.769
 3492SOL     OW10819   3.529   1.714   2.434
 3492SOL    HW110820   3.488   1.691   2.346
 3492SOL    HW210821   3.511   1.640   2.499
 3493SOL     OW10822   2.460   0.729   2.132
 3493SOL    HW110823   2.484   0.798   2.064
 3493SOL    HW210824   2.382   0.762   2.186
 3494SOL     OW10825   3.143   0.345   2.806
 3494SOL    HW110826   3.057   0.295   2.793
 3494SOL    HW210827   3.205   0.291   2.862
 3495SOL     OW10828   3.438   1.662   2.169
 3495SOL    HW110829   3.527   1.708   2.172
 3495SOL    HW210830   3.417   1.638   2.074
 3496SOL     OW10831   2.669   0.605   3.327
 3496SOL    HW110832   2.622   0.602   3.416
 3496SOL    HW210833   2.618   0.550   3.261
 3497SOL     OW10834   3.256   0.469   3.536
 3497SOL    HW110835   3.236   0.512   3.624
 3497SOL    HW210836   3.334   0.407   3.545
 3498SOL     OW10837   2.835   0.890   3.434
 3498SOL    HW110838   2.881   0.806   3.405
 3498SOL    HW210839   2.779   0.924   3.359
 3499SOL     OW10840   2.853   0.410   3.104
 3499SOL    HW110841   2.776   0.444   3.158
 3499SOL    HW210842   2.819   0.359   3.025
 3500SOL     OW10843   2.903   0.701   2.291
 3500SOL    HW110844   2.929   0.697   2.387
 3500SOL    HW210845   2.818   0.650   2.277
 3501SOL     OW10846   1.938   0.811   2.651
 3501SOL    HW110847   2.037   0.799   2.660
 3501SOL    HW210848   1.914   0.906   2.672
 3502SOL     OW10849   1.992   1.821   3.433
 3502SOL    HW110850   1.982   1.806   3.532
 3502SOL    HW210851   1.906   1.857   3.397
 3503SOL     OW10852   2.727   0.348   2.057
 3503SOL    HW110853   2.786   0.411   2.008
 3503SOL    HW210854   2.746   0.254   2.028
 3504SOL     OW10855   3.581   0.585   3.693
 3504SOL    HW110856   3.555   0.674   3.657
 3504SOL    HW210857   3.579   0.517   3.620
 3505SOL     OW10858   3.224   1.144   2.407
 3505SOL    HW110859   3.307   1.115   2.359
 3505SOL    HW210860   3.175   1.211   2.351
 3506SOL     OW10861   2.412   0.196   2.747
 3506SOL    HW110862   2.407   0.191   2.847
 3506SOL    HW210863   2.414   0.292   2.718
 3507SOL     OW10864   2.870   1.456   2.339
 3507SOL    HW110865   2.824   1.528   2.287
 3507SOL    HW210866   2.866   1.476   2.437
 3508SOL     OW10867   2.213   1.801   2.715
 3508SOL    HW110868   2.263   1.715   2.721
 3508SOL    HW210869   2.278   1.878   2.712
 3509SOL     OW10870   3.657   1.066   2.735
 3509SOL    HW110871   3.595   1.051   2.659
 3509SOL    HW210872   3.605   1.077   2.820
 3510SOL     OW10873   3.089   1.550   3.368
 3510SOL    HW110874   3.095   1.473   3.432
 3510SOL    HW210875   3.037   1.524   3.288
 3511SOL     OW10876   2.183   0.943   2.104
 3511SOL    HW110877   2.265   0.982   2.062
 3511SOL    HW210878   2.156   0.861   2.055
 3512SOL     OW10879   3.320   0.735   2.590
 3512SOL    HW110880   3.315   0.670   2.665
 3512SOL    HW210881   3.400   0.794   2.603
 3513SOL     OW10882   2.323   1.266   3.589
 3513SOL    HW110883   2.273   1.267   3.503
 3513SOL    HW210884   2.260   1.248   3.665
 3514SOL     OW10885   2.973   1.776   2.099
 3514SOL    HW110886   2.913   1.714   2.149
 3514SOL    HW210887   3.004   1.732   2.014
 3515SOL     OW10888   2.064   0.285   3.360
 3515SOL    HW110889   1.984   0.345   3.347
 3515SOL    HW210890   2.054   0.236   3.446
 3516SOL     OW10891   3.494   1.377   1.943
 3516SOL    HW110892   3.462   1.471   1.933
 3516SOL    HW210893   3.418   1.314   1.931
 3517SOL     OW10894   2.326   1.743   2.185
 3517SOL    HW110895   2.359   1.782   2.271
 3517SOL    HW210896   2.402   1.736   2.120
 3518SOL     OW10897   3.262   0.107   2.288
 3518SOL    HW110898   3.238   0.070   2.198
 3518SOL    HW210899   3.361   0.123   2.292
 3519SOL     OW10900   2.111   1.785   3.103
 3519SOL    HW110901   2.168   1.720   3.153
 3519SOL    HW210902   2.095   1.752   3.010
 3520SOL     OW10903   2.802   1.698   2.766
 3520SOL    HW110904   2.882   1.641   2.787
 3520SOL    HW210905   2.753   1.658   2.689
 3521SOL     OW10906   2.244   0.700   2.342
 3521SOL    HW110907   2.289   0.610   2.339
 3521SOL    HW210908   2.150   0.689   2.375
 3522SOL     OW10909   3.409   0.222   3.591
 3522SOL    HW110910   3.404   0.259   3.683
 3522SOL    HW210911   3.337   0.153   3.579
 3523SOL     OW10912   2.476   0.122   1.979
 3523SOL    HW110913   2.574   0.100   1.986
 3523SOL    HW210914   2.445   0.105   1.886
 3524SOL     OW10915   2.643   0.264   3.611
 3524SOL    HW110916   2.710   0.203   3.654
 3524SOL    HW210917   2.570   0.283   3.676
 3525SOL     OW10918   2.750   1.514   3.057
 3525SOL    HW110919   2.727   1.489   2.963
 3525SOL    HW210920   2.811   1.445   3.096
 3526SOL     OW10921   3.213   0.590   3.295
 3526SOL    HW110922   3.241   0.547   3.380
 3526SOL    HW210923   3.238   0.686   3.296
 3527SOL     OW10924   2.665   1.402   2.786
 3527SOL    HW110925   2.755   1.416   2.744
 3527SOL    HW210926   2.594   1.404   2.715
 3528SOL     OW10927   2.784   0.503   2.761
 3528SOL    HW110928   2.759   0.494   2.665
 3528SOL    HW210929   2.832   0.421   2.792
 3529SOL     OW10930   2.401   0.064   2.374
 3529SOL    HW110931   2.320   0.065   2.432
 3529SOL    HW210932   2.404   0.147   2.319
 3530SOL     OW10933   3.296   1.188   1.903
 3530SOL    HW110934   3.328   1.112   1.960
 3530SOL    HW210935   3.204   1.215   1.933
 3531SOL     OW10936   2.159   0.035   2.033
 3531SOL    HW110937   2.208   0.119   2.012
 3531SOL    HW210938   2.221  -0.030   2.078
 3532SOL     OW10939   2.797   0.236   2.342
 3532SOL    HW110940   2.749   0.277   2.264
 3532SOL    HW210941   2.896   0.234   2.323
 3533SOL     OW10942   2.938   0.683   3.326
 3533SOL    HW110943   2.858   0.622   3.329
 3533SOL    HW210944   3.019   0.630   3.302
 3534SOL     OW10945   3.089   1.570   2.655
 3534SOL    HW110946   3.110   1.644   2.590
 3534SOL    HW210947   3.157   1.570   2.728
 3535SOL     OW10948   2.321   1.152   2.603
 3535SOL    HW110949   2.250   1.125   2.668
 3535SOL    HW210950   2.295   1.124   2.510
 3536SOL     OW10951   3.133   1.797   2.453
 3536SOL    HW110952   3.177   1.861   2.389
 3536SOL    HW210953   3.083   1.849   2.523
 3537SOL     OW10954   2.894   0.549   1.878
 3537SOL    HW110955   2.853   0.631   1.839
 3537SOL    HW210956   2.958   0.575   1.951
 3538SOL     OW10957   1.940   0.556   3.248
 3538SOL    HW110958   2.032   0.555   3.207
 3538SOL    HW210959   1.934   0.630   3.315
 3539SOL     OW10960   2.423   0.222   3.009
 3539SOL    HW110961   2.461   0.138   3.046
 3539SOL    HW210962   2.335   0.241   3.053
 3540SOL     OW10963   2.728   0.454   2.504
 3540SOL    HW110964   2.696   0.526   2.442
 3540SOL    HW210965   2.752   0.373   2.451
 3541SOL     OW10966   2.879   0.039   2.615
 3541SOL    HW110967   2.807   0.044   2.546
 3541SOL    HW210968   2.855  -0.030   2.684
 3542SOL     OW10969   3.291   1.173   2.729
 3542SOL    HW110970   3.236   1.089   2.722
 3542SOL    HW210971   3.317   1.202   2.637
 3543SOL     OW10972   3.328   0.590   2.854
 3543SOL    HW110973   3.298   0.495   2.861
 3543SOL    HW210974   3.401   0.606   2.920
 3544SOL     OW10975   3.719   0.833   2.239
 3544SOL    HW110976   3.761   0.769   2.303
 3544SOL    HW210977   3.681   0.782   2.161
 3545SOL     OW10978   2.350   1.385   2.036
 3545SOL    HW110979   2.263   1.370   2.083
 3545SOL    HW210980   2.333   1.411   1.941
 3546SOL     OW10981   3.526   1.280   2.519
 3546SOL    HW110982   3.625   1.288   2.533
 3546SOL    HW210983   3.481   1.364   2.550
 3547SOL     OW10984   3.252   0.575   1.940
 3547SOL    HW110985   3.198   0.554   2.021
 3547SOL    HW210986   3.343   0.534   1.949
 3548SOL     OW10987   2.389   0.256   2.190
 3548SOL    HW110988   2.416   0.197   2.115
 3548SOL    HW210989   2.389   0.351   2.159
 3549SOL     OW10990   3.616   1.223   3.450
 3549SOL    HW110991   3.707   1.184   3.437
 3549SOL    HW210992   3.624   1.319   3.474
 3550SOL     OW10993   2.926   1.347   3.202
 3550SOL    HW110994   2.846   1.324   3.257
 3550SOL    HW210995   3.009   1.321   3.251
 3551SOL     OW10996   3.454   1.629   3.487
 3551SOL    HW110997   3.481   1.663   3.397
 3551SOL    HW210998   3.533   1.591   3.533
 3552SOL     OW10999   2.973   1.195   2.962
 3552SOL    HW111000   2.933   1.239   3.043
 3552SOL    HW211001   2.932   1.232   2.879
 3553SOL     OW11002   3.500   1.099   2.941
 3553SOL    HW111003   3.505   1.180   3.000
 3553SOL    HW211004   3.414   1.101   2.890
 3554SOL     OW11005   2.777   0.089   3.264
 3554SOL    HW111006   2.802   0.069   3.169
 3554SOL    HW211007   2.849   0.145   3.306
 3555SOL     OW11008   2.842   1.116   3.581
 3555SOL    HW111009   2.743   1.122   3.591
 3555SOL    HW211010   2.865   1.036   3.525
 3556SOL     OW11011   2.567   1.050   2.230
 3556SOL    HW111012   2.553   1.057   2.329
 3556SOL    HW211013   2.651   0.999   2.212
 3557SOL     OW11014   2.272   0.813   3.113
 3557SOL    HW111015   2.358   0.825   3.163
 3557SOL    HW211016   2.230   0.726   3.140
 3558SOL     OW11017   3.136   0.386   3.124
 3558SOL    HW111018   3.157   0.460   3.188
 3558SOL    HW211019   3.047   0.403   3.081
 3559SOL     OW11020   1.926   1.564   3.193
 3559SOL    HW111021   1.880   1.646   3.159
 3559SOL    HW211022   2.024   1.583   3.202
 3560SOL     OW11023   2.229   1.100   2.363
 3560SOL    HW111024   2.222   1.183   2.307
 3560SOL    HW211025   2.233   1.020   2.303
 3561SOL     OW11026   2.428   0.537   2.727
 3561SOL    HW111027   2.440   0.603   2.653
 3561SOL    HW211028   2.474   0.571   2.810
 3562SOL     OW11029   3.114   1.348   2.250
 3562SOL    HW111030   3.164   1.425   2.290
 3562SOL    HW211031   3.019   1.350   2.282
 3563SOL     OW11032   3.134   1.445   3.004
 3563SOL    HW111033   3.181   1.458   3.091
 3563SOL    HW211034   3.068   1.371   3.013
 3564SOL     OW11035   3.444   0.639   2.334
 3564SOL    HW111036   3.413   0.700   2.407
 3564SOL    HW211037   3.494   0.691   2.265
 3565SOL     OW11038   2.216   1.510   3.191
 3565SOL    HW111039   2.195   1.466   3.104
 3565SOL    HW211040   2.313   1.536   3.194
 3566SOL     OW11041   2.264   0.751   3.460
 3566SOL    HW111042   2.332   0.806   3.413
 3566SOL    HW211043   2.304   0.663   3.487
 3567SOL     OW11044   3.449   0.779   3.532
 3567SOL    HW111045   3.357   0.817   3.527
 3567SOL    HW211046   3.509   0.826   3.467
 3568SOL     OW11047   2.875   0.105   3.632
 3568SOL    HW111048   2.881   0.190   3.580
 3568SOL    HW211049   2.907   0.029   3.575
 3569SOL     OW11050   2.366   0.050   3.602
 3569SOL    HW111051   2.324  -0.007   3.532
 3569SOL    HW211052   2.300   0.119   3.634
 3570SOL     OW11053   2.435   0.870   2.891
 3570SOL    HW111054   2.479   0.959   2.882
 3570SOL    HW211055   2.372   0.870   2.968
 3571SOL     OW11056   3.222   0.862   2.907
 3571SOL    HW111057   3.147   0.862   2.841
 3571SOL    HW211058   3.259   0.770   2.916
 3572SOL     OW11059   3.071   0.525   2.137
 3572SOL    HW111060   3.084   0.441   2.191
 3572SOL    HW211061   3.042   0.599   2.197
 3573SOL     OW11062   2.169   0.213   3.093
 3573SOL    HW111063   2.146   0.250   3.183
 3573SOL    HW211064   2.139   0.118   3.087
 3574SOL     OW11065   1.899   1.310   3.144
 3574SOL    HW111066   1.952   1.261   3.212
 3574SOL    HW211067   1.921   1.408   3.149
 3575SOL     OW11068   2.594   0.634   2.926
 3575SOL    HW111069   2.653   0.608   2.850
 3575SOL    HW211070   2.566   0.730   2.915
 3576SOL     OW11071   3.590   0.935   3.716
 3576SOL    HW111072   3.544   0.928   3.627
 3576SOL    HW211073   3.528   0.979   3.782
 3577SOL     OW11074   2.169   0.063   2.480
 3577SOL    HW111075   2.158   0.157   2.513
 3577SOL    HW211076   2.164   0.000   2.557
 3578SOL     OW11077   3.484   0.367   2.236
 3578SOL    HW111078   3.486   0.291   2.300
 3578SOL    HW211079   3.436   0.444   2.276
 3579SOL     OW11080   2.885   0.766   2.828
 3579SOL    HW111081   2.900   0.787   2.924
 3579SOL    HW211082   2.855   0.671   2.819
 3580SOL     OW11083   2.842   1.573   3.562
 3580SOL    HW111084   2.822   1.617   3.474
 3580SOL    HW211085   2.881   1.482   3.546
 3581SOL     OW11086   3.721   1.518   3.467
 3581SOL    HW111087   3.735   1.545   3.372
 3581SOL    HW211088   3.804   1.540   3.520
 3582SOL     OW11089   2.212   0.898   3.666
 3582SOL    HW111090   2.288   0.942   3.714
 3582SOL    HW211091   2.247   0.851   3.584
 3583SOL     OW11092   3.402   0.274   1.987
 3583SOL    HW111093   3.341   0.199   2.010
 3583SOL    HW211094   3.424   0.326   2.070
 3584SOL     OW11095   3.165   0.838   1.904
 3584SOL    HW111096   3.199   0.745   1.919
 3584SOL    HW211097   3.183   0.865   1.809
 3585SOL     OW11098   2.930   1.333   2.711
 3585SOL    HW111099   2.937   1.249   2.656
 3585SOL    HW211100   2.992   1.402   2.675
 3586SOL     OW11101   2.181   0.810   2.811
 3586SOL    HW111102   2.274   0.846   2.816
 3586SOL    HW211103   2.175   0.725   2.863
 3587SOL     OW11104   2.201   0.509   2.868
 3587SOL    HW111105   2.149   0.426   2.851
 3587SOL    HW211106   2.278   0.514   2.804
 3588SOL     OW11107   3.000   0.380   3.540
 3588SOL    HW111108   2.955   0.443   3.604
 3588SOL    HW211109   3.093   0.411   3.523
 3589SOL     OW11110   3.022   0.207   3.339
 3589SOL    HW111111   3.022   0.271   3.416
 3589SOL    HW211112   3.050   0.255   3.256
 3590SOL     OW11113   1.870   1.326   2.062
 3590SOL    HW111114   1.777   1.347   2.031
 3590SOL    HW211115   1.880   1.227   2.075
 3591SOL     OW11116   1.950   1.801   2.789
 3591SOL    HW111117   1.908   1.715   2.762
 3591SOL    HW211118   2.044   1.804   2.755
 3592SOL     OW11119   2.366   1.568   2.772
 3592SOL    HW111120   2.432   1.642   2.781
 3592SOL    HW211121   2.410   1.489   2.730
 3593SOL     OW11122   2.864   0.796   3.100
 3593SOL    HW111123   2.905   0.764   3.186
 3593SOL    HW211124   2.768   0.769   3.097
 3594SOL     OW11125   1.902   0.544   2.976
 3594SOL    HW111126   1.987   0.511   2.935
 3594SOL    HW211127   1.915   0.559   3.074
 3595SOL     OW11128   2.051   0.520   3.584
 3595SOL    HW111129   2.110   0.480   3.514
 3595SOL    HW211130   1.993   0.591   3.543
 3596SOL     OW11131   3.231   0.950   3.522
 3596SOL    HW111132   3.270   1.039   3.542
 3596SOL    HW211133   3.241   0.930   3.425
 3597SOL     OW11134   2.677   0.572   2.187
 3597SOL    HW111135   2.684   0.483   2.141
 3597SOL    HW211136   2.583   0.606   2.179
 3598SOL     OW11137   3.519   0.604   3.068
 3598SOL    HW111138   3.481   0.535   3.130
 3598SOL    HW211139   3.601   0.568   3.024
 3599SOL     OW11140   2.114   1.564   3.606
 3599SOL    HW111141   2.084   1.621   3.682
 3599SOL    HW211142   2.107   1.467   3.632
 3600SOL     OW11143   2.533   0.464   3.131
 3600SOL    HW111144   2.499   0.375   3.101
 3600SOL    HW211145   2.559   0.518   3.051
 3601SOL     OW11146   2.792   1.678   3.327
 3601SOL    HW111147   2.768   1.660   3.232
 3601SOL    HW211148   2.822   1.772   3.337
 3602SOL     OW11149   2.335   0.500   2.053
 3602SOL    HW111150   2.396   0.580   2.057
 3602SOL    HW211151   2.240   0.531   2.060
 3603SOL     OW11152   2.021   1.137   3.328
 3603SOL    HW111153   2.043   1.076   3.404
 3603SOL    HW211154   2.031   1.088   3.242
 3604SOL     OW11155   3.209   1.059   3.096
 3604SOL    HW111156   3.233   0.996   3.022
 3604SOL    HW211157   3.119   1.099   3.078
 3605SOL     OW11158   3.164   0.855   2.171
 3605SOL    HW111159   3.078   0.824   2.213
 3605SOL    HW211160   3.160   0.841   2.072
 3606SOL     OW11161   3.621   1.747   3.016
 3606SOL    HW111162   3.682   1.777   2.943
 3606SOL    HW211163   3.583   1.658   2.994
 3607SOL     OW11164   3.114   1.731   2.990
 3607SOL    HW111165   3.198   1.736   2.936
 3607SOL    HW211166   3.091   1.635   3.008
 3608SOL     OW11167   1.945   1.258   2.884
 3608SOL    HW111168   1.940   1.257   2.984
 3608SOL    HW211169   1.862   1.217   2.846
 3609SOL     OW11170   2.550   1.662   3.578
 3609SOL    HW111171   2.494   1.743   3.587
 3609SOL    HW211172   2.602   1.666   3.492
 3610SOL     OW11173   3.588   0.135   2.385
 3610SOL    HW111174   3.661   0.118   2.318
 3610SOL    HW211175   3.557   0.048   2.423
 3611SOL     OW11176   3.250   1.573   2.339
 3611SOL    HW111177   3.317   1.585   2.265
 3611SOL    HW211178   3.210   1.662   2.362
 3612SOL     OW11179   3.142   0.927   2.534
 3612SOL    HW111180   3.202   0.846   2.536
 3612SOL    HW211181   3.182   0.996   2.474
 3613SOL     OW11182   2.692   1.273   3.284
 3613SOL    HW111183   2.687   1.306   3.379
 3613SOL    HW211184   2.606   1.292   3.238
 3614SOL     OW11185   2.534   1.616   2.016
 3614SOL    HW111186   2.543   1.626   1.917
 3614SOL    HW211187   2.494   1.527   2.037
 3615SOL     OW11188   3.512   1.720   3.256
 3615SOL    HW111189   3.565   1.730   3.172
 3615SOL    HW211190   3.485   1.810   3.290
 3616SOL     OW11191   3.703   0.175   2.825
 3616SOL    HW111192   3.742   0.090   2.789
 3616SOL    HW211193   3.605   0.177   2.806
 3617SOL     OW11194   2.125   0.326   2.582
 3617SOL    HW111195   2.046   0.377   2.548
 3617SOL    HW211196   2.116   0.311   2.680
 3618SOL     OW11197   3.056   1.612   1.893
 3618SOL    HW111198   3.062   1.519   1.930
 3618SOL    HW211199   2.997   1.612   1.813
 3619SOL     OW11200   2.684   1.002   3.234
 3619SOL    HW111201   2.724   1.001   3.142
 3619SOL    HW211202   2.694   1.094   3.274
 3620SOL     OW11203   2.778   0.910   2.153
 3620SOL    HW111204   2.841   0.948   2.085
 3620SOL    HW211205   2.818   0.827   2.192
 3621SOL     OW11206   3.366   1.607   1.906
 3621SOL    HW111207   3.274   1.644   1.913
 3621SOL    HW211208   3.404   1.627   1.816
 3622SOL     OW11209   2.234   1.288   3.352
 3622SOL    HW111210   2.221   1.381   3.318
 3622SOL    HW211211   2.150   1.236   3.339
 3623SOL     OW11212   3.476   1.292   3.151
 3623SOL    HW111213   3.536   1.295   3.231
 3623SOL    HW211214   3.401   1.356   3.164
 3624SOL     OW11215   2.901   1.098   2.558
 3624SOL    HW111216   2.831   1.051   2.612
 3624SOL    HW211217   2.960   1.030   2.515
 3625SOL     OW11218   2.876   0.236   2.833
 3625SOL    HW111219   2.868   0.200   2.740
 3625SOL    HW211220   2.874   0.160   2.898
 3626SOL     OW11221   2.452   1.487   2.353
 3626SOL    HW111222   2.494   1.429   2.283
 3626SOL    HW211223   2.408   1.566   2.309
 3627SOL     OW11224   3.571   0.385   3.243
 3627SOL    HW111225   3.644   0.454   3.247
 3627SOL    HW211226   3.599   0.310   3.184
 3628SOL     OW11227   2.117   1.348   2.152
 3628SOL    HW111228   2.021   1.349   2.125
 3628SOL    HW211229   2.129   1.401   2.236
 3629SOL     OW11230   1.967   1.013   3.588
 3629SOL    HW111231   1.890   0.980   3.642
 3629SOL    HW211232   2.052   0.983   3.630
 3630SOL     OW11233   2.534   0.203   3.351
 3630SOL    HW111234   2.624   0.187   3.311
 3630SOL    HW211235   2.542   0.208   3.450
 3631SOL     OW11236   1.937   0.345   1.895
 3631SOL    HW111237   1.845   0.317   1.866
 3631SOL    HW211238   1.968   0.422   1.839
 3632SOL     OW11239   3.302   0.856   3.260
 3632SOL    HW111240   3.245   0.908   3.197
 3632SOL    HW211241   3.398   0.868   3.236
 3633SOL     OW11242   1.934   0.166   2.180
 3633SOL    HW111243   1.917   0.249   2.126
 3633SOL    HW211244   2.024   0.129   2.158
 3634SOL     OW11245   3.045   1.335   1.981
 3634SOL    HW111246   2.946   1.324   1.983
 3634SOL    HW211247   3.079   1.350   2.074
 3635SOL     OW11248   2.475   0.842   3.293
 3635SOL    HW111249   2.531   0.923   3.276
 3635SOL    HW211250   2.534   0.762   3.296
 3636SOL     OW11251   3.355   1.767   2.821
 3636SOL    HW111252   3.388   1.831   2.752
 3636SOL    HW211253   3.421   1.761   2.896
 3637SOL     OW11254   2.578   0.565   3.570
 3637SOL    HW111255   2.597   0.630   3.644
 3637SOL    HW211256   2.638   0.485   3.579
 3638SOL     OW11257   3.312   1.220   3.495
 3638SOL    HW111258   3.303   1.210   3.594
 3638SOL    HW211259   3.408   1.213   3.469
 3639SOL     OW11260   2.252   1.741   3.422
 3639SOL    HW111261   2.161   1.782   3.420
 3639SOL    HW211262   2.245   1.647   3.454
 3640SOL     OW11263   3.536   0.883   3.116
 3640SOL    HW111264   3.509   0.794   3.079
 3640SOL    HW211265   3.537   0.951   3.043
 3641SOL     OW11266   3.087   0.325   2.311
 3641SOL    HW111267   3.152   0.251   2.300
 3641SOL    HW211268   3.107   0.375   2.395
 3642SOL     OW11269   2.456   0.745   2.514
 3642SOL    HW111270   2.506   0.830   2.495
 3642SOL    HW211271   2.368   0.747   2.466
 3643SOL     OW11272   3.639   0.342   3.504
 3643SOL    HW111273   3.622   0.373   3.410
 3643SOL    HW211274   3.555   0.305   3.542
 3644SOL     OW11275   3.592   0.934   3.379
 3644SOL    HW111276   3.630   1.025   3.394
 3644SOL    HW211277   3.584   0.917   3.280
 3645SOL     OW11278   2.721   1.374   1.878
 3645SOL    HW111279   2.675   1.389   1.966
 3645SOL    HW211280   2.765   1.459   1.848
 3646SOL     OW11281   2.523   1.790   2.815
 3646SOL    HW111282   2.477   1.878   2.802
 3646SOL    HW211283   2.622   1.802   2.808
 3647SOL     OW11284   2.721   0.956   2.723
 3647SOL    HW111285   2.775   0.887   2.771
 3647SOL    HW211286   2.689   1.025   2.789
 3648SOL     OW11287   2.945   0.984   1.949
 3648SOL    HW111288   2.922   1.037   1.867
 3648SOL    HW211289   3.026   0.928   1.930
 3649SOL     OW11290   3.723   1.569   2.713
 3649SOL    HW111291   3.652   1.557   2.643
 3649SOL    HW211292   3.724   1.490   2.773
 3650SOL     OW11293   2.083   1.314   3.706
 3650SOL    HW111294   2.018   1.241   3.685
 3650SOL    HW211295   2.087   1.328   3.804
 3651SOL     OW11296   1.941   1.240   2.515
 3651SOL    HW111297   1.940   1.193   2.603
 3651SOL    HW211298   2.023   1.212   2.464
 3652SOL     OW11299   2.534   1.391   3.486
 3652SOL    HW111300   2.456   1.341   3.524
 3652SOL    HW211301   2.531   1.486   3.517
 3653SOL     OW11302   3.686   0.192   3.089
 3653SOL    HW111303   3.682   0.102   3.133
 3653SOL    HW211304   3.689   0.181   2.990
 3654SOL     OW11305   2.290   0.424   2.382
 3654SOL    HW111306   2.320   0.352   2.320
 3654SOL    HW211307   2.251   0.384   2.465
 3655SOL     OW11308   3.567   1.487   2.966
 3655SOL    HW111309   3.474   1.462   2.939
 3655SOL    HW211310   3.593   1.437   3.048
 3656SOL     OW11311   2.179   0.547   3.142
 3656SOL    HW111312   2.217   0.488   3.214
 3656SOL    HW211313   2.219   0.521   3.054
 3657SOL     OW11314   2.674   1.586   2.549
 3657SOL    HW111315   2.706   1.596   2.455
 3657SOL    HW211316   2.595   1.524   2.551
 3658SOL     OW11317   3.286   0.214   2.974
 3658SOL    HW111318   3.338   0.149   3.029
 3658SOL    HW211319   3.237   0.277   3.035
 3659SOL     OW11320   2.863   0.034   3.016
 3659SOL    HW111321   2.800  -0.038   2.985
 3659SOL    HW211322   2.956  -0.002   3.016
 3660SOL     OW11323   2.632   1.330   2.163
 3660SOL    HW111324   2.586   1.243   2.180
 3660SOL    HW211325   2.723   1.327   2.204
 3661SOL     OW11326   2.480   1.567   3.146
 3661SOL    HW111327   2.475   1.649   3.203
 3661SOL    HW211328   2.569   1.564   3.101
 3662SOL     OW11329   3.214   0.052   2.030
 3662SOL    HW111330   3.249   0.011   1.946
 3662SOL    HW211331   3.124   0.014   2.050
 3663SOL     OW11332   3.162   0.453   2.553
 3663SOL    HW111333   3.103   0.533   2.557
 3663SOL    HW211334   3.177   0.418   2.646
 3664SOL     OW11335   3.455   0.221   2.744
 3664SOL    HW111336   3.371   0.220   2.798
 3664SOL    HW211337   3.457   0.304   2.688
 3665SOL     OW11338   1.901   1.077   2.162
 3665SOL    HW111339   2.000   1.066   2.153
 3665SOL    HW211340   1.861   0.991   2.194
 3666SOL     OW11341   2.737   1.646   2.199
 3666SOL    HW111342   2.660   1.611   2.145
 3666SOL    HW211343   2.705   1.717   2.261
 3667SOL     OW11344   2.092   0.628   3.837
 3667SOL    HW111345   1.999   0.626   3.874
 3667SOL    HW211346   2.093   0.589   3.745
 3668SOL     OW11347   2.087   0.275   4.720
 3668SOL    HW111348   2.122   0.258   4.812
 3668SOL    HW211349   1.999   0.230   4.708
 3669SOL     OW11350   1.881   0.368   4.371
 3669SOL    HW111351   1.799   0.411   4.410
 3669SOL    HW211352   1.853   0.295   4.308
 3670SOL     OW11353   2.431   1.275   4.889
 3670SOL    HW111354   2.338   1.268   4.852
 3670SOL    HW211355   2.442   1.364   4.933
 3671SOL     OW11356   3.417   1.511   4.427
 3671SOL    HW111357   3.360   1.495   4.508
 3671SOL    HW211358   3.358   1.521   4.347
 3672SOL     OW11359   2.997   0.703   4.441
 3672SOL    HW111360   3.054   0.781   4.416
 3672SOL    HW211361   2.937   0.729   4.517
 3673SOL     OW11362   3.617   0.607   3.955
 3673SOL    HW111363   3.605   0.594   3.856
 3673SOL    HW211364   3.587   0.526   4.004
 3674SOL     OW11365   2.630   1.144   4.747
 3674SOL    HW111366   2.552   1.161   4.807
 3674SOL    HW211367   2.664   1.231   4.711
 3675SOL     OW11368   2.712   0.798   5.547
 3675SOL    HW111369   2.708   0.874   5.612
 3675SOL    HW211370   2.734   0.834   5.456
 3676SOL     OW11371   2.547   1.012   4.389
 3676SOL    HW111372   2.616   0.996   4.459
 3676SOL    HW211373   2.474   1.069   4.427
 3677SOL     OW11374   2.548   1.161   5.527
 3677SOL    HW111375   2.608   1.240   5.541
 3677SOL    HW211376   2.462   1.192   5.486
 3678SOL     OW11377   2.197   1.435   4.785
 3678SOL    HW111378   2.119   1.404   4.732
 3678SOL    HW211379   2.255   1.493   4.728
 3679SOL     OW11380   3.322   1.505   5.063
 3679SOL    HW111381   3.346   1.599   5.089
 3679SOL    HW211382   3.306   1.451   5.145
 3680SOL     OW11383   2.300   0.392   5.223
 3680SOL    HW111384   2.382   0.336   5.232
 3680SOL    HW211385   2.219   0.334   5.227
 3681SOL     OW11386   3.465   0.447   4.461
 3681SOL    HW111387   3.391   0.493   4.411
 3681SOL    HW211388   3.516   0.515   4.514
 3682SOL     OW11389   2.093   1.713   4.207
 3682SOL    HW111390   2.127   1.790   4.261
 3682SOL    HW211391   2.137   1.713   4.117
 3683SOL     OW11392   2.989   1.341   5.414
 3683SOL    HW111393   3.036   1.341   5.502
 3683SOL    HW211394   2.941   1.254   5.403
 3684SOL     OW11395   2.092   1.434   4.262
 3684SOL    HW111396   2.066   1.530   4.262
 3684SOL    HW211397   2.021   1.380   4.307
 3685SOL     OW11398   2.102   1.091   4.610
 3685SOL    HW111399   2.116   1.007   4.662
 3685SOL    HW211400   2.047   1.155   4.665
 3686SOL     OW11401   2.482   1.786   5.163
 3686SOL    HW111402   2.390   1.769   5.198
 3686SOL    HW211403   2.510   1.878   5.189
 3687SOL     OW11404   2.468   0.964   3.847
 3687SOL    HW111405   2.475   1.048   3.793
 3687SOL    HW211406   2.514   0.977   3.935
 3688SOL     OW11407   3.456   0.114   5.204
 3688SOL    HW111408   3.438   0.181   5.132
 3688SOL    HW211409   3.453   0.160   5.293
 3689SOL     OW11410   1.984   0.643   4.287
 3689SOL    HW111411   1.939   0.555   4.304
 3689SOL    HW211412   1.983   0.697   4.371
 3690SOL     OW11413   3.704   1.767   4.083
 3690SOL    HW111414   3.758   1.738   4.163
 3690SOL    HW211415   3.734   1.857   4.054
 3691SOL     OW11416   1.889   1.596   3.841
 3691SOL    HW111417   1.870   1.500   3.862
 3691SOL    HW211418   1.856   1.654   3.916
 3692SOL     OW11419   3.551   0.922   4.336
 3692SOL    HW111420   3.646   0.893   4.344
 3692SOL    HW211421   3.543   0.987   4.261
 3693SOL     OW11422   3.503   1.108   4.156
 3693SOL    HW111423   3.589   1.110   4.104
 3693SOL    HW211424   3.517   1.155   4.244
 3694SOL     OW11425   1.975   0.737   5.321
 3694SOL    HW111426   2.063   0.724   5.366
 3694SOL    HW211427   1.962   0.834   5.299
 3695SOL     OW11428   2.475   1.365   4.450
 3695SOL    HW111429   2.426   1.278   4.459
 3695SOL    HW211430   2.452   1.408   4.363
 3696SOL     OW11431   3.155   1.228   5.147
 3696SOL    HW111432   3.192   1.155   5.089
 3696SOL    HW211433   3.207   1.233   5.232
 3697SOL     OW11434   2.671   0.004   4.226
 3697SOL    HW111435   2.711   0.095   4.217
 3697SOL    HW211436   2.571   0.012   4.232
 3698SOL     OW11437   2.059   0.976   4.988
 3698SOL    HW111438   2.148   0.931   4.974
 3698SOL    HW211439   1.986   0.911   4.969
 3699SOL     OW11440   3.387   0.999   3.914
 3699SOL    HW111441   3.324   0.923   3.927
 3699SOL    HW211442   3.435   1.017   4.000
 3700SOL     OW11443   3.049   1.792   5.340
 3700SOL    HW111444   3.073   1.852   5.264
 3700SOL    HW211445   3.056   1.697   5.310
 3701SOL     OW11446   2.179   0.251   5.525
 3701SOL    HW111447   2.250   0.322   5.531
 3701SOL    HW211448   2.091   0.290   5.553
 3702SOL     OW11449   3.328   1.417   4.677
 3702SOL    HW111450   3.269   1.423   4.757
 3702SOL    HW211451   3.313   1.329   4.631
 3703SOL     OW11452   3.529   1.714   4.296
 3703SOL    HW111453   3.488   1.691   4.208
 3703SOL    HW211454   3.511   1.640   4.361
 3704SOL     OW11455   2.460   0.729   3.994
 3704SOL    HW111456   2.484   0.798   3.926
 3704SOL    HW211457   2.382   0.762   4.048
 3705SOL     OW11458   3.143   0.345   4.668
 3705SOL    HW111459   3.057   0.295   4.655
 3705SOL    HW211460   3.205   0.291   4.724
 3706SOL     OW11461   3.438   1.662   4.031
 3706SOL    HW111462   3.527   1.708   4.034
 3706SOL    HW211463   3.417   1.638   3.936
 3707SOL     OW11464   2.669   0.605   5.189
 3707SOL    HW111465   2.622   0.602   5.278
 3707SOL    HW211466   2.618   0.550   5.123
 3708SOL     OW11467   3.256   0.469   5.398
 3708SOL    HW111468   3.236   0.512   5.486
 3708SOL    HW211469   3.334   0.407   5.407
 3709SOL     OW11470   2.835   0.890   5.296
 3709SOL    HW111471   2.881   0.806   5.267
 3709SOL    HW211472   2.779   0.924   5.221
 3710SOL     OW11473   2.853   0.410   4.966
 3710SOL    HW111474   2.776   0.444   5.020
 3710SOL    HW211475   2.819   0.359   4.887
 3711SOL     OW11476   2.903   0.701   4.153
 3711SOL    HW111477   2.929   0.697   4.249
 3711SOL    HW211478   2.818   0.650   4.139
 3712SOL     OW11479   1.938   0.811   4.513
 3712SOL    HW111480   2.037   0.799   4.522
 3712SOL    HW211481   1.914   0.906   4.534
 3713SOL     OW11482   1.992   1.821   5.295
 3713SOL    HW111483   1.982   1.806   5.394
 3713SOL    HW211484   1.906   1.857   5.259
 3714SOL     OW11485   2.727   0.348   3.919
 3714SOL    HW111486   2.786   0.411   3.870
 3714SOL    HW211487   2.746   0.254   3.890
 3715SOL     OW11488   3.581   0.585   5.555
 3715SOL    HW111489   3.555   0.674   5.519
 3715SOL    HW211490   3.579   0.517   5.482
 3716SOL     OW11491   3.224   1.144   4.269
 3716SOL    HW111492   3.307   1.115   4.221
 3716SOL    HW211493   3.175   1.211   4.213
 3717SOL     OW11494   2.412   0.196   4.609
 3717SOL    HW111495   2.407   0.191   4.709
 3717SOL    HW211496   2.414   0.292   4.580
 3718SOL     OW11497   2.870   1.456   4.201
 3718SOL    HW111498   2.824   1.528   4.149
 3718SOL    HW211499   2.866   1.476   4.299
 3719SOL     OW11500   2.213   1.801   4.577
 3719SOL    HW111501   2.263   1.715   4.583
 3719SOL    HW211502   2.278   1.878   4.574
 3720SOL     OW11503   3.657   1.066   4.597
 3720SOL    HW111504   3.595   1.051   4.521
 3720SOL    HW211505   3.605   1.077   4.682
 3721SOL     OW11506   3.089   1.550   5.230
 3721SOL    HW111507   3.095   1.473   5.294
 3721SOL    HW211508   3.037   1.524   5.150
 3722SOL     OW11509   2.183   0.943   3.966
 3722SOL    HW111510   2.265   0.982   3.924
 3722SOL    HW211511   2.156   0.861   3.917
 3723SOL     OW11512   3.320   0.735   4.452
 3723SOL    HW111513   3.315   0.670   4.527
 3723SOL    HW211514   3.400   0.794   4.465
 3724SOL     OW11515   2.323   1.266   5.451
 3724SOL    HW111516   2.273   1.267   5.365
 3724SOL    HW211517   2.260   1.248   5.527
 3725SOL     OW11518   2.973   1.776   3.961
 3725SOL    HW111519   2.913   1.714   4.011
 3725SOL    HW211520   3.004   1.732   3.876
 3726SOL     OW11521   2.064   0.285   5.222
 3726SOL    HW111522   1.984   0.345   5.209
 3726SOL    HW211523   2.054   0.236   5.308
 3727SOL     OW11524   3.494   1.377   3.805
 3727SOL    HW111525   3.462   1.471   3.795
 3727SOL    HW211526   3.418   1.314   3.793
 3728SOL     OW11527   2.326   1.743   4.047
 3728SOL    HW111528   2.359   1.782   4.133
 3728SOL    HW211529   2.402   1.736   3.982
 3729SOL     OW11530   3.262   0.107   4.150
 3729SOL    HW111531   3.238   0.070   4.060
 3729SOL    HW211532   3.361   0.123   4.154
 3730SOL     OW11533   2.111   1.785   4.965
 3730SOL    HW111534   2.168   1.720   5.015
 3730SOL    HW211535   2.095   1.752   4.872
 3731SOL     OW11536   2.802   1.698   4.628
 3731SOL    HW111537   2.882   1.641   4.649
 3731SOL    HW211538   2.753   1.658   4.551
 3732SOL     OW11539   2.244   0.700   4.204
 3732SOL    HW111540   2.289   0.610   4.201
 3732SOL    HW211541   2.150   0.689   4.237
 3733SOL     OW11542   3.409   0.222   5.453
 3733SOL    HW111543   3.404   0.259   5.545
 3733SOL    HW211544   3.337   0.153   5.441
 3734SOL     OW11545   2.476   0.122   3.841
 3734SOL    HW111546   2.574   0.100   3.848
 3734SOL    HW211547   2.445   0.105   3.748
 3735SOL     OW11548   2.643   0.264   5.473
 3735SOL    HW111549   2.710   0.203   5.516
 3735SOL    HW211550   2.570   0.283   5.538
 3736SOL     OW11551   2.750   1.514   4.919
 3736SOL    HW111552   2.727   1.489   4.825
 3736SOL    HW211553   2.811   1.445   4.958
 3737SOL     OW11554   3.213   0.590   5.157
 3737SOL    HW111555   3.241   0.547   5.242
 3737SOL    HW211556   3.238   0.686   5.158
 3738SOL     OW11557   2.665   1.402   4.648
 3738SOL    HW111558   2.755   1.416   4.606
 3738SOL    HW211559   2.594   1.404   4.577
 3739SOL     OW11560   2.784   0.503   4.623
 3739SOL    HW111561   2.759   0.494   4.527
 3739SOL    HW211562   2.832   0.421   4.654
 3740SOL     OW11563   2.401   0.064   4.236
 3740SOL    HW111564   2.320   0.065   4.294
 3740SOL    HW211565   2.404   0.147   4.181
 3741SOL     OW11566   3.296   1.188   3.765
 3741SOL    HW111567   3.328   1.112   3.822
 3741SOL    HW211568   3.204   1.215   3.795
 3742SOL     OW11569   2.159   0.035   3.895
 3742SOL    HW111570   2.208   0.119   3.874
 3742SOL    HW211571   2.221  -0.030   3.940
 3743SOL     OW11572   2.797   0.236   4.204
 3743SOL    HW111573   2.749   0.277   4.126
 3743SOL    HW211574   2.896   0.234   4.185
 3744SOL     OW11575   2.938   0.683   5.188
 3744SOL    HW111576   2.858   0.622   5.191
 3744SOL    HW211577   3.019   0.630   5.164
 3745SOL     OW11578   3.089   1.570   4.517
 3745SOL    HW111579   3.110   1.644   4.452
 3745SOL    HW211580   3.157   1.570   4.590
 3746SOL     OW11581   2.321   1.152   4.465
 3746SOL    HW111582   2.250   1.125   4.530
 3746SOL    HW211583   2.295   1.124   4.372
 3747SOL     OW11584   3.133   1.797   4.315
 3747SOL    HW111585   3.177   1.861   4.251
 3747SOL    HW211586   3.083   1.849   4.385
 3748SOL     OW11587   2.894   0.549   3.740
 3748SOL    HW111588   2.853   0.631   3.701
 3748SOL    HW211589   2.958   0.575   3.813
 3749SOL     OW11590   1.940   0.556   5.110
 3749SOL    HW111591   2.032   0.555   5.069
 3749SOL    HW211592   1.934   0.630   5.177
 3750SOL     OW11593   2.423   0.222   4.871
 3750SOL    HW111594   2.461   0.138   4.908
 3750SOL    HW211595   2.335   0.241   4.915
 3751SOL     OW11596   2.728   0.454   4.366
 3751SOL    HW111597   2.696   0.526   4.304
 3751SOL    HW211598   2.752   0.373   4.313
 3752SOL     OW11599   2.879   0.039   4.477
 3752SOL    HW111600   2.807   0.044   4.408
 3752SOL    HW211601   2.855  -0.030   4.546
 3753SOL     OW11602   3.291   1.173   4.591
 3753SOL    HW111603   3.236   1.089   4.584
 3753SOL    HW211604   3.317   1.202   4.499
 3754SOL     OW11605   3.328   0.590   4.716
 3754SOL    HW111606   3.298   0.495   4.723
 3754SOL    HW211607   3.401   0.606   4.782
 3755SOL     OW11608   3.719   0.833   4.101
 3755SOL    HW111609   3.761   0.769   4.165
 3755SOL    HW211610   3.681   0.782   4.023
 3756SOL     OW11611   2.350   1.385   3.898
 3756SOL    HW111612   2.263   1.370   3.945
 3756SOL    HW211613   2.333   1.411   3.803
 3757SOL     OW11614   3.526   1.280   4.381
 3757SOL    HW111615   3.625   1.288   4.395
 3757SOL    HW211616   3.481   1.364   4.412
 3758SOL     OW11617   3.252   0.575   3.802
 3758SOL    HW111618   3.198   0.554   3.883
 3758SOL    HW211619   3.343   0.534   3.811
 3759SOL     OW11620   2.389   0.256   4.052
 3759SOL    HW111621   2.416   0.197   3.977
 3759SOL    HW211622   2.389   0.351   4.021
 3760SOL     OW11623   3.616   1.223   5.312
 3760SOL    HW111624   3.707   1.184   5.299
 3760SOL    HW211625   3.624   1.319   5.336
 3761SOL     OW11626   2.926   1.347   5.064
 3761SOL    HW111627   2.846   1.324   5.119
 3761SOL    HW211628   3.009   1.321   5.113
 3762SOL     OW11629   3.454   1.629   5.349
 3762SOL    HW111630   3.481   1.663   5.259
 3762SOL    HW211631   3.533   1.591   5.395
 3763SOL     OW11632   2.973   1.195   4.824
 3763SOL    HW111633   2.933   1.239   4.905
 3763SOL    HW211634   2.932   1.232   4.741
 3764SOL     OW11635   3.500   1.099   4.803
 3764SOL    HW111636   3.505   1.180   4.862
 3764SOL    HW211637   3.414   1.101   4.752
 3765SOL     OW11638   2.777   0.089   5.126
 3765SOL    HW111639   2.802   0.069   5.031
 3765SOL    HW211640   2.849   0.145   5.168
 3766SOL     OW11641   2.842   1.116   5.443
 3766SOL    HW111642   2.743   1.122   5.453
 3766SOL    HW211643   2.865   1.036   5.387
 3767SOL     OW11644   2.567   1.050   4.092
 3767SOL    HW111645   2.553   1.057   4.191
 3767SOL    HW211646   2.651   0.999   4.074
 3768SOL     OW11647   2.272   0.813   4.975
 3768SOL    HW111648   2.358   0.825   5.025
 3768SOL    HW211649   2.230   0.726   5.002
 3769SOL     OW11650   3.136   0.386   4.986
 3769SOL    HW111651   3.157   0.460   5.050
 3769SOL    HW211652   3.047   0.403   4.943
 3770SOL     OW11653   1.926   1.564   5.055
 3770SOL    HW111654   1.880   1.646   5.021
 3770SOL    HW211655   2.024   1.583   5.064
 3771SOL     OW11656   2.229   1.100   4.225
 3771SOL    HW111657   2.222   1.183   4.169
 3771SOL    HW211658   2.233   1.020   4.165
 3772SOL     OW11659   2.428   0.537   4.589
 3772SOL    HW111660   2.440   0.603   4.515
 3772SOL    HW211661   2.474   0.571   4.672
 3773SOL     OW11662   3.114   1.348   4.112
 3773SOL    HW111663   3.164   1.425   4.152
 3773SOL    HW211664   3.019   1.350   4.144
 3774SOL     OW11665   3.134   1.445   4.866
 3774SOL    HW111666   3.181   1.458   4.953
 3774SOL    HW211667   3.068   1.371   4.875
 3775SOL     OW11668   3.444   0.639   4.196
 3775SOL    HW111669   3.413   0.700   4.269
 3775SOL    HW211670   3.494   0.691   4.127
 3776SOL     OW11671   2.216   1.510   5.053
 3776SOL    HW111672   2.195   1.466   4.966
 3776SOL    HW211673   2.313   1.536   5.056
 3777SOL     OW11674   2.264   0.751   5.322
 3777SOL    HW111675   2.332   0.806   5.275
 3777SOL    HW211676   2.304   0.663   5.349
 3778SOL     OW11677   3.449   0.779   5.394
 3778SOL    HW111678   3.357   0.817   5.389
 3778SOL    HW211679   3.509   0.826   5.329
 3779SOL     OW11680   2.875   0.105   5.494
 3779SOL    HW111681   2.881   0.190   5.442
 3779SOL    HW211682   2.907   0.029   5.437
 3780SOL     OW11683   2.366   0.050   5.464
 3780SOL    HW111684   2.324  -0.007   5.394
 3780SOL    HW211685   2.300   0.119   5.496
 3781SOL     OW11686   2.435   0.870   4.753
 3781SOL    HW111687   2.479   0.959   4.744
 3781SOL    HW211688   2.372   0.870   4.830
 3782SOL     OW11689   3.222   0.862   4.769
 3782SOL    HW111690   3.147   0.862   4.703
 3782SOL    HW211691   3.259   0.770   4.778
 3783SOL     OW11692   3.071   0.525   3.999
 3783SOL    HW111693   3.084   0.441   4.053
 3783SOL    HW211694   3.042   0.599   4.059
 3784SOL     OW11695   2.169   0.213   4.955
 3784SOL    HW111696   2.146   0.250   5.045
 3784SOL    HW211697   2.139   0.118   4.949
 3785SOL     OW11698   1.899   1.310   5.006
 3785SOL    HW111699   1.952   1.261   5.074
 3785SOL    HW211700   1.921   1.408   5.011
 3786SOL     OW11701   2.594   0.634   4.788
 3786SOL    HW111702   2.653   0.608   4.712
 3786SOL    HW211703   2.566   0.730   4.777
 3787SOL     OW11704   3.590   0.935   5.578
 3787SOL    HW111705   3.544   0.928   5.489
 3787SOL    HW211706   3.528   0.979   5.644
 3788SOL     OW11707   2.169   0.063   4.342
 3788SOL    HW111708   2.158   0.157   4.375
 3788SOL    HW211709   2.164   0.000   4.419
 3789SOL     OW11710   3.484   0.367   4.098
 3789SOL    HW111711   3.486   0.291   4.162
 3789SOL    HW211712   3.436   0.444   4.138
 3790SOL     OW11713   2.885   0.766   4.690
 3790SOL    HW111714   2.900   0.787   4.786
 3790SOL    HW211715   2.855   0.671   4.681
 3791SOL     OW11716   2.842   1.573   5.424
 3791SOL    HW111717   2.822   1.617   5.336
 3791SOL    HW211718   2.881   1.482   5.408
 3792SOL     OW11719   3.721   1.518   5.329
 3792SOL    HW111720   3.735   1.545   5.234
 3792SOL    HW211721   3.804   1.540   5.382
 3793SOL     OW11722   2.212   0.898   5.528
 3793SOL    HW111723   2.288   0.942   5.576
 3793SOL    HW211724   2.247   0.851   5.446
 3794SOL     OW11725   3.402   0.274   3.849
 3794SOL    HW111726   3.341   0.199   3.872
 3794SOL    HW211727   3.424   0.326   3.932
 3795SOL     OW11728   3.165   0.838   3.766
 3795SOL    HW111729   3.199   0.745   3.781
 3795SOL    HW211730   3.183   0.865   3.671
 3796SOL     OW11731   2.930   1.333   4.573
 3796SOL    HW111732   2.937   1.249   4.518
 3796SOL    HW211733   2.992   1.402   4.537
 3797SOL     OW11734   2.181   0.810   4.673
 3797SOL    HW111735   2.274   0.846   4.678
 3797SOL    HW211736   2.175   0.725   4.725
 3798SOL     OW11737   2.201   0.509   4.730
 3798SOL    HW111738   2.149   0.426   4.713
 3798SOL    HW211739   2.278   0.514   4.666
 3799SOL     OW11740   3.000   0.380   5.402
 3799SOL    HW111741   2.955   0.443   5.466
 3799SOL    HW211742   3.093   0.411   5.385
 3800SOL     OW11743   3.022   0.207   5.201
 3800SOL    HW111744   3.022   0.271   5.278
 3800SOL    HW211745   3.050   0.255   5.118
 3801SOL     OW11746   1.870   1.326   3.924
 3801SOL    HW111747   1.777   1.347   3.893
 3801SOL    HW211748   1.880   1.227   3.937
 3802SOL     OW11749   1.950   1.801   4.651
 3802SOL    HW111750   1.908   1.715   4.624
 3802SOL    HW211751   2.044   1.804   4.617
 3803SOL     OW11752   2.366   1.568   4.634
 3803SOL    HW111753   2.432   1.642   4.643
 3803SOL    HW211754   2.410   1.489   4.592
 3804SOL     OW11755   2.864   0.796   4.962
 3804SOL    HW111756   2.905   0.764   5.048
 3804SOL    HW211757   2.768   0.769   4.959
 3805SOL     OW11758   1.902   0.544   4.838
 3805SOL    HW111759   1.987   0.511   4.797
 3805SOL    HW211760   1.915   0.559   4.936
 3806SOL     OW11761   2.051   0.520   5.446
 3806SOL    HW111762   2.110   0.480   5.376
 3806SOL    HW211763   1.993   0.591   5.405
 3807SOL     OW11764   3.231   0.950   5.384
 3807SOL    HW111765   3.270   1.039   5.404
 3807SOL    HW211766   3.241   0.930   5.287
 3808SOL     OW11767   2.677   0.572   4.049
 3808SOL    HW111768   2.684   0.483   4.003
 3808SOL    HW211769   2.583   0.606   4.041
 3809SOL     OW11770   3.519   0.604   4.930
 3809SOL    HW111771   3.481   0.535   4.992
 3809SOL    HW211772   3.601   0.568   4.886
 3810SOL     OW11773   2.114   1.564   5.468
 3810SOL    HW111774   2.084   1.621   5.544
 3810SOL    HW211775   2.107   1.467   5.494
 3811SOL     OW11776   2.533   0.464   4.993
 3811SOL    HW111777   2.499   0.375   4.963
 3811SOL    HW211778   2.559   0.518   4.913
 3812SOL     OW11779   2.792   1.678   5.189
 3812SOL    HW111780   2.768   1.660   5.094
 3812SOL    HW211781   2.822   1.772   5.199
 3813SOL     OW11782   2.335   0.500   3.915
 3813SOL    HW111783   2.396   0.580   3.919
 3813SOL    HW211784   2.240   0.531   3.922
 3814SOL     OW11785   2.021   1.137   5.190
 3814SOL    HW111786   2.043   1.076   5.266
 3814SOL    HW211787   2.031   1.088   5.104
 3815SOL     OW11788   3.209   1.059   4.958
 3815SOL    HW111789   3.233   0.996   4.884
 3815SOL    HW211790   3.119   1.099   4.940
 3816SOL     OW11791   3.164   0.855   4.033
 3816SOL    HW111792   3.078   0.824   4.075
 3816SOL    HW211793   3.160   0.841   3.934
 3817SOL     OW11794   3.621   1.747   4.878
 3817SOL    HW111795   3.682   1.777   4.805
 3817SOL    HW211796   3.583   1.658   4.856
 3818SOL     OW11797   3.114   1.731   4.852
 3818SOL    HW111798   3.198   1.736   4.798
 3818SOL    HW211799   3.091   1.635   4.870
 3819SOL     OW11800   1.945   1.258   4.746
 3819SOL    HW111801   1.940   1.257   4.846
 3819SOL    HW211802   1.862   1.217   4.708
 3820SOL     OW11803   2.550   1.662   5.440
 3820SOL    HW111804   2.494   1.743   5.449
 3820SOL    HW211805   2.602   1.666   5.354
 3821SOL     OW11806   3.588   0.135   4.247
 3821SOL    HW111807   3.661   0.118   4.180
 3821SOL    HW211808   3.557   0.048   4.285
 3822SOL     OW11809   3.250   1.573   4.201
 3822SOL    HW111810   3.317   1.585   4.127
 3822SOL    HW211811   3.210   1.662   4.224
 3823SOL     OW11812   1.992   1.794   5.575
 3823SOL    HW111813   1.951   1.720   5.628
 3823SOL    HW211814   2.056   1.845   5.633
 3824SOL     OW11815   3.142   0.927   4.396
 3824SOL    HW111816   3.202   0.846   4.398
 3824SOL    HW211817   3.182   0.996   4.336
 3825SOL     OW11818   2.692   1.273   5.146
 3825SOL    HW111819   2.687   1.306   5.241
 3825SOL    HW211820   2.606   1.292   5.100
 3826SOL     OW11821   2.534   1.616   3.878
 3826SOL    HW111822   2.543   1.626   3.779
 3826SOL    HW211823   2.494   1.527   3.899
 3827SOL     OW11824   3.512   1.720   5.118
 3827SOL    HW111825   3.565   1.730   5.034
 3827SOL    HW211826   3.485   1.810   5.152
 3828SOL     OW11827   3.703   0.175   4.687
 3828SOL    HW111828   3.742   0.090   4.651
 3828SOL    HW211829   3.605   0.177   4.668
 3829SOL     OW11830   2.125   0.326   4.444
 3829SOL    HW111831   2.046   0.377   4.410
 3829SOL    HW211832   2.116   0.311   4.542
 3830SOL     OW11833   3.056   1.612   3.755
 3830SOL    HW111834   3.062   1.519   3.792
 3830SOL    HW211835   2.997   1.612   3.675
 3831SOL     OW11836   2.684   1.002   5.096
 3831SOL    HW111837   2.724   1.001   5.004
 3831SOL    HW211838   2.694   1.094   5.136
 3832SOL     OW11839   2.778   0.910   4.015
 3832SOL    HW111840   2.841   0.948   3.947
 3832SOL    HW211841   2.818   0.827   4.054
 3833SOL     OW11842   3.366   1.607   3.768
 3833SOL    HW111843   3.274   1.644   3.775
 3833SOL    HW211844   3.404   1.627   3.678
 3834SOL     OW11845   2.234   1.288   5.214
 3834SOL    HW111846   2.221   1.381   5.180
 3834SOL    HW211847   2.150   1.236   5.201
 3835SOL     OW11848   3.476   1.292   5.013
 3835SOL    HW111849   3.536   1.295   5.093
 3835SOL    HW211850   3.401   1.356   5.026
 3836SOL     OW11851   2.901   1.098   4.420
 3836SOL    HW111852   2.831   1.051   4.474
 3836SOL    HW211853   2.960   1.030   4.377
 3837SOL     OW11854   2.876   0.236   4.695
 3837SOL    HW111855   2.868   0.200   4.602
 3837SOL    HW211856   2.874   0.160   4.760
 3838SOL     OW11857   2.452   1.487   4.215
 3838SOL    HW111858   2.494   1.429   4.145
 3838SOL    HW211859   2.408   1.566   4.171
 3839SOL     OW11860   3.571   0.385   5.105
 3839SOL    HW111861   3.644   0.454   5.109
 3839SOL    HW211862   3.599   0.310   5.046
 3840SOL     OW11863   2.117   1.348   4.014
 3840SOL    HW111864   2.021   1.349   3.987
 3840SOL    HW211865   2.129   1.401   4.098
 3841SOL     OW11866   1.967   1.013   5.450
 3841SOL    HW111867   1.890   0.980   5.504
 3841SOL    HW211868   2.052   0.983   5.492
 3842SOL     OW11869   2.534   0.203   5.213
 3842SOL    HW111870   2.624   0.187   5.173
 3842SOL    HW211871   2.542   0.208   5.312
 3843SOL     OW11872   1.937   0.345   3.757
 3843SOL    HW111873   1.845   0.317   3.728
 3843SOL    HW211874   1.968   0.422   3.701
 3844SOL     OW11875   3.302   0.856   5.122
 3844SOL    HW111876   3.245   0.908   5.059
 3844SOL    HW211877   3.398   0.868   5.098
 3845SOL     OW11878   1.934   0.166   4.042
 3845SOL    HW111879   1.917   0.249   3.988
 3845SOL    HW211880   2.024   0.129   4.020
 3846SOL     OW11881   3.045   1.335   3.843
 3846SOL    HW111882   2.946   1.324   3.845
 3846SOL    HW211883   3.079   1.350   3.936
 3847SOL     OW11884   2.475   0.842   5.155
 3847SOL    HW111885   2.531   0.923   5.138
 3847SOL    HW211886   2.534   0.762   5.158
 3848SOL     OW11887   3.355   1.767   4.683
 3848SOL    HW111888   3.388   1.831   4.614
 3848SOL    HW211889   3.421   1.761   4.758
 3849SOL     OW11890   2.578   0.565   5.432
 3849SOL    HW111891   2.597   0.630   5.506
 3849SOL    HW211892   2.638   0.485   5.441
 3850SOL     OW11893   3.312   1.220   5.357
 3850SOL    HW111894   3.303   1.210   5.456
 3850SOL    HW211895   3.408   1.213   5.331
 3851SOL     OW11896   2.252   1.741   5.284
 3851SOL    HW111897   2.161   1.782   5.282
 3851SOL    HW211898   2.245   1.647   5.316
 3852SOL     OW11899   3.536   0.883   4.978
 3852SOL    HW111900   3.509   0.794   4.941
 3852SOL    HW211901   3.537   0.951   4.905
 3853SOL     OW11902   3.087   0.325   4.173
 3853SOL    HW111903   3.152   0.251   4.162
 3853SOL    HW211904   3.107   0.375   4.257
 3854SOL     OW11905   2.456   0.745   4.376
 3854SOL    HW111906   2.506   0.830   4.357
 3854SOL    HW211907   2.368   0.747   4.328
 3855SOL     OW11908   3.639   0.342   5.366
 3855SOL    HW111909   3.622   0.373   5.272
 3855SOL    HW211910   3.555   0.305   5.404
 3856SOL     OW11911   3.592   0.934   5.241
 3856SOL    HW111912   3.630   1.025   5.256
 3856SOL    HW211913   3.584   0.917   5.142
 3857SOL     OW11914   2.721   1.374   3.740
 3857SOL    HW111915   2.675   1.389   3.828
 3857SOL    HW211916   2.765   1.459   3.710
 3858SOL     OW11917   2.523   1.790   4.677
 3858SOL    HW111918   2.477   1.878   4.664
 3858SOL    HW211919   2.622   1.802   4.670
 3859SOL     OW11920   2.721   0.956   4.585
 3859SOL    HW111921   2.775   0.887   4.633
 3859SOL    HW211922   2.689   1.025   4.651
 3860SOL     OW11923   2.945   0.984   3.811
 3860SOL    HW111924   2.922   1.037   3.729
 3860SOL    HW211925   3.026   0.928   3.792
 3861SOL     OW11926   3.723   1.569   4.575
 3861SOL    HW111927   3.652   1.557   4.505
 3861SOL    HW211928   3.724   1.490   4.635
 3862SOL     OW11929   2.083   1.314   5.568
 3862SOL    HW111930   2.018   1.241   5.547
 3862SOL    HW211931   2.087   1.328   5.666
 3863SOL     OW11932   1.941   1.240   4.377
 3863SOL    HW111933   1.940   1.193   4.465
 3863SOL    HW211934   2.023   1.212   4.326
 3864SOL     OW11935   2.534   1.391   5.348
 3864SOL    HW111936   2.456   1.341   5.386
 3864SOL    HW211937   2.531   1.486   5.379
 3865SOL     OW11938   3.686   0.192   4.951
 3865SOL    HW111939   3.682   0.102   4.995
 3865SOL    HW211940   3.689   0.181   4.852
 3866SOL     OW11941   2.290   0.424   4.244
 3866SOL    HW111942   2.320   0.352   4.182
 3866SOL    HW211943   2.251   0.384   4.327
 3867SOL     OW11944   3.567   1.487   4.828
 3867SOL    HW111945   3.474   1.462   4.801
 3867SOL    HW211946   3.593   1.437   4.910
 3868SOL     OW11947   2.179   0.547   5.004
 3868SOL    HW111948   2.217   0.488   5.076
 3868SOL    HW211949   2.219   0.521   4.916
 3869SOL     OW11950   2.674   1.586   4.411
 3869SOL    HW111951   2.706   1.596   4.317
 3869SOL    HW211952   2.595   1.524   4.413
 3870SOL     OW11953   3.286   0.214   4.836
 3870SOL    HW111954   3.338   0.149   4.891
 3870SOL    HW211955   3.237   0.277   4.897
 3871SOL     OW11956   2.863   0.034   4.878
 3871SOL    HW111957   2.800  -0.038   4.847
 3871SOL    HW211958   2.956  -0.002   4.878
 3872SOL     OW11959   2.632   1.330   4.025
 3872SOL    HW111960   2.586   1.243   4.042
 3872SOL    HW211961   2.723   1.327   4.066
 3873SOL     OW11962   2.480   1.567   5.008
 3873SOL    HW111963   2.475   1.649   5.065
 3873SOL    HW211964   2.569   1.564   4.963
 3874SOL     OW11965   3.214   0.052   3.892
 3874SOL    HW111966   3.249   0.011   3.808
 3874SOL    HW211967   3.124   0.014   3.912
 3875SOL     OW11968   3.162   0.453   4.415
 3875SOL    HW111969   3.103   0.533   4.419
 3875SOL    HW211970   3.177   0.418   4.508
 3876SOL     OW11971   3.455   0.221   4.606
 3876SOL    HW111972   3.371   0.220   4.660
 3876SOL    HW211973   3.457   0.304   4.550
 3877SOL     OW11974   1.901   1.077   4.024
 3877SOL    HW111975   2.000   1.066   4.015
 3877SOL    HW211976   1.861   0.991   4.056
 3878SOL     OW11977   2.737   1.646   4.061
 3878SOL    HW111978   2.660   1.611   4.007
 3878SOL    HW211979   2.705   1.717   4.123
 3879SOL     OW11980   2.092   0.628   5.699
 3879SOL    HW111981   1.999   0.626   5.736
 3879SOL    HW211982   2.093   0.589   5.607
 3880SOL     OW11983   2.087   0.275   6.582
 3880SOL    HW111984   2.122   0.258   6.674
 3880SOL    HW211985   1.999   0.230   6.570
 3881SOL     OW11986   1.881   0.368   6.233
 3881SOL    HW111987   1.799   0.411   6.272
 3881SOL    HW211988   1.853   0.295   6.170
 3882SOL     OW11989   2.431   1.275   6.751
 3882SOL    HW111990   2.338   1.268   6.714
 3882SOL    HW211991   2.442   1.364   6.795
 3883SOL     OW11992   3.417   1.511   6.289
 3883SOL    HW111993   3.360   1.495   6.370
 3883SOL    HW211994   3.358   1.521   6.209
 3884SOL     OW11995   2.997   0.703   6.303
 3884SOL    HW111996   3.054   0.781   6.278
 3884SOL    HW211997   2.937   0.729   6.379
 3885SOL     OW11998   3.617   0.607   5.817
 3885SOL    HW111999   3.605   0.594   5.718
 3885SOL    HW212000   3.587   0.526   5.866
 3886SOL     OW12001   2.547   1.012   6.251
 3886SOL    HW112002   2.616   0.996   6.321
 3886SOL    HW212003   2.474   1.069   6.289
 3887SOL     OW12004   2.197   1.435   6.647
 3887SOL    HW112005   2.119   1.404   6.594
 3887SOL    HW212006   2.255   1.493   6.590
 3888SOL     OW12007   3.465   0.447   6.323
 3888SOL    HW112008   3.391   0.493   6.273
 3888SOL    HW212009   3.516   0.515   6.376
 3889SOL     OW12010   2.093   1.713   6.069
 3889SOL    HW112011   2.127   1.790   6.123
 3889SOL    HW212012   2.137   1.713   5.979
 3890SOL     OW12013   2.092   1.434   6.124
 3890SOL    HW112014   2.066   1.530   6.124
 3890SOL    HW212015   2.021   1.380   6.169
 3891SOL     OW12016   2.102   1.091   6.472
 3891SOL    HW112017   2.116   1.007   6.524
 3891SOL    HW212018   2.047   1.155   6.527
 3892SOL     OW12019   2.468   0.964   5.709
 3892SOL    HW112020   2.475   1.048   5.655
 3892SOL    HW212021   2.514   0.977   5.797
 3893SOL     OW12022   1.984   0.643   6.149
 3893SOL    HW112023   1.939   0.555   6.166
 3893SOL    HW212024   1.983   0.697   6.233
 3894SOL     OW12025   3.704   1.767   5.945
 3894SOL    HW112026   3.758   1.738   6.025
 3894SOL    HW212027   3.734   1.857   5.916
 3895SOL     OW12028   1.889   1.596   5.703
 3895SOL    HW112029   1.870   1.500   5.724
 3895SOL    HW212030   1.856   1.654   5.778
 3896SOL     OW12031   3.551   0.922   6.198
 3896SOL    HW112032   3.646   0.893   6.206
 3896SOL    HW212033   3.543   0.987   6.123
 3897SOL     OW12034   3.503   1.108   6.018
 3897SOL    HW112035   3.589   1.110   5.966
 3897SOL    HW212036   3.517   1.155   6.106
 3898SOL     OW12037   2.475   1.365   6.312
 3898SOL    HW112038   2.426   1.278   6.321
 3898SOL    HW212039   2.452   1.408   6.225
 3899SOL     OW12040   2.671   0.004   6.088
 3899SOL    HW112041   2.711   0.095   6.079
 3899SOL    HW212042   2.571   0.012   6.094
 3900SOL     OW12043   3.387   0.999   5.776
 3900SOL    HW112044   3.324   0.923   5.789
 3900SOL    HW212045   3.435   1.017   5.862
 3901SOL     OW12046   3.529   1.714   6.158
 3901SOL    HW112047   3.488   1.691   6.070
 3901SOL    HW212048   3.511   1.640   6.223
 3902SOL     OW12049   2.460   0.729   5.856
 3902SOL    HW112050   2.484   0.798   5.788
 3902SOL    HW212051   2.382   0.762   5.910
 3903SOL     OW12052   3.143   0.345   6.530
 3903SOL    HW112053   3.057   0.295   6.517
 3903SOL    HW212054   3.205   0.291   6.586
 3904SOL     OW12055   3.438   1.662   5.893
 3904SOL    HW112056   3.527   1.708   5.896
 3904SOL    HW212057   3.417   1.638   5.798
 3905SOL     OW12058   2.853   0.410   6.828
 3905SOL    HW112059   2.776   0.444   6.882
 3905SOL    HW212060   2.819   0.359   6.749
 3906SOL     OW12061   2.903   0.701   6.015
 3906SOL    HW112062   2.929   0.697   6.111
 3906SOL    HW212063   2.818   0.650   6.001
 3907SOL     OW12064   1.938   0.811   6.375
 3907SOL    HW112065   2.037   0.799   6.384
 3907SOL    HW212066   1.914   0.906   6.396
 3908SOL     OW12067   2.727   0.348   5.781
 3908SOL    HW112068   2.786   0.411   5.732
 3908SOL    HW212069   2.746   0.254   5.752
 3909SOL     OW12070   3.224   1.144   6.131
 3909SOL    HW112071   3.307   1.115   6.083
 3909SOL    HW212072   3.175   1.211   6.075
 3910SOL     OW12073   2.412   0.196   6.471
 3910SOL    HW112074   2.407   0.191   6.571
 3910SOL    HW212075   2.414   0.292   6.442
 3911SOL     OW12076   2.870   1.456   6.063
 3911SOL    HW112077   2.824   1.528   6.011
 3911SOL    HW212078   2.866   1.476   6.161
 3912SOL     OW12079   2.213   1.801   6.439
 3912SOL    HW112080   2.263   1.715   6.445
 3912SOL    HW212081   2.278   1.878   6.436
 3913SOL     OW12082   2.183   0.943   5.828
 3913SOL    HW112083   2.265   0.982   5.786
 3913SOL    HW212084   2.156   0.861   5.779
 3914SOL     OW12085   3.320   0.735   6.314
 3914SOL    HW112086   3.315   0.670   6.389
 3914SOL    HW212087   3.400   0.794   6.327
 3915SOL     OW12088   2.973   1.776   5.823
 3915SOL    HW112089   2.913   1.714   5.873
 3915SOL    HW212090   3.004   1.732   5.738
 3916SOL     OW12091   3.494   1.377   5.667
 3916SOL    HW112092   3.462   1.471   5.657
 3916SOL    HW212093   3.418   1.314   5.655
 3917SOL     OW12094   2.326   1.743   5.909
 3917SOL    HW112095   2.359   1.782   5.995
 3917SOL    HW212096   2.402   1.736   5.844
 3918SOL     OW12097   3.262   0.107   6.012
 3918SOL    HW112098   3.238   0.070   5.922
 3918SOL    HW212099   3.361   0.123   6.016
 3919SOL     OW12100   2.111   1.785   6.827
 3919SOL    HW112101   2.168   1.720   6.877
 3919SOL    HW212102   2.095   1.752   6.734
 3920SOL     OW12103   2.802   1.698   6.490
 3920SOL    HW112104   2.882   1.641   6.511
 3920SOL    HW212105   2.753   1.658   6.413
 3921SOL     OW12106   2.244   0.700   6.066
 3921SOL    HW112107   2.289   0.610   6.063
 3921SOL    HW212108   2.150   0.689   6.099
 3922SOL     OW12109   2.476   0.122   5.703
 3922SOL    HW112110   2.574   0.100   5.710
 3922SOL    HW212111   2.445   0.105   5.610
 3923SOL     OW12112   2.665   1.402   6.510
 3923SOL    HW112113   2.755   1.416   6.468
 3923SOL    HW212114   2.594   1.404   6.439
 3924SOL     OW12115   2.401   0.064   6.098
 3924SOL    HW112116   2.320   0.065   6.156
 3924SOL    HW212117   2.404   0.147   6.043
 3925SOL     OW12118   3.296   1.188   5.627
 3925SOL    HW112119   3.328   1.112   5.684
 3925SOL    HW212120   3.204   1.215   5.657
 3926SOL     OW12121   2.159   0.035   5.757
 3926SOL    HW112122   2.208   0.119   5.736
 3926SOL    HW212123   2.221  -0.030   5.802
 3927SOL     OW12124   2.797   0.236   6.066
 3927SOL    HW112125   2.749   0.277   5.988
 3927SOL    HW212126   2.896   0.234   6.047
 3928SOL     OW12127   3.089   1.570   6.379
 3928SOL    HW112128   3.110   1.644   6.314
 3928SOL    HW212129   3.157   1.570   6.452
 3929SOL     OW12130   2.321   1.152   6.327
 3929SOL    HW112131   2.250   1.125   6.392
 3929SOL    HW212132   2.295   1.124   6.234
 3930SOL     OW12133   3.133   1.797   6.177
 3930SOL    HW112134   3.177   1.861   6.113
 3930SOL    HW212135   3.083   1.849   6.247
 3931SOL     OW12136   2.894   0.549   5.602
 3931SOL    HW112137   2.853   0.631   5.563
 3931SOL    HW212138   2.958   0.575   5.675
 3932SOL     OW12139   2.423   0.222   6.733
 3932SOL    HW112140   2.461   0.138   6.770
 3932SOL    HW212141   2.335   0.241   6.777
 3933SOL     OW12142   2.728   0.454   6.228
 3933SOL    HW112143   2.696   0.526   6.166
 3933SOL    HW212144   2.752   0.373   6.175
 3934SOL     OW12145   2.879   0.039   6.339
 3934SOL    HW112146   2.807   0.044   6.270
 3934SOL    HW212147   2.855  -0.030   6.408
 3935SOL     OW12148   3.291   1.173   6.453
 3935SOL    HW112149   3.236   1.089   6.446
 3935SOL    HW212150   3.317   1.202   6.361
 3936SOL     OW12151   3.328   0.590   6.578
 3936SOL    HW112152   3.298   0.495   6.585
 3936SOL    HW212153   3.401   0.606   6.644
 3937SOL     OW12154   3.719   0.833   5.963
 3937SOL    HW112155   3.761   0.769   6.027
 3937SOL    HW212156   3.681   0.782   5.885
 3938SOL     OW12157   2.350   1.385   5.760
 3938SOL    HW112158   2.263   1.370   5.807
 3938SOL    HW212159   2.333   1.411   5.665
 3939SOL     OW12160   3.526   1.280   6.243
 3939SOL    HW112161   3.625   1.288   6.257
 3939SOL    HW212162   3.481   1.364   6.274
 3940SOL     OW12163   3.252   0.575   5.664
 3940SOL    HW112164   3.198   0.554   5.745
 3940SOL    HW212165   3.343   0.534   5.673
 3941SOL     OW12166   2.389   0.256   5.914
 3941SOL    HW112167   2.416   0.197   5.839
 3941SOL    HW212168   2.389   0.351   5.883
 3942SOL     OW12169   3.500   1.099   6.665
 3942SOL    HW112170   3.505   1.180   6.724
 3942SOL    HW212171   3.414   1.101   6.614
 3943SOL     OW12172   2.567   1.050   5.954
 3943SOL    HW112173   2.553   1.057   6.053
 3943SOL    HW212174   2.651   0.999   5.936
 3944SOL     OW12175   2.229   1.100   6.087
 3944SOL    HW112176   2.222   1.183   6.031
 3944SOL    HW212177   2.233   1.020   6.027
 3945SOL     OW12178   2.428   0.537   6.451
 3945SOL    HW112179   2.440   0.603   6.377
 3945SOL    HW212180   2.474   0.571   6.534
 3946SOL     OW12181   3.114   1.348   5.974
 3946SOL    HW112182   3.164   1.425   6.014
 3946SOL    HW212183   3.019   1.350   6.006
 3947SOL     OW12184   3.444   0.639   6.058
 3947SOL    HW112185   3.413   0.700   6.131
 3947SOL    HW212186   3.494   0.691   5.989
 3948SOL     OW12187   2.435   0.870   6.615
 3948SOL    HW112188   2.479   0.959   6.606
 3948SOL    HW212189   2.372   0.870   6.692
 3949SOL     OW12190   3.071   0.525   5.861
 3949SOL    HW112191   3.084   0.441   5.915
 3949SOL    HW212192   3.042   0.599   5.921
 3950SOL     OW12193   2.594   0.634   6.650
 3950SOL    HW112194   2.653   0.608   6.574
 3950SOL    HW212195   2.566   0.730   6.639
 3951SOL     OW12196   2.169   0.063   6.204
 3951SOL    HW112197   2.158   0.157   6.237
 3951SOL    HW212198   2.164   0.000   6.281
 3952SOL     OW12199   3.484   0.367   5.960
 3952SOL    HW112200   3.486   0.291   6.024
 3952SOL    HW212201   3.436   0.444   6.000
 3953SOL     OW12202   3.402   0.274   5.711
 3953SOL    HW112203   3.341   0.199   5.734
 3953SOL    HW212204   3.424   0.326   5.794
 3954SOL     OW12205   3.165   0.838   5.628
 3954SOL    HW112206   3.199   0.745   5.643
 3954SOL    HW212207   3.183   0.865   5.533
 3955SOL     OW12208   2.930   1.333   6.435
 3955SOL    HW112209   2.937   1.249   6.380
 3955SOL    HW212210   2.992   1.402   6.399
 3956SOL     OW12211   2.181   0.810   6.535
 3956SOL    HW112212   2.274   0.846   6.540
 3956SOL    HW212213   2.175   0.725   6.587
 3957SOL     OW12214   2.201   0.509   6.592
 3957SOL    HW112215   2.149   0.426   6.575
 3957SOL    HW212216   2.278   0.514   6.528
 3958SOL     OW12217   1.870   1.326   5.786
 3958SOL    HW112218   1.777   1.347   5.755
 3958SOL    HW212219   1.880   1.227   5.799
 3959SOL     OW12220   1.950   1.801   6.513
 3959SOL    HW112221   1.908   1.715   6.486
 3959SOL    HW212222   2.044   1.804   6.479
 3960SOL     OW12223   2.366   1.568   6.496
 3960SOL    HW112224   2.432   1.642   6.505
 3960SOL    HW212225   2.410   1.489   6.454
 3961SOL     OW12226   1.902   0.544   6.700
 3961SOL    HW112227   1.987   0.511   6.659
 3961SOL    HW212228   1.915   0.559   6.798
 3962SOL     OW12229   2.677   0.572   5.911
 3962SOL    HW112230   2.684   0.483   5.865
 3962SOL    HW212231   2.583   0.606   5.903
 3963SOL     OW12232   2.533   0.464   6.855
 3963SOL    HW112233   2.499   0.375   6.825
 3963SOL    HW212234   2.559   0.518   6.775
 3964SOL     OW12235   2.335   0.500   5.777
 3964SOL    HW112236   2.396   0.580   5.781
 3964SOL    HW212237   2.240   0.531   5.784
 3965SOL     OW12238   3.164   0.855   5.895
 3965SOL    HW112239   3.078   0.824   5.937
 3965SOL    HW212240   3.160   0.841   5.796
 3966SOL     OW12241   1.945   1.258   6.608
 3966SOL    HW112242   1.940   1.257   6.708
 3966SOL    HW212243   1.862   1.217   6.570
 3967SOL     OW12244   3.588   0.135   6.109
 3967SOL    HW112245   3.661   0.118   6.042
 3967SOL    HW212246   3.557   0.048   6.147
 3968SOL     OW12247   3.250   1.573   6.063
 3968SOL    HW112248   3.317   1.585   5.989
 3968SOL    HW212249   3.210   1.662   6.086
 3969SOL     OW12250   3.142   0.927   6.258
 3969SOL    HW112251   3.202   0.846   6.260
 3969SOL    HW212252   3.182   0.996   6.198
 3970SOL     OW12253   2.534   1.616   5.740
 3970SOL    HW112254   2.543   1.626   5.641
 3970SOL    HW212255   2.494   1.527   5.761
 3971SOL     OW12256   3.703   0.175   6.549
 3971SOL    HW112257   3.742   0.090   6.513
 3971SOL    HW212258   3.605   0.177   6.530
 3972SOL     OW12259   2.125   0.326   6.306
 3972SOL    HW112260   2.046   0.377   6.272
 3972SOL    HW212261   2.116   0.311   6.404
 3973SOL     OW12262   3.056   1.612   5.617
 3973SOL    HW112263   3.062   1.519   5.654
 3973SOL    HW212264   2.997   1.612   5.537
 3974SOL     OW12265   2.778   0.910   5.877
 3974SOL    HW112266   2.841   0.948   5.809
 3974SOL    HW212267   2.818   0.827   5.916
 3975SOL     OW12268   3.366   1.607   5.630
 3975SOL    HW112269   3.274   1.644   5.637
 3975SOL    HW212270   3.404   1.627   5.540
 3976SOL     OW12271   2.901   1.098   6.282
 3976SOL    HW112272   2.831   1.051   6.336
 3976SOL    HW212273   2.960   1.030   6.239
 3977SOL     OW12274   2.452   1.487   6.077
 3977SOL    HW112275   2.494   1.429   6.007
 3977SOL    HW212276   2.408   1.566   6.033
 3978SOL     OW12277   2.117   1.348   5.876
 3978SOL    HW112278   2.021   1.349   5.849
 3978SOL    HW212279   2.129   1.401   5.960
 3979SOL     OW12280   1.937   0.345   5.619
 3979SOL    HW112281   1.845   0.317   5.590
 3979SOL    HW212282   1.968   0.422   5.563
 3980SOL     OW12283   1.934   0.166   5.904
 3980SOL    HW112284   1.917   0.249   5.850
 3980SOL    HW212285   2.024   0.129   5.882
 3981SOL     OW12286   3.045   1.335   5.705
 3981SOL    HW112287   2.946   1.324   5.707
 3981SOL    HW212288   3.079   1.350   5.798
 3982SOL     OW12289   3.355   1.767   6.545
 3982SOL    HW112290   3.388   1.831   6.476
 3982SOL    HW212291   3.421   1.761   6.620
 3983SOL     OW12292   3.087   0.325   6.035
 3983SOL    HW112293   3.152   0.251   6.024
 3983SOL    HW212294   3.107   0.375   6.119
 3984SOL     OW12295   2.456   0.745   6.238
 3984SOL    HW112296   2.506   0.830   6.219
 3984SOL    HW212297   2.368   0.747   6.190
 3985SOL     OW12298   2.721   1.374   5.602
 3985SOL    HW112299   2.675   1.389   5.690
 3985SOL    HW212300   2.765   1.459   5.572
 3986SOL     OW12301   2.523   1.790   6.539
 3986SOL    HW112302   2.477   1.878   6.526
 3986SOL    HW212303   2.622   1.802   6.532
 3987SOL     OW12304   2.721   0.956   6.447
 3987SOL    HW112305   2.775   0.887   6.495
 3987SOL    HW212306   2.689   1.025   6.513
 3988SOL     OW12307   2.945   0.984   5.673
 3988SOL    HW112308   2.922   1.037   5.591
 3988SOL    HW212309   3.026   0.928   5.654
 3989SOL     OW12310   1.941   1.240   6.239
 3989SOL    HW112311   1.940   1.193   6.327
 3989SOL    HW212312   2.023   1.212   6.188
 3990SOL     OW12313   3.686   0.192   6.813
 3990SOL    HW112314   3.682   0.102   6.857
 3990SOL    HW212315   3.689   0.181   6.714
 3991SOL     OW12316   2.290   0.424   6.106
 3991SOL    HW112317   2.320   0.352   6.044
 3991SOL    HW212318   2.251   0.384   6.189
 3992SOL     OW12319   2.179   0.547   6.866
 3992SOL    HW112320   2.217   0.488   6.938
 3992SOL    HW212321   2.219   0.521   6.778
 3993SOL     OW12322   2.674   1.586   6.273
 3993SOL    HW112323   2.706   1.596   6.179
 3993SOL    HW212324   2.595   1.524   6.275
 3994SOL     OW12325   2.632   1.330   5.887
 3994SOL    HW112326   2.586   1.243   5.904
 3994SOL    HW212327   2.723   1.327   5.928
 3995SOL     OW12328   3.214   0.052   5.754
 3995SOL    HW112329   3.249   0.011   5.670
 3995SOL    HW212330   3.124   0.014   5.774
 3996SOL     OW12331   3.162   0.453   6.277
 3996SOL    HW112332   3.103   0.533   6.281
 3996SOL    HW212333   3.177   0.418   6.370
 3997SOL     OW12334   3.455   0.221   6.468
 3997SOL    HW112335   3.371   0.220   6.522
 3997SOL    HW212336   3.457   0.304   6.412
 3998SOL     OW12337   1.901   1.077   5.886
 3998SOL    HW112338   2.000   1.066   5.877
 3998SOL    HW212339   1.861   0.991   5.918
 3999SOL     OW12340   2.737   1.646   5.923
 3999SOL    HW112341   2.660   1.611   5.869
 3999SOL    HW212342   2.705   1.717   5.985
 4000SOL     OW12343   2.092   2.490   0.113
 4000SOL    HW112344   1.999   2.488   0.150
 4000SOL    HW212345   2.093   2.451   0.021
 4001SOL     OW12346   2.087   2.137   0.996
 4001SOL    HW112347   2.122   2.120   1.088
 4001SOL    HW212348   1.999   2.092   0.984
 4002SOL     OW12349   1.881   2.230   0.647
 4002SOL    HW112350   1.799   2.273   0.686
 4002SOL    HW212351   1.853   2.157   0.584
 4003SOL     OW12352   2.431   3.137   1.165
 4003SOL    HW112353   2.338   3.130   1.128
 4003SOL    HW212354   2.442   3.226   1.209
 4004SOL     OW12355   3.417   3.373   0.703
 4004SOL    HW112356   3.360   3.357   0.784
 4004SOL    HW212357   3.358   3.383   0.623
 4005SOL     OW12358   2.997   2.565   0.717
 4005SOL    HW112359   3.054   2.643   0.692
 4005SOL    HW212360   2.937   2.591   0.793
 4006SOL     OW12361   2.630   3.006   1.023
 4006SOL    HW112362   2.552   3.023   1.083
 4006SOL    HW212363   2.664   3.093   0.987
 4007SOL     OW12364   2.712   2.660   1.823
 4007SOL    HW112365   2.708   2.736   1.888
 4007SOL    HW212366   2.734   2.696   1.732
 4008SOL     OW12367   2.548   3.023   1.803
 4008SOL    HW112368   2.608   3.102   1.817
 4008SOL    HW212369   2.462   3.054   1.762
 4009SOL     OW12370   2.197   3.297   1.061
 4009SOL    HW112371   2.119   3.266   1.008
 4009SOL    HW212372   2.255   3.355   1.004
 4010SOL     OW12373   3.322   3.367   1.339
 4010SOL    HW112374   3.346   3.461   1.365
 4010SOL    HW212375   3.306   3.313   1.421
 4011SOL     OW12376   2.300   2.254   1.499
 4011SOL    HW112377   2.382   2.198   1.508
 4011SOL    HW212378   2.219   2.196   1.503
 4012SOL     OW12379   3.465   2.309   0.737
 4012SOL    HW112380   3.391   2.355   0.687
 4012SOL    HW212381   3.516   2.377   0.790
 4013SOL     OW12382   2.093   3.575   0.483
 4013SOL    HW112383   2.127   3.652   0.537
 4013SOL    HW212384   2.137   3.575   0.393
 4014SOL     OW12385   2.989   3.203   1.690
 4014SOL    HW112386   3.036   3.203   1.778
 4014SOL    HW212387   2.941   3.116   1.679
 4015SOL     OW12388   2.092   3.296   0.538
 4015SOL    HW112389   2.066   3.392   0.538
 4015SOL    HW212390   2.021   3.242   0.583
 4016SOL     OW12391   2.102   2.953   0.886
 4016SOL    HW112392   2.116   2.869   0.938
 4016SOL    HW212393   2.047   3.017   0.941
 4017SOL     OW12394   2.482   3.648   1.439
 4017SOL    HW112395   2.390   3.631   1.474
 4017SOL    HW212396   2.510   3.740   1.465
 4018SOL     OW12397   2.468   2.826   0.123
 4018SOL    HW112398   2.475   2.910   0.069
 4018SOL    HW212399   2.514   2.839   0.211
 4019SOL     OW12400   3.456   1.976   1.480
 4019SOL    HW112401   3.438   2.043   1.408
 4019SOL    HW212402   3.453   2.022   1.569
 4020SOL     OW12403   1.984   2.505   0.563
 4020SOL    HW112404   1.939   2.417   0.580
 4020SOL    HW212405   1.983   2.559   0.647
 4021SOL     OW12406   1.889   3.458   0.117
 4021SOL    HW112407   1.870   3.362   0.138
 4021SOL    HW212408   1.856   3.516   0.192
 4022SOL     OW12409   3.551   2.784   0.612
 4022SOL    HW112410   3.646   2.755   0.620
 4022SOL    HW212411   3.543   2.849   0.537
 4023SOL     OW12412   3.503   2.970   0.432
 4023SOL    HW112413   3.589   2.972   0.380
 4023SOL    HW212414   3.517   3.017   0.520
 4024SOL     OW12415   1.975   2.599   1.597
 4024SOL    HW112416   2.063   2.586   1.642
 4024SOL    HW212417   1.962   2.696   1.575
 4025SOL     OW12418   2.475   3.227   0.726
 4025SOL    HW112419   2.426   3.140   0.735
 4025SOL    HW212420   2.452   3.270   0.639
 4026SOL     OW12421   3.155   3.090   1.423
 4026SOL    HW112422   3.192   3.017   1.365
 4026SOL    HW212423   3.207   3.095   1.508
 4027SOL     OW12424   2.671   1.866   0.502
 4027SOL    HW112425   2.711   1.957   0.493
 4027SOL    HW212426   2.571   1.874   0.508
 4028SOL     OW12427   2.059   2.838   1.264
 4028SOL    HW112428   2.148   2.793   1.250
 4028SOL    HW212429   1.986   2.773   1.245
 4029SOL     OW12430   3.049   3.654   1.616
 4029SOL    HW112431   3.073   3.714   1.540
 4029SOL    HW212432   3.056   3.559   1.586
 4030SOL     OW12433   2.179   2.113   1.801
 4030SOL    HW112434   2.250   2.184   1.807
 4030SOL    HW212435   2.091   2.152   1.829
 4031SOL     OW12436   3.328   3.279   0.953
 4031SOL    HW112437   3.269   3.285   1.033
 4031SOL    HW212438   3.313   3.191   0.907
 4032SOL     OW12439   3.529   3.576   0.572
 4032SOL    HW112440   3.488   3.553   0.484
 4032SOL    HW212441   3.511   3.502   0.637
 4033SOL     OW12442   2.460   2.591   0.270
 4033SOL    HW112443   2.484   2.660   0.202
 4033SOL    HW212444   2.382   2.624   0.324
 4034SOL     OW12445   3.143   2.207   0.944
 4034SOL    HW112446   3.057   2.157   0.931
 4034SOL    HW212447   3.205   2.153   1.000
 4035SOL     OW12448   3.438   3.524   0.307
 4035SOL    HW112449   3.527   3.570   0.310
 4035SOL    HW212450   3.417   3.500   0.212
 4036SOL     OW12451   2.669   2.467   1.465
 4036SOL    HW112452   2.622   2.464   1.554
 4036SOL    HW212453   2.618   2.412   1.399
 4037SOL     OW12454   3.256   2.331   1.674
 4037SOL    HW112455   3.236   2.374   1.762
 4037SOL    HW212456   3.334   2.269   1.683
 4038SOL     OW12457   2.835   2.752   1.572
 4038SOL    HW112458   2.881   2.668   1.543
 4038SOL    HW212459   2.779   2.786   1.497
 4039SOL     OW12460   2.853   2.272   1.242
 4039SOL    HW112461   2.776   2.306   1.296
 4039SOL    HW212462   2.819   2.221   1.163
 4040SOL     OW12463   2.903   2.563   0.429
 4040SOL    HW112464   2.929   2.559   0.525
 4040SOL    HW212465   2.818   2.512   0.415
 4041SOL     OW12466   1.938   2.673   0.789
 4041SOL    HW112467   2.037   2.661   0.798
 4041SOL    HW212468   1.914   2.768   0.810
 4042SOL     OW12469   1.992   3.683   1.571
 4042SOL    HW112470   1.982   3.668   1.670
 4042SOL    HW212471   1.906   3.719   1.535
 4043SOL     OW12472   3.581   2.447   1.831
 4043SOL    HW112473   3.555   2.536   1.795
 4043SOL    HW212474   3.579   2.379   1.758
 4044SOL     OW12475   3.224   3.006   0.545
 4044SOL    HW112476   3.307   2.977   0.497
 4044SOL    HW212477   3.175   3.073   0.489
 4045SOL     OW12478   2.412   2.058   0.885
 4045SOL    HW112479   2.407   2.053   0.985
 4045SOL    HW212480   2.414   2.154   0.856
 4046SOL     OW12481   2.870   3.318   0.477
 4046SOL    HW112482   2.824   3.390   0.425
 4046SOL    HW212483   2.866   3.338   0.575
 4047SOL     OW12484   2.213   3.663   0.853
 4047SOL    HW112485   2.263   3.577   0.859
 4047SOL    HW212486   2.278   3.740   0.850
 4048SOL     OW12487   3.657   2.928   0.873
 4048SOL    HW112488   3.595   2.913   0.797
 4048SOL    HW212489   3.605   2.939   0.958
 4049SOL     OW12490   3.089   3.412   1.506
 4049SOL    HW112491   3.095   3.335   1.570
 4049SOL    HW212492   3.037   3.386   1.426
 4050SOL     OW12493   2.183   2.805   0.242
 4050SOL    HW112494   2.265   2.844   0.200
 4050SOL    HW212495   2.156   2.723   0.193
 4051SOL     OW12496   3.320   2.597   0.728
 4051SOL    HW112497   3.315   2.532   0.803
 4051SOL    HW212498   3.400   2.656   0.741
 4052SOL     OW12499   2.323   3.128   1.727
 4052SOL    HW112500   2.273   3.129   1.641
 4052SOL    HW212501   2.260   3.110   1.803
 4053SOL     OW12502   2.064   2.147   1.498
 4053SOL    HW112503   1.984   2.207   1.485
 4053SOL    HW212504   2.054   2.098   1.584
 4054SOL     OW12505   2.326   3.605   0.323
 4054SOL    HW112506   2.359   3.644   0.409
 4054SOL    HW212507   2.402   3.598   0.258
 4055SOL     OW12508   2.111   3.647   1.241
 4055SOL    HW112509   2.168   3.582   1.291
 4055SOL    HW212510   2.095   3.614   1.148
 4056SOL     OW12511   2.802   3.560   0.904
 4056SOL    HW112512   2.882   3.503   0.925
 4056SOL    HW212513   2.753   3.520   0.827
 4057SOL     OW12514   2.244   2.562   0.480
 4057SOL    HW112515   2.289   2.472   0.477
 4057SOL    HW212516   2.150   2.551   0.513
 4058SOL     OW12517   3.409   2.084   1.729
 4058SOL    HW112518   3.404   2.121   1.821
 4058SOL    HW212519   3.337   2.015   1.717
 4059SOL     OW12520   2.476   1.984   0.117
 4059SOL    HW112521   2.574   1.962   0.124
 4059SOL    HW212522   2.445   1.967   0.024
 4060SOL     OW12523   2.643   2.126   1.749
 4060SOL    HW112524   2.710   2.065   1.792
 4060SOL    HW212525   2.570   2.145   1.814
 4061SOL     OW12526   2.750   3.376   1.195
 4061SOL    HW112527   2.727   3.351   1.101
 4061SOL    HW212528   2.811   3.307   1.234
 4062SOL     OW12529   3.213   2.452   1.433
 4062SOL    HW112530   3.241   2.409   1.518
 4062SOL    HW212531   3.238   2.548   1.434
 4063SOL     OW12532   2.665   3.264   0.924
 4063SOL    HW112533   2.755   3.278   0.882
 4063SOL    HW212534   2.594   3.266   0.853
 4064SOL     OW12535   2.784   2.365   0.899
 4064SOL    HW112536   2.759   2.356   0.803
 4064SOL    HW212537   2.832   2.283   0.930
 4065SOL     OW12538   2.401   1.926   0.512
 4065SOL    HW112539   2.320   1.927   0.570
 4065SOL    HW212540   2.404   2.009   0.457
 4066SOL     OW12541   2.159   1.897   0.171
 4066SOL    HW112542   2.208   1.981   0.150
 4066SOL    HW212543   2.221   1.832   0.216
 4067SOL     OW12544   2.797   2.098   0.480
 4067SOL    HW112545   2.749   2.139   0.402
 4067SOL    HW212546   2.896   2.096   0.461
 4068SOL     OW12547   2.938   2.545   1.464
 4068SOL    HW112548   2.858   2.484   1.467
 4068SOL    HW212549   3.019   2.492   1.440
 4069SOL     OW12550   3.089   3.432   0.793
 4069SOL    HW112551   3.110   3.506   0.728
 4069SOL    HW212552   3.157   3.432   0.866
 4070SOL     OW12553   2.321   3.014   0.741
 4070SOL    HW112554   2.250   2.987   0.806
 4070SOL    HW212555   2.295   2.986   0.648
 4071SOL     OW12556   3.133   3.659   0.591
 4071SOL    HW112557   3.177   3.723   0.527
 4071SOL    HW212558   3.083   3.711   0.661
 4072SOL     OW12559   1.940   2.418   1.386
 4072SOL    HW112560   2.032   2.417   1.345
 4072SOL    HW212561   1.934   2.492   1.453
 4073SOL     OW12562   2.423   2.084   1.147
 4073SOL    HW112563   2.461   2.000   1.184
 4073SOL    HW212564   2.335   2.103   1.191
 4074SOL     OW12565   2.728   2.316   0.642
 4074SOL    HW112566   2.696   2.388   0.580
 4074SOL    HW212567   2.752   2.235   0.589
 4075SOL     OW12568   2.879   1.901   0.753
 4075SOL    HW112569   2.807   1.906   0.684
 4075SOL    HW212570   2.855   1.832   0.822
 4076SOL     OW12571   3.291   3.035   0.867
 4076SOL    HW112572   3.236   2.951   0.860
 4076SOL    HW212573   3.317   3.064   0.775
 4077SOL     OW12574   3.328   2.452   0.992
 4077SOL    HW112575   3.298   2.357   0.999
 4077SOL    HW212576   3.401   2.468   1.058
 4078SOL     OW12577   3.719   2.695   0.377
 4078SOL    HW112578   3.761   2.631   0.441
 4078SOL    HW212579   3.681   2.644   0.299
 4079SOL     OW12580   2.350   3.247   0.174
 4079SOL    HW112581   2.263   3.232   0.221
 4079SOL    HW212582   2.333   3.273   0.079
 4080SOL     OW12583   3.526   3.142   0.657
 4080SOL    HW112584   3.625   3.150   0.671
 4080SOL    HW212585   3.481   3.226   0.688
 4081SOL     OW12586   2.389   2.118   0.328
 4081SOL    HW112587   2.416   2.059   0.253
 4081SOL    HW212588   2.389   2.213   0.297
 4082SOL     OW12589   3.616   3.085   1.588
 4082SOL    HW112590   3.707   3.046   1.575
 4082SOL    HW212591   3.624   3.181   1.612
 4083SOL     OW12592   2.926   3.209   1.340
 4083SOL    HW112593   2.846   3.186   1.395
 4083SOL    HW212594   3.009   3.183   1.389
 4084SOL     OW12595   3.454   3.491   1.625
 4084SOL    HW112596   3.481   3.525   1.535
 4084SOL    HW212597   3.533   3.453   1.671
 4085SOL     OW12598   2.973   3.057   1.100
 4085SOL    HW112599   2.933   3.101   1.181
 4085SOL    HW212600   2.932   3.094   1.017
 4086SOL     OW12601   3.500   2.961   1.079
 4086SOL    HW112602   3.505   3.042   1.138
 4086SOL    HW212603   3.414   2.963   1.028
 4087SOL     OW12604   2.777   1.951   1.402
 4087SOL    HW112605   2.802   1.931   1.307
 4087SOL    HW212606   2.849   2.007   1.444
 4088SOL     OW12607   2.842   2.978   1.719
 4088SOL    HW112608   2.743   2.984   1.729
 4088SOL    HW212609   2.865   2.898   1.663
 4089SOL     OW12610   2.567   2.912   0.368
 4089SOL    HW112611   2.553   2.919   0.467
 4089SOL    HW212612   2.651   2.861   0.350
 4090SOL     OW12613   2.272   2.675   1.251
 4090SOL    HW112614   2.358   2.687   1.301
 4090SOL    HW212615   2.230   2.588   1.278
 4091SOL     OW12616   3.136   2.248   1.262
 4091SOL    HW112617   3.157   2.322   1.326
 4091SOL    HW212618   3.047   2.265   1.219
 4092SOL     OW12619   1.926   3.426   1.331
 4092SOL    HW112620   1.880   3.508   1.297
 4092SOL    HW212621   2.024   3.445   1.340
 4093SOL     OW12622   2.229   2.962   0.501
 4093SOL    HW112623   2.222   3.045   0.445
 4093SOL    HW212624   2.233   2.882   0.441
 4094SOL     OW12625   2.428   2.399   0.865
 4094SOL    HW112626   2.440   2.465   0.791
 4094SOL    HW212627   2.474   2.433   0.948
 4095SOL     OW12628   3.114   3.210   0.388
 4095SOL    HW112629   3.164   3.287   0.428
 4095SOL    HW212630   3.019   3.212   0.420
 4096SOL     OW12631   3.134   3.307   1.142
 4096SOL    HW112632   3.181   3.320   1.229
 4096SOL    HW212633   3.068   3.233   1.151
 4097SOL     OW12634   3.444   2.501   0.472
 4097SOL    HW112635   3.413   2.562   0.545
 4097SOL    HW212636   3.494   2.553   0.403
 4098SOL     OW12637   2.216   3.372   1.329
 4098SOL    HW112638   2.195   3.328   1.242
 4098SOL    HW212639   2.313   3.398   1.332
 4099SOL     OW12640   2.264   2.613   1.598
 4099SOL    HW112641   2.332   2.668   1.551
 4099SOL    HW212642   2.304   2.525   1.625
 4100SOL     OW12643   3.449   2.641   1.670
 4100SOL    HW112644   3.357   2.679   1.665
 4100SOL    HW212645   3.509   2.688   1.605
 4101SOL     OW12646   2.875   1.967   1.770
 4101SOL    HW112647   2.881   2.052   1.718
 4101SOL    HW212648   2.907   1.891   1.713
 4102SOL     OW12649   2.366   1.912   1.740
 4102SOL    HW112650   2.324   1.855   1.670
 4102SOL    HW212651   2.300   1.981   1.772
 4103SOL     OW12652   2.435   2.732   1.029
 4103SOL    HW112653   2.479   2.821   1.020
 4103SOL    HW212654   2.372   2.732   1.106
 4104SOL     OW12655   3.222   2.724   1.045
 4104SOL    HW112656   3.147   2.724   0.979
 4104SOL    HW212657   3.259   2.632   1.054
 4105SOL     OW12658   2.169   2.075   1.231
 4105SOL    HW112659   2.146   2.112   1.321
 4105SOL    HW212660   2.139   1.980   1.225
 4106SOL     OW12661   1.899   3.172   1.282
 4106SOL    HW112662   1.952   3.123   1.350
 4106SOL    HW212663   1.921   3.270   1.287
 4107SOL     OW12664   2.594   2.496   1.064
 4107SOL    HW112665   2.653   2.470   0.988
 4107SOL    HW212666   2.566   2.592   1.053
 4108SOL     OW12667   3.590   2.797   1.854
 4108SOL    HW112668   3.544   2.790   1.765
 4108SOL    HW212669   3.528   2.841   1.920
 4109SOL     OW12670   2.169   1.925   0.618
 4109SOL    HW112671   2.158   2.019   0.651
 4109SOL    HW212672   2.164   1.862   0.695
 4110SOL     OW12673   2.885   2.628   0.966
 4110SOL    HW112674   2.900   2.649   1.062
 4110SOL    HW212675   2.855   2.533   0.957
 4111SOL     OW12676   2.842   3.435   1.700
 4111SOL    HW112677   2.822   3.479   1.612
 4111SOL    HW212678   2.881   3.344   1.684
 4112SOL     OW12679   3.721   3.380   1.605
 4112SOL    HW112680   3.735   3.407   1.510
 4112SOL    HW212681   3.804   3.402   1.658
 4113SOL     OW12682   2.212   2.760   1.804
 4113SOL    HW112683   2.288   2.804   1.852
 4113SOL    HW212684   2.247   2.713   1.722
 4114SOL     OW12685   2.930   3.195   0.849
 4114SOL    HW112686   2.937   3.111   0.794
 4114SOL    HW212687   2.992   3.264   0.813
 4115SOL     OW12688   2.181   2.672   0.949
 4115SOL    HW112689   2.274   2.708   0.954
 4115SOL    HW212690   2.175   2.587   1.001
 4116SOL     OW12691   2.201   2.371   1.006
 4116SOL    HW112692   2.149   2.288   0.989
 4116SOL    HW212693   2.278   2.376   0.942
 4117SOL     OW12694   3.000   2.242   1.678
 4117SOL    HW112695   2.955   2.305   1.742
 4117SOL    HW212696   3.093   2.273   1.661
 4118SOL     OW12697   3.022   2.069   1.477
 4118SOL    HW112698   3.022   2.133   1.554
 4118SOL    HW212699   3.050   2.117   1.394
 4119SOL     OW12700   1.870   3.188   0.200
 4119SOL    HW112701   1.777   3.209   0.169
 4119SOL    HW212702   1.880   3.089   0.213
 4120SOL     OW12703   1.950   3.663   0.927
 4120SOL    HW112704   1.908   3.577   0.900
 4120SOL    HW212705   2.044   3.666   0.893
 4121SOL     OW12706   2.366   3.430   0.910
 4121SOL    HW112707   2.432   3.504   0.919
 4121SOL    HW212708   2.410   3.351   0.868
 4122SOL     OW12709   2.864   2.658   1.238
 4122SOL    HW112710   2.905   2.626   1.324
 4122SOL    HW212711   2.768   2.631   1.235
 4123SOL     OW12712   1.902   2.406   1.114
 4123SOL    HW112713   1.987   2.373   1.073
 4123SOL    HW212714   1.915   2.421   1.212
 4124SOL     OW12715   2.051   2.382   1.722
 4124SOL    HW112716   2.110   2.342   1.652
 4124SOL    HW212717   1.993   2.453   1.681
 4125SOL     OW12718   3.231   2.812   1.660
 4125SOL    HW112719   3.270   2.901   1.680
 4125SOL    HW212720   3.241   2.792   1.563
 4126SOL     OW12721   3.519   2.466   1.206
 4126SOL    HW112722   3.481   2.397   1.268
 4126SOL    HW212723   3.601   2.430   1.162
 4127SOL     OW12724   2.114   3.426   1.744
 4127SOL    HW112725   2.084   3.483   1.820
 4127SOL    HW212726   2.107   3.329   1.770
 4128SOL     OW12727   2.533   2.326   1.269
 4128SOL    HW112728   2.499   2.237   1.239
 4128SOL    HW212729   2.559   2.380   1.189
 4129SOL     OW12730   2.792   3.540   1.465
 4129SOL    HW112731   2.768   3.522   1.370
 4129SOL    HW212732   2.822   3.634   1.475
 4130SOL     OW12733   2.335   2.362   0.191
 4130SOL    HW112734   2.396   2.442   0.195
 4130SOL    HW212735   2.240   2.393   0.198
 4131SOL     OW12736   2.021   2.999   1.466
 4131SOL    HW112737   2.043   2.938   1.542
 4131SOL    HW212738   2.031   2.950   1.380
 4132SOL     OW12739   3.209   2.921   1.234
 4132SOL    HW112740   3.233   2.858   1.160
 4132SOL    HW212741   3.119   2.961   1.216
 4133SOL     OW12742   3.621   3.609   1.154
 4133SOL    HW112743   3.682   3.639   1.081
 4133SOL    HW212744   3.583   3.520   1.132
 4134SOL     OW12745   3.114   3.593   1.128
 4134SOL    HW112746   3.198   3.598   1.074
 4134SOL    HW212747   3.091   3.497   1.146
 4135SOL     OW12748   1.945   3.120   1.022
 4135SOL    HW112749   1.940   3.119   1.122
 4135SOL    HW212750   1.862   3.079   0.984
 4136SOL     OW12751   2.550   3.524   1.716
 4136SOL    HW112752   2.494   3.605   1.725
 4136SOL    HW212753   2.602   3.528   1.630
 4137SOL     OW12754   3.588   1.997   0.523
 4137SOL    HW112755   3.661   1.980   0.456
 4137SOL    HW212756   3.557   1.910   0.561
 4138SOL     OW12757   3.250   3.435   0.477
 4138SOL    HW112758   3.317   3.447   0.403
 4138SOL    HW212759   3.210   3.524   0.500
 4139SOL     OW12760   1.992   3.656   1.851
 4139SOL    HW112761   1.951   3.582   1.904
 4139SOL    HW212762   2.056   3.707   1.909
 4140SOL     OW12763   3.142   2.789   0.672
 4140SOL    HW112764   3.202   2.708   0.674
 4140SOL    HW212765   3.182   2.858   0.612
 4141SOL     OW12766   2.692   3.135   1.422
 4141SOL    HW112767   2.687   3.168   1.517
 4141SOL    HW212768   2.606   3.154   1.376
 4142SOL     OW12769   2.534   3.478   0.154
 4142SOL    HW112770   2.543   3.488   0.055
 4142SOL    HW212771   2.494   3.389   0.175
 4143SOL     OW12772   3.512   3.582   1.394
 4143SOL    HW112773   3.565   3.592   1.310
 4143SOL    HW212774   3.485   3.672   1.428
 4144SOL     OW12775   3.703   2.037   0.963
 4144SOL    HW112776   3.742   1.952   0.927
 4144SOL    HW212777   3.605   2.039   0.944
 4145SOL     OW12778   2.125   2.188   0.720
 4145SOL    HW112779   2.046   2.239   0.686
 4145SOL    HW212780   2.116   2.173   0.818
 4146SOL     OW12781   2.684   2.864   1.372
 4146SOL    HW112782   2.724   2.863   1.280
 4146SOL    HW212783   2.694   2.956   1.412
 4147SOL     OW12784   2.778   2.772   0.291
 4147SOL    HW112785   2.841   2.810   0.223
 4147SOL    HW212786   2.818   2.689   0.330
 4148SOL     OW12787   2.234   3.150   1.490
 4148SOL    HW112788   2.221   3.243   1.456
 4148SOL    HW212789   2.150   3.098   1.477
 4149SOL     OW12790   3.476   3.154   1.289
 4149SOL    HW112791   3.536   3.157   1.369
 4149SOL    HW212792   3.401   3.218   1.302
 4150SOL     OW12793   2.901   2.960   0.696
 4150SOL    HW112794   2.831   2.913   0.750
 4150SOL    HW212795   2.960   2.892   0.653
 4151SOL     OW12796   2.876   2.098   0.971
 4151SOL    HW112797   2.868   2.062   0.878
 4151SOL    HW212798   2.874   2.022   1.036
 4152SOL     OW12799   2.452   3.349   0.491
 4152SOL    HW112800   2.494   3.291   0.421
 4152SOL    HW212801   2.408   3.428   0.447
 4153SOL     OW12802   3.571   2.247   1.381
 4153SOL    HW112803   3.644   2.316   1.385
 4153SOL    HW212804   3.599   2.172   1.322
 4154SOL     OW12805   2.117   3.210   0.290
 4154SOL    HW112806   2.021   3.211   0.263
 4154SOL    HW212807   2.129   3.263   0.374
 4155SOL     OW12808   1.967   2.875   1.726
 4155SOL    HW112809   1.890   2.842   1.780
 4155SOL    HW212810   2.052   2.845   1.768
 4156SOL     OW12811   2.534   2.065   1.489
 4156SOL    HW112812   2.624   2.049   1.449
 4156SOL    HW212813   2.542   2.070   1.588
 4157SOL     OW12814   1.937   2.207   0.033
 4157SOL    HW112815   1.845   2.179   0.004
 4157SOL    HW212816   1.968   2.284  -0.023
 4158SOL     OW12817   3.302   2.718   1.398
 4158SOL    HW112818   3.245   2.770   1.335
 4158SOL    HW212819   3.398   2.730   1.374
 4159SOL     OW12820   1.934   2.028   0.318
 4159SOL    HW112821   1.917   2.111   0.264
 4159SOL    HW212822   2.024   1.991   0.296
 4160SOL     OW12823   2.475   2.704   1.431
 4160SOL    HW112824   2.531   2.785   1.414
 4160SOL    HW212825   2.534   2.624   1.434
 4161SOL     OW12826   3.355   3.629   0.959
 4161SOL    HW112827   3.388   3.693   0.890
 4161SOL    HW212828   3.421   3.623   1.034
 4162SOL     OW12829   2.578   2.427   1.708
 4162SOL    HW112830   2.597   2.492   1.782
 4162SOL    HW212831   2.638   2.347   1.717
 4163SOL     OW12832   3.312   3.082   1.633
 4163SOL    HW112833   3.303   3.072   1.732
 4163SOL    HW212834   3.408   3.075   1.607
 4164SOL     OW12835   2.252   3.603   1.560
 4164SOL    HW112836   2.161   3.644   1.558
 4164SOL    HW212837   2.245   3.509   1.592
 4165SOL     OW12838   3.536   2.745   1.254
 4165SOL    HW112839   3.509   2.656   1.217
 4165SOL    HW212840   3.537   2.813   1.181
 4166SOL     OW12841   2.456   2.607   0.652
 4166SOL    HW112842   2.506   2.692   0.633
 4166SOL    HW212843   2.368   2.609   0.604
 4167SOL     OW12844   3.639   2.204   1.642
 4167SOL    HW112845   3.622   2.235   1.548
 4167SOL    HW212846   3.555   2.167   1.680
 4168SOL     OW12847   3.592   2.796   1.517
 4168SOL    HW112848   3.630   2.887   1.532
 4168SOL    HW212849   3.584   2.779   1.418
 4169SOL     OW12850   2.721   3.236   0.016
 4169SOL    HW112851   2.675   3.251   0.104
 4169SOL    HW212852   2.765   3.321  -0.014
 4170SOL     OW12853   2.721   2.818   0.861
 4170SOL    HW112854   2.775   2.749   0.909
 4170SOL    HW212855   2.689   2.887   0.927
 4171SOL     OW12856   3.723   3.431   0.851
 4171SOL    HW112857   3.652   3.419   0.781
 4171SOL    HW212858   3.724   3.352   0.911
 4172SOL     OW12859   2.083   3.176   1.844
 4172SOL    HW112860   2.018   3.103   1.823
 4172SOL    HW212861   2.087   3.190   1.942
 4173SOL     OW12862   1.941   3.102   0.653
 4173SOL    HW112863   1.940   3.055   0.741
 4173SOL    HW212864   2.023   3.074   0.602
 4174SOL     OW12865   2.534   3.253   1.624
 4174SOL    HW112866   2.456   3.203   1.662
 4174SOL    HW212867   2.531   3.348   1.655
 4175SOL     OW12868   3.686   2.054   1.227
 4175SOL    HW112869   3.682   1.964   1.271
 4175SOL    HW212870   3.689   2.043   1.128
 4176SOL     OW12871   2.290   2.286   0.520
 4176SOL    HW112872   2.320   2.214   0.458
 4176SOL    HW212873   2.251   2.246   0.603
 4177SOL     OW12874   3.567   3.349   1.104
 4177SOL    HW112875   3.474   3.324   1.077
 4177SOL    HW212876   3.593   3.299   1.186
 4178SOL     OW12877   2.179   2.409   1.280
 4178SOL    HW112878   2.217   2.350   1.352
 4178SOL    HW212879   2.219   2.383   1.192
 4179SOL     OW12880   2.674   3.448   0.687
 4179SOL    HW112881   2.706   3.458   0.593
 4179SOL    HW212882   2.595   3.386   0.689
 4180SOL     OW12883   3.286   2.076   1.112
 4180SOL    HW112884   3.338   2.011   1.167
 4180SOL    HW212885   3.237   2.139   1.173
 4181SOL     OW12886   2.863   1.896   1.154
 4181SOL    HW112887   2.800   1.824   1.123
 4181SOL    HW212888   2.956   1.860   1.154
 4182SOL     OW12889   2.632   3.192   0.301
 4182SOL    HW112890   2.586   3.105   0.318
 4182SOL    HW212891   2.723   3.189   0.342
 4183SOL     OW12892   2.480   3.429   1.284
 4183SOL    HW112893   2.475   3.511   1.341
 4183SOL    HW212894   2.569   3.426   1.239
 4184SOL     OW12895   3.162   2.315   0.691
 4184SOL    HW112896   3.103   2.395   0.695
 4184SOL    HW212897   3.177   2.280   0.784
 4185SOL     OW12898   3.455   2.083   0.882
 4185SOL    HW112899   3.371   2.082   0.936
 4185SOL    HW212900   3.457   2.166   0.826
 4186SOL     OW12901   1.901   2.939   0.300
 4186SOL    HW112902   2.000   2.928   0.291
 4186SOL    HW212903   1.861   2.853   0.332
 4187SOL     OW12904   2.737   3.508   0.337
 4187SOL    HW112905   2.660   3.473   0.283
 4187SOL    HW212906   2.705   3.579   0.399
 4188SOL     OW12907   2.092   2.490   1.975
 4188SOL    HW112908   1.999   2.488   2.012
 4188SOL    HW212909   2.093   2.451   1.883
 4189SOL     OW12910   2.087   2.137   2.858
 4189SOL    HW112911   2.122   2.120   2.950
 4189SOL    HW212912   1.999   2.092   2.846
 4190SOL     OW12913   1.881   2.230   2.509
 4190SOL    HW112914   1.799   2.273   2.548
 4190SOL    HW212915   1.853   2.157   2.446
 4191SOL     OW12916   2.431   3.137   3.027
 4191SOL    HW112917   2.338   3.130   2.990
 4191SOL    HW212918   2.442   3.226   3.071
 4192SOL     OW12919   3.417   3.373   2.565
 4192SOL    HW112920   3.360   3.357   2.646
 4192SOL    HW212921   3.358   3.383   2.485
 4193SOL     OW12922   2.997   2.565   2.579
 4193SOL    HW112923   3.054   2.643   2.554
 4193SOL    HW212924   2.937   2.591   2.655
 4194SOL     OW12925   3.617   2.469   2.093
 4194SOL    HW112926   3.605   2.456   1.994
 4194SOL    HW212927   3.587   2.388   2.142
 4195SOL     OW12928   2.630   3.006   2.885
 4195SOL    HW112929   2.552   3.023   2.945
 4195SOL    HW212930   2.664   3.093   2.849
 4196SOL     OW12931   2.712   2.660   3.685
 4196SOL    HW112932   2.708   2.736   3.750
 4196SOL    HW212933   2.734   2.696   3.594
 4197SOL     OW12934   2.547   2.874   2.527
 4197SOL    HW112935   2.616   2.858   2.597
 4197SOL    HW212936   2.474   2.931   2.565
 4198SOL     OW12937   2.548   3.023   3.665
 4198SOL    HW112938   2.608   3.102   3.679
 4198SOL    HW212939   2.462   3.054   3.624
 4199SOL     OW12940   2.197   3.297   2.923
 4199SOL    HW112941   2.119   3.266   2.870
 4199SOL    HW212942   2.255   3.355   2.866
 4200SOL     OW12943   3.322   3.367   3.201
 4200SOL    HW112944   3.346   3.461   3.227
 4200SOL    HW212945   3.306   3.313   3.283
 4201SOL     OW12946   2.300   2.254   3.361
 4201SOL    HW112947   2.382   2.198   3.370
 4201SOL    HW212948   2.219   2.196   3.365
 4202SOL     OW12949   3.465   2.309   2.599
 4202SOL    HW112950   3.391   2.355   2.549
 4202SOL    HW212951   3.516   2.377   2.652
 4203SOL     OW12952   2.093   3.575   2.345
 4203SOL    HW112953   2.127   3.652   2.399
 4203SOL    HW212954   2.137   3.575   2.255
 4204SOL     OW12955   2.989   3.203   3.552
 4204SOL    HW112956   3.036   3.203   3.640
 4204SOL    HW212957   2.941   3.116   3.541
 4205SOL     OW12958   2.092   3.296   2.400
 4205SOL    HW112959   2.066   3.392   2.400
 4205SOL    HW212960   2.021   3.242   2.445
 4206SOL     OW12961   2.102   2.953   2.748
 4206SOL    HW112962   2.116   2.869   2.800
 4206SOL    HW212963   2.047   3.017   2.803
 4207SOL     OW12964   2.482   3.648   3.301
 4207SOL    HW112965   2.390   3.631   3.336
 4207SOL    HW212966   2.510   3.740   3.327
 4208SOL     OW12967   2.468   2.826   1.985
 4208SOL    HW112968   2.475   2.910   1.931
 4208SOL    HW212969   2.514   2.839   2.073
 4209SOL     OW12970   3.456   1.976   3.342
 4209SOL    HW112971   3.438   2.043   3.270
 4209SOL    HW212972   3.453   2.022   3.431
 4210SOL     OW12973   1.984   2.505   2.425
 4210SOL    HW112974   1.939   2.417   2.442
 4210SOL    HW212975   1.983   2.559   2.509
 4211SOL     OW12976   3.704   3.629   2.221
 4211SOL    HW112977   3.758   3.600   2.301
 4211SOL    HW212978   3.734   3.719   2.192
 4212SOL     OW12979   1.889   3.458   1.979
 4212SOL    HW112980   1.870   3.362   2.000
 4212SOL    HW212981   1.856   3.516   2.054
 4213SOL     OW12982   3.551   2.784   2.474
 4213SOL    HW112983   3.646   2.755   2.482
 4213SOL    HW212984   3.543   2.849   2.399
 4214SOL     OW12985   3.503   2.970   2.294
 4214SOL    HW112986   3.589   2.972   2.242
 4214SOL    HW212987   3.517   3.017   2.382
 4215SOL     OW12988   1.975   2.599   3.459
 4215SOL    HW112989   2.063   2.586   3.504
 4215SOL    HW212990   1.962   2.696   3.437
 4216SOL     OW12991   2.475   3.227   2.588
 4216SOL    HW112992   2.426   3.140   2.597
 4216SOL    HW212993   2.452   3.270   2.501
 4217SOL     OW12994   3.155   3.090   3.285
 4217SOL    HW112995   3.192   3.017   3.227
 4217SOL    HW212996   3.207   3.095   3.370
 4218SOL     OW12997   2.671   1.866   2.364
 4218SOL    HW112998   2.711   1.957   2.355
 4218SOL    HW212999   2.571   1.874   2.370
 4219SOL     OW13000   2.059   2.838   3.126
 4219SOL    HW113001   2.148   2.793   3.112
 4219SOL    HW213002   1.986   2.773   3.107
 4220SOL     OW13003   3.387   2.861   2.052
 4220SOL    HW113004   3.324   2.785   2.065
 4220SOL    HW213005   3.435   2.879   2.138
 4221SOL     OW13006   3.049   3.654   3.478
 4221SOL    HW113007   3.073   3.714   3.402
 4221SOL    HW213008   3.056   3.559   3.448
 4222SOL     OW13009   2.179   2.113   3.663
 4222SOL    HW113010   2.250   2.184   3.669
 4222SOL    HW213011   2.091   2.152   3.691
 4223SOL     OW13012   3.328   3.279   2.815
 4223SOL    HW113013   3.269   3.285   2.895
 4223SOL    HW213014   3.313   3.191   2.769
 4224SOL     OW13015   3.529   3.576   2.434
 4224SOL    HW113016   3.488   3.553   2.346
 4224SOL    HW213017   3.511   3.502   2.499
 4225SOL     OW13018   2.460   2.591   2.132
 4225SOL    HW113019   2.484   2.660   2.064
 4225SOL    HW213020   2.382   2.624   2.186
 4226SOL     OW13021   3.143   2.207   2.806
 4226SOL    HW113022   3.057   2.157   2.793
 4226SOL    HW213023   3.205   2.153   2.862
 4227SOL     OW13024   3.438   3.524   2.169
 4227SOL    HW113025   3.527   3.570   2.172
 4227SOL    HW213026   3.417   3.500   2.074
 4228SOL     OW13027   2.669   2.467   3.327
 4228SOL    HW113028   2.622   2.464   3.416
 4228SOL    HW213029   2.618   2.412   3.261
 4229SOL     OW13030   3.256   2.331   3.536
 4229SOL    HW113031   3.236   2.374   3.624
 4229SOL    HW213032   3.334   2.269   3.545
 4230SOL     OW13033   2.835   2.752   3.434
 4230SOL    HW113034   2.881   2.668   3.405
 4230SOL    HW213035   2.779   2.786   3.359
 4231SOL     OW13036   2.853   2.272   3.104
 4231SOL    HW113037   2.776   2.306   3.158
 4231SOL    HW213038   2.819   2.221   3.025
 4232SOL     OW13039   2.903   2.563   2.291
 4232SOL    HW113040   2.929   2.559   2.387
 4232SOL    HW213041   2.818   2.512   2.277
 4233SOL     OW13042   1.938   2.673   2.651
 4233SOL    HW113043   2.037   2.661   2.660
 4233SOL    HW213044   1.914   2.768   2.672
 4234SOL     OW13045   1.992   3.683   3.433
 4234SOL    HW113046   1.982   3.668   3.532
 4234SOL    HW213047   1.906   3.719   3.397
 4235SOL     OW13048   2.727   2.210   2.057
 4235SOL    HW113049   2.786   2.273   2.008
 4235SOL    HW213050   2.746   2.116   2.028
 4236SOL     OW13051   3.581   2.447   3.693
 4236SOL    HW113052   3.555   2.536   3.657
 4236SOL    HW213053   3.579   2.379   3.620
 4237SOL     OW13054   3.224   3.006   2.407
 4237SOL    HW113055   3.307   2.977   2.359
 4237SOL    HW213056   3.175   3.073   2.351
 4238SOL     OW13057   2.412   2.058   2.747
 4238SOL    HW113058   2.407   2.053   2.847
 4238SOL    HW213059   2.414   2.154   2.718
 4239SOL     OW13060   2.870   3.318   2.339
 4239SOL    HW113061   2.824   3.390   2.287
 4239SOL    HW213062   2.866   3.338   2.437
 4240SOL     OW13063   2.213   3.663   2.715
 4240SOL    HW113064   2.263   3.577   2.721
 4240SOL    HW213065   2.278   3.740   2.712
 4241SOL     OW13066   3.657   2.928   2.735
 4241SOL    HW113067   3.595   2.913   2.659
 4241SOL    HW213068   3.605   2.939   2.820
 4242SOL     OW13069   3.089   3.412   3.368
 4242SOL    HW113070   3.095   3.335   3.432
 4242SOL    HW213071   3.037   3.386   3.288
 4243SOL     OW13072   2.183   2.805   2.104
 4243SOL    HW113073   2.265   2.844   2.062
 4243SOL    HW213074   2.156   2.723   2.055
 4244SOL     OW13075   3.320   2.597   2.590
 4244SOL    HW113076   3.315   2.532   2.665
 4244SOL    HW213077   3.400   2.656   2.603
 4245SOL     OW13078   2.323   3.128   3.589
 4245SOL    HW113079   2.273   3.129   3.503
 4245SOL    HW213080   2.260   3.110   3.665
 4246SOL     OW13081   2.973   3.638   2.099
 4246SOL    HW113082   2.913   3.576   2.149
 4246SOL    HW213083   3.004   3.594   2.014
 4247SOL     OW13084   2.064   2.147   3.360
 4247SOL    HW113085   1.984   2.207   3.347
 4247SOL    HW213086   2.054   2.098   3.446
 4248SOL     OW13087   3.494   3.239   1.943
 4248SOL    HW113088   3.462   3.333   1.933
 4248SOL    HW213089   3.418   3.176   1.931
 4249SOL     OW13090   2.326   3.605   2.185
 4249SOL    HW113091   2.359   3.644   2.271
 4249SOL    HW213092   2.402   3.598   2.120
 4250SOL     OW13093   3.262   1.969   2.288
 4250SOL    HW113094   3.238   1.932   2.198
 4250SOL    HW213095   3.361   1.985   2.292
 4251SOL     OW13096   2.111   3.647   3.103
 4251SOL    HW113097   2.168   3.582   3.153
 4251SOL    HW213098   2.095   3.614   3.010
 4252SOL     OW13099   2.802   3.560   2.766
 4252SOL    HW113100   2.882   3.503   2.787
 4252SOL    HW213101   2.753   3.520   2.689
 4253SOL     OW13102   2.244   2.562   2.342
 4253SOL    HW113103   2.289   2.472   2.339
 4253SOL    HW213104   2.150   2.551   2.375
 4254SOL     OW13105   3.409   2.084   3.591
 4254SOL    HW113106   3.404   2.121   3.683
 4254SOL    HW213107   3.337   2.015   3.579
 4255SOL     OW13108   2.476   1.984   1.979
 4255SOL    HW113109   2.574   1.962   1.986
 4255SOL    HW213110   2.445   1.967   1.886
 4256SOL     OW13111   2.643   2.126   3.611
 4256SOL    HW113112   2.710   2.065   3.654
 4256SOL    HW213113   2.570   2.145   3.676
 4257SOL     OW13114   2.750   3.376   3.057
 4257SOL    HW113115   2.727   3.351   2.963
 4257SOL    HW213116   2.811   3.307   3.096
 4258SOL     OW13117   3.213   2.452   3.295
 4258SOL    HW113118   3.241   2.409   3.380
 4258SOL    HW213119   3.238   2.548   3.296
 4259SOL     OW13120   2.665   3.264   2.786
 4259SOL    HW113121   2.755   3.278   2.744
 4259SOL    HW213122   2.594   3.266   2.715
 4260SOL     OW13123   2.784   2.365   2.761
 4260SOL    HW113124   2.759   2.356   2.665
 4260SOL    HW213125   2.832   2.283   2.792
 4261SOL     OW13126   2.401   1.926   2.374
 4261SOL    HW113127   2.320   1.927   2.432
 4261SOL    HW213128   2.404   2.009   2.319
 4262SOL     OW13129   3.296   3.050   1.903
 4262SOL    HW113130   3.328   2.974   1.960
 4262SOL    HW213131   3.204   3.077   1.933
 4263SOL     OW13132   2.159   1.897   2.033
 4263SOL    HW113133   2.208   1.981   2.012
 4263SOL    HW213134   2.221   1.832   2.078
 4264SOL     OW13135   2.797   2.098   2.342
 4264SOL    HW113136   2.749   2.139   2.264
 4264SOL    HW213137   2.896   2.096   2.323
 4265SOL     OW13138   2.938   2.545   3.326
 4265SOL    HW113139   2.858   2.484   3.329
 4265SOL    HW213140   3.019   2.492   3.302
 4266SOL     OW13141   3.089   3.432   2.655
 4266SOL    HW113142   3.110   3.506   2.590
 4266SOL    HW213143   3.157   3.432   2.728
 4267SOL     OW13144   2.321   3.014   2.603
 4267SOL    HW113145   2.250   2.987   2.668
 4267SOL    HW213146   2.295   2.986   2.510
 4268SOL     OW13147   3.133   3.659   2.453
 4268SOL    HW113148   3.177   3.723   2.389
 4268SOL    HW213149   3.083   3.711   2.523
 4269SOL     OW13150   2.894   2.411   1.878
 4269SOL    HW113151   2.853   2.493   1.839
 4269SOL    HW213152   2.958   2.437   1.951
 4270SOL     OW13153   1.940   2.418   3.248
 4270SOL    HW113154   2.032   2.417   3.207
 4270SOL    HW213155   1.934   2.492   3.315
 4271SOL     OW13156   2.423   2.084   3.009
 4271SOL    HW113157   2.461   2.000   3.046
 4271SOL    HW213158   2.335   2.103   3.053
 4272SOL     OW13159   2.728   2.316   2.504
 4272SOL    HW113160   2.696   2.388   2.442
 4272SOL    HW213161   2.752   2.235   2.451
 4273SOL     OW13162   2.879   1.901   2.615
 4273SOL    HW113163   2.807   1.906   2.546
 4273SOL    HW213164   2.855   1.832   2.684
 4274SOL     OW13165   3.291   3.035   2.729
 4274SOL    HW113166   3.236   2.951   2.722
 4274SOL    HW213167   3.317   3.064   2.637
 4275SOL     OW13168   3.328   2.452   2.854
 4275SOL    HW113169   3.298   2.357   2.861
 4275SOL    HW213170   3.401   2.468   2.920
 4276SOL     OW13171   3.719   2.695   2.239
 4276SOL    HW113172   3.761   2.631   2.303
 4276SOL    HW213173   3.681   2.644   2.161
 4277SOL     OW13174   2.350   3.247   2.036
 4277SOL    HW113175   2.263   3.232   2.083
 4277SOL    HW213176   2.333   3.273   1.941
 4278SOL     OW13177   3.526   3.142   2.519
 4278SOL    HW113178   3.625   3.150   2.533
 4278SOL    HW213179   3.481   3.226   2.550
 4279SOL     OW13180   3.252   2.437   1.940
 4279SOL    HW113181   3.198   2.416   2.021
 4279SOL    HW213182   3.343   2.396   1.949
 4280SOL     OW13183   2.389   2.118   2.190
 4280SOL    HW113184   2.416   2.059   2.115
 4280SOL    HW213185   2.389   2.213   2.159
 4281SOL     OW13186   3.616   3.085   3.450
 4281SOL    HW113187   3.707   3.046   3.437
 4281SOL    HW213188   3.624   3.181   3.474
 4282SOL     OW13189   2.926   3.209   3.202
 4282SOL    HW113190   2.846   3.186   3.257
 4282SOL    HW213191   3.009   3.183   3.251
 4283SOL     OW13192   3.454   3.491   3.487
 4283SOL    HW113193   3.481   3.525   3.397
 4283SOL    HW213194   3.533   3.453   3.533
 4284SOL     OW13195   2.973   3.057   2.962
 4284SOL    HW113196   2.933   3.101   3.043
 4284SOL    HW213197   2.932   3.094   2.879
 4285SOL     OW13198   3.500   2.961   2.941
 4285SOL    HW113199   3.505   3.042   3.000
 4285SOL    HW213200   3.414   2.963   2.890
 4286SOL     OW13201   2.777   1.951   3.264
 4286SOL    HW113202   2.802   1.931   3.169
 4286SOL    HW213203   2.849   2.007   3.306
 4287SOL     OW13204   2.842   2.978   3.581
 4287SOL    HW113205   2.743   2.984   3.591
 4287SOL    HW213206   2.865   2.898   3.525
 4288SOL     OW13207   2.567   2.912   2.230
 4288SOL    HW113208   2.553   2.919   2.329
 4288SOL    HW213209   2.651   2.861   2.212
 4289SOL     OW13210   2.272   2.675   3.113
 4289SOL    HW113211   2.358   2.687   3.163
 4289SOL    HW213212   2.230   2.588   3.140
 4290SOL     OW13213   3.136   2.248   3.124
 4290SOL    HW113214   3.157   2.322   3.188
 4290SOL    HW213215   3.047   2.265   3.081
 4291SOL     OW13216   1.926   3.426   3.193
 4291SOL    HW113217   1.880   3.508   3.159
 4291SOL    HW213218   2.024   3.445   3.202
 4292SOL     OW13219   2.229   2.962   2.363
 4292SOL    HW113220   2.222   3.045   2.307
 4292SOL    HW213221   2.233   2.882   2.303
 4293SOL     OW13222   2.428   2.399   2.727
 4293SOL    HW113223   2.440   2.465   2.653
 4293SOL    HW213224   2.474   2.433   2.810
 4294SOL     OW13225   3.114   3.210   2.250
 4294SOL    HW113226   3.164   3.287   2.290
 4294SOL    HW213227   3.019   3.212   2.282
 4295SOL     OW13228   3.134   3.307   3.004
 4295SOL    HW113229   3.181   3.320   3.091
 4295SOL    HW213230   3.068   3.233   3.013
 4296SOL     OW13231   3.444   2.501   2.334
 4296SOL    HW113232   3.413   2.562   2.407
 4296SOL    HW213233   3.494   2.553   2.265
 4297SOL     OW13234   2.216   3.372   3.191
 4297SOL    HW113235   2.195   3.328   3.104
 4297SOL    HW213236   2.313   3.398   3.194
 4298SOL     OW13237   2.264   2.613   3.460
 4298SOL    HW113238   2.332   2.668   3.413
 4298SOL    HW213239   2.304   2.525   3.487
 4299SOL     OW13240   3.449   2.641   3.532
 4299SOL    HW113241   3.357   2.679   3.527
 4299SOL    HW213242   3.509   2.688   3.467
 4300SOL     OW13243   2.875   1.967   3.632
 4300SOL    HW113244   2.881   2.052   3.580
 4300SOL    HW213245   2.907   1.891   3.575
 4301SOL     OW13246   2.366   1.912   3.602
 4301SOL    HW113247   2.324   1.855   3.532
 4301SOL    HW213248   2.300   1.981   3.634
 4302SOL     OW13249   2.435   2.732   2.891
 4302SOL    HW113250   2.479   2.821   2.882
 4302SOL    HW213251   2.372   2.732   2.968
 4303SOL     OW13252   3.222   2.724   2.907
 4303SOL    HW113253   3.147   2.724   2.841
 4303SOL    HW213254   3.259   2.632   2.916
 4304SOL     OW13255   3.071   2.387   2.137
 4304SOL    HW113256   3.084   2.303   2.191
 4304SOL    HW213257   3.042   2.461   2.197
 4305SOL     OW13258   2.169   2.075   3.093
 4305SOL    HW113259   2.146   2.112   3.183
 4305SOL    HW213260   2.139   1.980   3.087
 4306SOL     OW13261   1.899   3.172   3.144
 4306SOL    HW113262   1.952   3.123   3.212
 4306SOL    HW213263   1.921   3.270   3.149
 4307SOL     OW13264   2.594   2.496   2.926
 4307SOL    HW113265   2.653   2.470   2.850
 4307SOL    HW213266   2.566   2.592   2.915
 4308SOL     OW13267   3.590   2.797   3.716
 4308SOL    HW113268   3.544   2.790   3.627
 4308SOL    HW213269   3.528   2.841   3.782
 4309SOL     OW13270   2.169   1.925   2.480
 4309SOL    HW113271   2.158   2.019   2.513
 4309SOL    HW213272   2.164   1.862   2.557
 4310SOL     OW13273   3.484   2.229   2.236
 4310SOL    HW113274   3.486   2.153   2.300
 4310SOL    HW213275   3.436   2.306   2.276
 4311SOL     OW13276   2.885   2.628   2.828
 4311SOL    HW113277   2.900   2.649   2.924
 4311SOL    HW213278   2.855   2.533   2.819
 4312SOL     OW13279   2.842   3.435   3.562
 4312SOL    HW113280   2.822   3.479   3.474
 4312SOL    HW213281   2.881   3.344   3.546
 4313SOL     OW13282   3.721   3.380   3.467
 4313SOL    HW113283   3.735   3.407   3.372
 4313SOL    HW213284   3.804   3.402   3.520
 4314SOL     OW13285   2.212   2.760   3.666
 4314SOL    HW113286   2.288   2.804   3.714
 4314SOL    HW213287   2.247   2.713   3.584
 4315SOL     OW13288   3.402   2.136   1.987
 4315SOL    HW113289   3.341   2.061   2.010
 4315SOL    HW213290   3.424   2.188   2.070
 4316SOL     OW13291   3.165   2.700   1.904
 4316SOL    HW113292   3.199   2.607   1.919
 4316SOL    HW213293   3.183   2.727   1.809
 4317SOL     OW13294   2.930   3.195   2.711
 4317SOL    HW113295   2.937   3.111   2.656
 4317SOL    HW213296   2.992   3.264   2.675
 4318SOL     OW13297   2.181   2.672   2.811
 4318SOL    HW113298   2.274   2.708   2.816
 4318SOL    HW213299   2.175   2.587   2.863
 4319SOL     OW13300   2.201   2.371   2.868
 4319SOL    HW113301   2.149   2.288   2.851
 4319SOL    HW213302   2.278   2.376   2.804
 4320SOL     OW13303   3.000   2.242   3.540
 4320SOL    HW113304   2.955   2.305   3.604
 4320SOL    HW213305   3.093   2.273   3.523
 4321SOL     OW13306   3.022   2.069   3.339
 4321SOL    HW113307   3.022   2.133   3.416
 4321SOL    HW213308   3.050   2.117   3.256
 4322SOL     OW13309   1.870   3.188   2.062
 4322SOL    HW113310   1.777   3.209   2.031
 4322SOL    HW213311   1.880   3.089   2.075
 4323SOL     OW13312   1.950   3.663   2.789
 4323SOL    HW113313   1.908   3.577   2.762
 4323SOL    HW213314   2.044   3.666   2.755
 4324SOL     OW13315   2.366   3.430   2.772
 4324SOL    HW113316   2.432   3.504   2.781
 4324SOL    HW213317   2.410   3.351   2.730
 4325SOL     OW13318   2.864   2.658   3.100
 4325SOL    HW113319   2.905   2.626   3.186
 4325SOL    HW213320   2.768   2.631   3.097
 4326SOL     OW13321   1.902   2.406   2.976
 4326SOL    HW113322   1.987   2.373   2.935
 4326SOL    HW213323   1.915   2.421   3.074
 4327SOL     OW13324   2.051   2.382   3.584
 4327SOL    HW113325   2.110   2.342   3.514
 4327SOL    HW213326   1.993   2.453   3.543
 4328SOL     OW13327   3.231   2.812   3.522
 4328SOL    HW113328   3.270   2.901   3.542
 4328SOL    HW213329   3.241   2.792   3.425
 4329SOL     OW13330   2.677   2.434   2.187
 4329SOL    HW113331   2.684   2.345   2.141
 4329SOL    HW213332   2.583   2.468   2.179
 4330SOL     OW13333   3.519   2.466   3.068
 4330SOL    HW113334   3.481   2.397   3.130
 4330SOL    HW213335   3.601   2.430   3.024
 4331SOL     OW13336   2.114   3.426   3.606
 4331SOL    HW113337   2.084   3.483   3.682
 4331SOL    HW213338   2.107   3.329   3.632
 4332SOL     OW13339   2.533   2.326   3.131
 4332SOL    HW113340   2.499   2.237   3.101
 4332SOL    HW213341   2.559   2.380   3.051
 4333SOL     OW13342   2.792   3.540   3.327
 4333SOL    HW113343   2.768   3.522   3.232
 4333SOL    HW213344   2.822   3.634   3.337
 4334SOL     OW13345   2.335   2.362   2.053
 4334SOL    HW113346   2.396   2.442   2.057
 4334SOL    HW213347   2.240   2.393   2.060
 4335SOL     OW13348   2.021   2.999   3.328
 4335SOL    HW113349   2.043   2.938   3.404
 4335SOL    HW213350   2.031   2.950   3.242
 4336SOL     OW13351   3.209   2.921   3.096
 4336SOL    HW113352   3.233   2.858   3.022
 4336SOL    HW213353   3.119   2.961   3.078
 4337SOL     OW13354   3.164   2.717   2.171
 4337SOL    HW113355   3.078   2.686   2.213
 4337SOL    HW213356   3.160   2.703   2.072
 4338SOL     OW13357   3.621   3.609   3.016
 4338SOL    HW113358   3.682   3.639   2.943
 4338SOL    HW213359   3.583   3.520   2.994
 4339SOL     OW13360   3.114   3.593   2.990
 4339SOL    HW113361   3.198   3.598   2.936
 4339SOL    HW213362   3.091   3.497   3.008
 4340SOL     OW13363   1.945   3.120   2.884
 4340SOL    HW113364   1.940   3.119   2.984
 4340SOL    HW213365   1.862   3.079   2.846
 4341SOL     OW13366   2.550   3.524   3.578
 4341SOL    HW113367   2.494   3.605   3.587
 4341SOL    HW213368   2.602   3.528   3.492
 4342SOL     OW13369   3.588   1.997   2.385
 4342SOL    HW113370   3.661   1.980   2.318
 4342SOL    HW213371   3.557   1.910   2.423
 4343SOL     OW13372   3.250   3.435   2.339
 4343SOL    HW113373   3.317   3.447   2.265
 4343SOL    HW213374   3.210   3.524   2.362
 4344SOL     OW13375   1.992   3.656   3.713
 4344SOL    HW113376   1.951   3.582   3.766
 4344SOL    HW213377   2.056   3.707   3.771
 4345SOL     OW13378   3.142   2.789   2.534
 4345SOL    HW113379   3.202   2.708   2.536
 4345SOL    HW213380   3.182   2.858   2.474
 4346SOL     OW13381   2.692   3.135   3.284
 4346SOL    HW113382   2.687   3.168   3.379
 4346SOL    HW213383   2.606   3.154   3.238
 4347SOL     OW13384   2.534   3.478   2.016
 4347SOL    HW113385   2.543   3.488   1.917
 4347SOL    HW213386   2.494   3.389   2.037
 4348SOL     OW13387   3.512   3.582   3.256
 4348SOL    HW113388   3.565   3.592   3.172
 4348SOL    HW213389   3.485   3.672   3.290
 4349SOL     OW13390   3.703   2.037   2.825
 4349SOL    HW113391   3.742   1.952   2.789
 4349SOL    HW213392   3.605   2.039   2.806
 4350SOL     OW13393   2.125   2.188   2.582
 4350SOL    HW113394   2.046   2.239   2.548
 4350SOL    HW213395   2.116   2.173   2.680
 4351SOL     OW13396   3.056   3.474   1.893
 4351SOL    HW113397   3.062   3.381   1.930
 4351SOL    HW213398   2.997   3.474   1.813
 4352SOL     OW13399   2.684   2.864   3.234
 4352SOL    HW113400   2.724   2.863   3.142
 4352SOL    HW213401   2.694   2.956   3.274
 4353SOL     OW13402   2.778   2.772   2.153
 4353SOL    HW113403   2.841   2.810   2.085
 4353SOL    HW213404   2.818   2.689   2.192
 4354SOL     OW13405   3.366   3.469   1.906
 4354SOL    HW113406   3.274   3.506   1.913
 4354SOL    HW213407   3.404   3.489   1.816
 4355SOL     OW13408   2.234   3.150   3.352
 4355SOL    HW113409   2.221   3.243   3.318
 4355SOL    HW213410   2.150   3.098   3.339
 4356SOL     OW13411   3.476   3.154   3.151
 4356SOL    HW113412   3.536   3.157   3.231
 4356SOL    HW213413   3.401   3.218   3.164
 4357SOL     OW13414   2.901   2.960   2.558
 4357SOL    HW113415   2.831   2.913   2.612
 4357SOL    HW213416   2.960   2.892   2.515
 4358SOL     OW13417   2.876   2.098   2.833
 4358SOL    HW113418   2.868   2.062   2.740
 4358SOL    HW213419   2.874   2.022   2.898
 4359SOL     OW13420   2.452   3.349   2.353
 4359SOL    HW113421   2.494   3.291   2.283
 4359SOL    HW213422   2.408   3.428   2.309
 4360SOL     OW13423   3.571   2.247   3.243
 4360SOL    HW113424   3.644   2.316   3.247
 4360SOL    HW213425   3.599   2.172   3.184
 4361SOL     OW13426   2.117   3.210   2.152
 4361SOL    HW113427   2.021   3.211   2.125
 4361SOL    HW213428   2.129   3.263   2.236
 4362SOL     OW13429   1.967   2.875   3.588
 4362SOL    HW113430   1.890   2.842   3.642
 4362SOL    HW213431   2.052   2.845   3.630
 4363SOL     OW13432   2.534   2.065   3.351
 4363SOL    HW113433   2.624   2.049   3.311
 4363SOL    HW213434   2.542   2.070   3.450
 4364SOL     OW13435   1.937   2.207   1.895
 4364SOL    HW113436   1.845   2.179   1.866
 4364SOL    HW213437   1.968   2.284   1.839
 4365SOL     OW13438   3.302   2.718   3.260
 4365SOL    HW113439   3.245   2.770   3.197
 4365SOL    HW213440   3.398   2.730   3.236
 4366SOL     OW13441   1.934   2.028   2.180
 4366SOL    HW113442   1.917   2.111   2.126
 4366SOL    HW213443   2.024   1.991   2.158
 4367SOL     OW13444   3.045   3.197   1.981
 4367SOL    HW113445   2.946   3.186   1.983
 4367SOL    HW213446   3.079   3.212   2.074
 4368SOL     OW13447   2.475   2.704   3.293
 4368SOL    HW113448   2.531   2.785   3.276
 4368SOL    HW213449   2.534   2.624   3.296
 4369SOL     OW13450   3.355   3.629   2.821
 4369SOL    HW113451   3.388   3.693   2.752
 4369SOL    HW213452   3.421   3.623   2.896
 4370SOL     OW13453   2.578   2.427   3.570
 4370SOL    HW113454   2.597   2.492   3.644
 4370SOL    HW213455   2.638   2.347   3.579
 4371SOL     OW13456   3.312   3.082   3.495
 4371SOL    HW113457   3.303   3.072   3.594
 4371SOL    HW213458   3.408   3.075   3.469
 4372SOL     OW13459   2.252   3.603   3.422
 4372SOL    HW113460   2.161   3.644   3.420
 4372SOL    HW213461   2.245   3.509   3.454
 4373SOL     OW13462   3.536   2.745   3.116
 4373SOL    HW113463   3.509   2.656   3.079
 4373SOL    HW213464   3.537   2.813   3.043
 4374SOL     OW13465   3.087   2.187   2.311
 4374SOL    HW113466   3.152   2.113   2.300
 4374SOL    HW213467   3.107   2.237   2.395
 4375SOL     OW13468   2.456   2.607   2.514
 4375SOL    HW113469   2.506   2.692   2.495
 4375SOL    HW213470   2.368   2.609   2.466
 4376SOL     OW13471   3.639   2.204   3.504
 4376SOL    HW113472   3.622   2.235   3.410
 4376SOL    HW213473   3.555   2.167   3.542
 4377SOL     OW13474   3.592   2.796   3.379
 4377SOL    HW113475   3.630   2.887   3.394
 4377SOL    HW213476   3.584   2.779   3.280
 4378SOL     OW13477   2.721   3.236   1.878
 4378SOL    HW113478   2.675   3.251   1.966
 4378SOL    HW213479   2.765   3.321   1.848
 4379SOL     OW13480   2.523   3.652   2.815
 4379SOL    HW113481   2.477   3.740   2.802
 4379SOL    HW213482   2.622   3.664   2.808
 4380SOL     OW13483   2.721   2.818   2.723
 4380SOL    HW113484   2.775   2.749   2.771
 4380SOL    HW213485   2.689   2.887   2.789
 4381SOL     OW13486   2.945   2.846   1.949
 4381SOL    HW113487   2.922   2.899   1.867
 4381SOL    HW213488   3.026   2.790   1.930
 4382SOL     OW13489   3.723   3.431   2.713
 4382SOL    HW113490   3.652   3.419   2.643
 4382SOL    HW213491   3.724   3.352   2.773
 4383SOL     OW13492   1.941   3.102   2.515
 4383SOL    HW113493   1.940   3.055   2.603
 4383SOL    HW213494   2.023   3.074   2.464
 4384SOL     OW13495   2.534   3.253   3.486
 4384SOL    HW113496   2.456   3.203   3.524
 4384SOL    HW213497   2.531   3.348   3.517
 4385SOL     OW13498   3.686   2.054   3.089
 4385SOL    HW113499   3.682   1.964   3.133
 4385SOL    HW213500   3.689   2.043   2.990
 4386SOL     OW13501   2.290   2.286   2.382
 4386SOL    HW113502   2.320   2.214   2.320
 4386SOL    HW213503   2.251   2.246   2.465
 4387SOL     OW13504   3.567   3.349   2.966
 4387SOL    HW113505   3.474   3.324   2.939
 4387SOL    HW213506   3.593   3.299   3.048
 4388SOL     OW13507   2.179   2.409   3.142
 4388SOL    HW113508   2.217   2.350   3.214
 4388SOL    HW213509   2.219   2.383   3.054
 4389SOL     OW13510   2.674   3.448   2.549
 4389SOL    HW113511   2.706   3.458   2.455
 4389SOL    HW213512   2.595   3.386   2.551
 4390SOL     OW13513   3.286   2.076   2.974
 4390SOL    HW113514   3.338   2.011   3.029
 4390SOL    HW213515   3.237   2.139   3.035
 4391SOL     OW13516   2.863   1.896   3.016
 4391SOL    HW113517   2.800   1.824   2.985
 4391SOL    HW213518   2.956   1.860   3.016
 4392SOL     OW13519   2.632   3.192   2.163
 4392SOL    HW113520   2.586   3.105   2.180
 4392SOL    HW213521   2.723   3.189   2.204
 4393SOL     OW13522   2.480   3.429   3.146
 4393SOL    HW113523   2.475   3.511   3.203
 4393SOL    HW213524   2.569   3.426   3.101
 4394SOL     OW13525   3.214   1.914   2.030
 4394SOL    HW113526   3.249   1.873   1.946
 4394SOL    HW213527   3.124   1.876   2.050
 4395SOL     OW13528   3.162   2.315   2.553
 4395SOL    HW113529   3.103   2.395   2.557
 4395SOL    HW213530   3.177   2.280   2.646
 4396SOL     OW13531   3.455   2.083   2.744
 4396SOL    HW113532   3.371   2.082   2.798
 4396SOL    HW213533   3.457   2.166   2.688
 4397SOL     OW13534   1.901   2.939   2.162
 4397SOL    HW113535   2.000   2.928   2.153
 4397SOL    HW213536   1.861   2.853   2.194
 4398SOL     OW13537   2.737   3.508   2.199
 4398SOL    HW113538   2.660   3.473   2.145
 4398SOL    HW213539   2.705   3.579   2.261
 4399SOL     OW13540   2.092   2.490   3.837
 4399SOL    HW113541   1.999   2.488   3.874
 4399SOL    HW213542   2.093   2.451   3.745
 4400SOL     OW13543   2.087   2.137   4.720
 4400SOL    HW113544   2.122   2.120   4.812
 4400SOL    HW213545   1.999   2.092   4.708
 4401SOL     OW13546   1.881   2.230   4.371
 4401SOL    HW113547   1.799   2.273   4.410
 4401SOL    HW213548   1.853   2.157   4.308
 4402SOL     OW13549   2.431   3.137   4.889
 4402SOL    HW113550   2.338   3.130   4.852
 4402SOL    HW213551   2.442   3.226   4.933
 4403SOL     OW13552   3.417   3.373   4.427
 4403SOL    HW113553   3.360   3.357   4.508
 4403SOL    HW213554   3.358   3.383   4.347
 4404SOL     OW13555   2.997   2.565   4.441
 4404SOL    HW113556   3.054   2.643   4.416
 4404SOL    HW213557   2.937   2.591   4.517
 4405SOL     OW13558   3.617   2.469   3.955
 4405SOL    HW113559   3.605   2.456   3.856
 4405SOL    HW213560   3.587   2.388   4.004
 4406SOL     OW13561   2.630   3.006   4.747
 4406SOL    HW113562   2.552   3.023   4.807
 4406SOL    HW213563   2.664   3.093   4.711
 4407SOL     OW13564   2.712   2.660   5.547
 4407SOL    HW113565   2.708   2.736   5.612
 4407SOL    HW213566   2.734   2.696   5.456
 4408SOL     OW13567   2.547   2.874   4.389
 4408SOL    HW113568   2.616   2.858   4.459
 4408SOL    HW213569   2.474   2.931   4.427
 4409SOL     OW13570   2.548   3.023   5.527
 4409SOL    HW113571   2.608   3.102   5.541
 4409SOL    HW213572   2.462   3.054   5.486
 4410SOL     OW13573   2.197   3.297   4.785
 4410SOL    HW113574   2.119   3.266   4.732
 4410SOL    HW213575   2.255   3.355   4.728
 4411SOL     OW13576   3.322   3.367   5.063
 4411SOL    HW113577   3.346   3.461   5.089
 4411SOL    HW213578   3.306   3.313   5.145
 4412SOL     OW13579   2.300   2.254   5.223
 4412SOL    HW113580   2.382   2.198   5.232
 4412SOL    HW213581   2.219   2.196   5.227
 4413SOL     OW13582   3.465   2.309   4.461
 4413SOL    HW113583   3.391   2.355   4.411
 4413SOL    HW213584   3.516   2.377   4.514
 4414SOL     OW13585   2.093   3.575   4.207
 4414SOL    HW113586   2.127   3.652   4.261
 4414SOL    HW213587   2.137   3.575   4.117
 4415SOL     OW13588   2.989   3.203   5.414
 4415SOL    HW113589   3.036   3.203   5.502
 4415SOL    HW213590   2.941   3.116   5.403
 4416SOL     OW13591   2.092   3.296   4.262
 4416SOL    HW113592   2.066   3.392   4.262
 4416SOL    HW213593   2.021   3.242   4.307
 4417SOL     OW13594   2.102   2.953   4.610
 4417SOL    HW113595   2.116   2.869   4.662
 4417SOL    HW213596   2.047   3.017   4.665
 4418SOL     OW13597   2.482   3.648   5.163
 4418SOL    HW113598   2.390   3.631   5.198
 4418SOL    HW213599   2.510   3.740   5.189
 4419SOL     OW13600   2.468   2.826   3.847
 4419SOL    HW113601   2.475   2.910   3.793
 4419SOL    HW213602   2.514   2.839   3.935
 4420SOL     OW13603   3.456   1.976   5.204
 4420SOL    HW113604   3.438   2.043   5.132
 4420SOL    HW213605   3.453   2.022   5.293
 4421SOL     OW13606   1.984   2.505   4.287
 4421SOL    HW113607   1.939   2.417   4.304
 4421SOL    HW213608   1.983   2.559   4.371
 4422SOL     OW13609   3.704   3.629   4.083
 4422SOL    HW113610   3.758   3.600   4.163
 4422SOL    HW213611   3.734   3.719   4.054
 4423SOL     OW13612   1.889   3.458   3.841
 4423SOL    HW113613   1.870   3.362   3.862
 4423SOL    HW213614   1.856   3.516   3.916
 4424SOL     OW13615   3.551   2.784   4.336
 4424SOL    HW113616   3.646   2.755   4.344
 4424SOL    HW213617   3.543   2.849   4.261
 4425SOL     OW13618   3.503   2.970   4.156
 4425SOL    HW113619   3.589   2.972   4.104
 4425SOL    HW213620   3.517   3.017   4.244
 4426SOL     OW13621   1.975   2.599   5.321
 4426SOL    HW113622   2.063   2.586   5.366
 4426SOL    HW213623   1.962   2.696   5.299
 4427SOL     OW13624   2.475   3.227   4.450
 4427SOL    HW113625   2.426   3.140   4.459
 4427SOL    HW213626   2.452   3.270   4.363
 4428SOL     OW13627   3.155   3.090   5.147
 4428SOL    HW113628   3.192   3.017   5.089
 4428SOL    HW213629   3.207   3.095   5.232
 4429SOL     OW13630   2.671   1.866   4.226
 4429SOL    HW113631   2.711   1.957   4.217
 4429SOL    HW213632   2.571   1.874   4.232
 4430SOL     OW13633   2.059   2.838   4.988
 4430SOL    HW113634   2.148   2.793   4.974
 4430SOL    HW213635   1.986   2.773   4.969
 4431SOL     OW13636   3.387   2.861   3.914
 4431SOL    HW113637   3.324   2.785   3.927
 4431SOL    HW213638   3.435   2.879   4.000
 4432SOL     OW13639   3.049   3.654   5.340
 4432SOL    HW113640   3.073   3.714   5.264
 4432SOL    HW213641   3.056   3.559   5.310
 4433SOL     OW13642   2.179   2.113   5.525
 4433SOL    HW113643   2.250   2.184   5.531
 4433SOL    HW213644   2.091   2.152   5.553
 4434SOL     OW13645   3.328   3.279   4.677
 4434SOL    HW113646   3.269   3.285   4.757
 4434SOL    HW213647   3.313   3.191   4.631
 4435SOL     OW13648   3.529   3.576   4.296
 4435SOL    HW113649   3.488   3.553   4.208
 4435SOL    HW213650   3.511   3.502   4.361
 4436SOL     OW13651   2.460   2.591   3.994
 4436SOL    HW113652   2.484   2.660   3.926
 4436SOL    HW213653   2.382   2.624   4.048
 4437SOL     OW13654   3.143   2.207   4.668
 4437SOL    HW113655   3.057   2.157   4.655
 4437SOL    HW213656   3.205   2.153   4.724
 4438SOL     OW13657   3.438   3.524   4.031
 4438SOL    HW113658   3.527   3.570   4.034
 4438SOL    HW213659   3.417   3.500   3.936
 4439SOL     OW13660   2.669   2.467   5.189
 4439SOL    HW113661   2.622   2.464   5.278
 4439SOL    HW213662   2.618   2.412   5.123
 4440SOL     OW13663   3.256   2.331   5.398
 4440SOL    HW113664   3.236   2.374   5.486
 4440SOL    HW213665   3.334   2.269   5.407
 4441SOL     OW13666   2.835   2.752   5.296
 4441SOL    HW113667   2.881   2.668   5.267
 4441SOL    HW213668   2.779   2.786   5.221
 4442SOL     OW13669   2.853   2.272   4.966
 4442SOL    HW113670   2.776   2.306   5.020
 4442SOL    HW213671   2.819   2.221   4.887
 4443SOL     OW13672   2.903   2.563   4.153
 4443SOL    HW113673   2.929   2.559   4.249
 4443SOL    HW213674   2.818   2.512   4.139
 4444SOL     OW13675   1.938   2.673   4.513
 4444SOL    HW113676   2.037   2.661   4.522
 4444SOL    HW213677   1.914   2.768   4.534
 4445SOL     OW13678   1.992   3.683   5.295
 4445SOL    HW113679   1.982   3.668   5.394
 4445SOL    HW213680   1.906   3.719   5.259
 4446SOL     OW13681   2.727   2.210   3.919
 4446SOL    HW113682   2.786   2.273   3.870
 4446SOL    HW213683   2.746   2.116   3.890
 4447SOL     OW13684   3.581   2.447   5.555
 4447SOL    HW113685   3.555   2.536   5.519
 4447SOL    HW213686   3.579   2.379   5.482
 4448SOL     OW13687   3.224   3.006   4.269
 4448SOL    HW113688   3.307   2.977   4.221
 4448SOL    HW213689   3.175   3.073   4.213
 4449SOL     OW13690   2.412   2.058   4.609
 4449SOL    HW113691   2.407   2.053   4.709
 4449SOL    HW213692   2.414   2.154   4.580
 4450SOL     OW13693   2.870   3.318   4.201
 4450SOL    HW113694   2.824   3.390   4.149
 4450SOL    HW213695   2.866   3.338   4.299
 4451SOL     OW13696   2.213   3.663   4.577
 4451SOL    HW113697   2.263   3.577   4.583
 4451SOL    HW213698   2.278   3.740   4.574
 4452SOL     OW13699   3.657   2.928   4.597
 4452SOL    HW113700   3.595   2.913   4.521
 4452SOL    HW213701   3.605   2.939   4.682
 4453SOL     OW13702   3.089   3.412   5.230
 4453SOL    HW113703   3.095   3.335   5.294
 4453SOL    HW213704   3.037   3.386   5.150
 4454SOL     OW13705   2.183   2.805   3.966
 4454SOL    HW113706   2.265   2.844   3.924
 4454SOL    HW213707   2.156   2.723   3.917
 4455SOL     OW13708   3.320   2.597   4.452
 4455SOL    HW113709   3.315   2.532   4.527
 4455SOL    HW213710   3.400   2.656   4.465
 4456SOL     OW13711   2.323   3.128   5.451
 4456SOL    HW113712   2.273   3.129   5.365
 4456SOL    HW213713   2.260   3.110   5.527
 4457SOL     OW13714   2.973   3.638   3.961
 4457SOL    HW113715   2.913   3.576   4.011
 4457SOL    HW213716   3.004   3.594   3.876
 4458SOL     OW13717   2.064   2.147   5.222
 4458SOL    HW113718   1.984   2.207   5.209
 4458SOL    HW213719   2.054   2.098   5.308
 4459SOL     OW13720   3.494   3.239   3.805
 4459SOL    HW113721   3.462   3.333   3.795
 4459SOL    HW213722   3.418   3.176   3.793
 4460SOL     OW13723   2.326   3.605   4.047
 4460SOL    HW113724   2.359   3.644   4.133
 4460SOL    HW213725   2.402   3.598   3.982
 4461SOL     OW13726   3.262   1.969   4.150
 4461SOL    HW113727   3.238   1.932   4.060
 4461SOL    HW213728   3.361   1.985   4.154
 4462SOL     OW13729   2.111   3.647   4.965
 4462SOL    HW113730   2.168   3.582   5.015
 4462SOL    HW213731   2.095   3.614   4.872
 4463SOL     OW13732   2.802   3.560   4.628
 4463SOL    HW113733   2.882   3.503   4.649
 4463SOL    HW213734   2.753   3.520   4.551
 4464SOL     OW13735   2.244   2.562   4.204
 4464SOL    HW113736   2.289   2.472   4.201
 4464SOL    HW213737   2.150   2.551   4.237
 4465SOL     OW13738   3.409   2.084   5.453
 4465SOL    HW113739   3.404   2.121   5.545
 4465SOL    HW213740   3.337   2.015   5.441
 4466SOL     OW13741   2.476   1.984   3.841
 4466SOL    HW113742   2.574   1.962   3.848
 4466SOL    HW213743   2.445   1.967   3.748
 4467SOL     OW13744   2.643   2.126   5.473
 4467SOL    HW113745   2.710   2.065   5.516
 4467SOL    HW213746   2.570   2.145   5.538
 4468SOL     OW13747   2.750   3.376   4.919
 4468SOL    HW113748   2.727   3.351   4.825
 4468SOL    HW213749   2.811   3.307   4.958
 4469SOL     OW13750   3.213   2.452   5.157
 4469SOL    HW113751   3.241   2.409   5.242
 4469SOL    HW213752   3.238   2.548   5.158
 4470SOL     OW13753   2.665   3.264   4.648
 4470SOL    HW113754   2.755   3.278   4.606
 4470SOL    HW213755   2.594   3.266   4.577
 4471SOL     OW13756   2.784   2.365   4.623
 4471SOL    HW113757   2.759   2.356   4.527
 4471SOL    HW213758   2.832   2.283   4.654
 4472SOL     OW13759   2.401   1.926   4.236
 4472SOL    HW113760   2.320   1.927   4.294
 4472SOL    HW213761   2.404   2.009   4.181
 4473SOL     OW13762   3.296   3.050   3.765
 4473SOL    HW113763   3.328   2.974   3.822
 4473SOL    HW213764   3.204   3.077   3.795
 4474SOL     OW13765   2.159   1.897   3.895
 4474SOL    HW113766   2.208   1.981   3.874
 4474SOL    HW213767   2.221   1.832   3.940
 4475SOL     OW13768   2.797   2.098   4.204
 4475SOL    HW113769   2.749   2.139   4.126
 4475SOL    HW213770   2.896   2.096   4.185
 4476SOL     OW13771   2.938   2.545   5.188
 4476SOL    HW113772   2.858   2.484   5.191
 4476SOL    HW213773   3.019   2.492   5.164
 4477SOL     OW13774   3.089   3.432   4.517
 4477SOL    HW113775   3.110   3.506   4.452
 4477SOL    HW213776   3.157   3.432   4.590
 4478SOL     OW13777   2.321   3.014   4.465
 4478SOL    HW113778   2.250   2.987   4.530
 4478SOL    HW213779   2.295   2.986   4.372
 4479SOL     OW13780   3.133   3.659   4.315
 4479SOL    HW113781   3.177   3.723   4.251
 4479SOL    HW213782   3.083   3.711   4.385
 4480SOL     OW13783   2.894   2.411   3.740
 4480SOL    HW113784   2.853   2.493   3.701
 4480SOL    HW213785   2.958   2.437   3.813
 4481SOL     OW13786   1.940   2.418   5.110
 4481SOL    HW113787   2.032   2.417   5.069
 4481SOL    HW213788   1.934   2.492   5.177
 4482SOL     OW13789   2.423   2.084   4.871
 4482SOL    HW113790   2.461   2.000   4.908
 4482SOL    HW213791   2.335   2.103   4.915
 4483SOL     OW13792   2.728   2.316   4.366
 4483SOL    HW113793   2.696   2.388   4.304
 4483SOL    HW213794   2.752   2.235   4.313
 4484SOL     OW13795   2.879   1.901   4.477
 4484SOL    HW113796   2.807   1.906   4.408
 4484SOL    HW213797   2.855   1.832   4.546
 4485SOL     OW13798   3.291   3.035   4.591
 4485SOL    HW113799   3.236   2.951   4.584
 4485SOL    HW213800   3.317   3.064   4.499
 4486SOL     OW13801   3.328   2.452   4.716
 4486SOL    HW113802   3.298   2.357   4.723
 4486SOL    HW213803   3.401   2.468   4.782
 4487SOL     OW13804   3.719   2.695   4.101
 4487SOL    HW113805   3.761   2.631   4.165
 4487SOL    HW213806   3.681   2.644   4.023
 4488SOL     OW13807   2.350   3.247   3.898
 4488SOL    HW113808   2.263   3.232   3.945
 4488SOL    HW213809   2.333   3.273   3.803
 4489SOL     OW13810   3.526   3.142   4.381
 4489SOL    HW113811   3.625   3.150   4.395
 4489SOL    HW213812   3.481   3.226   4.412
 4490SOL     OW13813   3.252   2.437   3.802
 4490SOL    HW113814   3.198   2.416   3.883
 4490SOL    HW213815   3.343   2.396   3.811
 4491SOL     OW13816   2.389   2.118   4.052
 4491SOL    HW113817   2.416   2.059   3.977
 4491SOL    HW213818   2.389   2.213   4.021
 4492SOL     OW13819   3.616   3.085   5.312
 4492SOL    HW113820   3.707   3.046   5.299
 4492SOL    HW213821   3.624   3.181   5.336
 4493SOL     OW13822   2.926   3.209   5.064
 4493SOL    HW113823   2.846   3.186   5.119
 4493SOL    HW213824   3.009   3.183   5.113
 4494SOL     OW13825   3.454   3.491   5.349
 4494SOL    HW113826   3.481   3.525   5.259
 4494SOL    HW213827   3.533   3.453   5.395
 4495SOL     OW13828   2.973   3.057   4.824
 4495SOL    HW113829   2.933   3.101   4.905
 4495SOL    HW213830   2.932   3.094   4.741
 4496SOL     OW13831   3.500   2.961   4.803
 4496SOL    HW113832   3.505   3.042   4.862
 4496SOL    HW213833   3.414   2.963   4.752
 4497SOL     OW13834   2.777   1.951   5.126
 4497SOL    HW113835   2.802   1.931   5.031
 4497SOL    HW213836   2.849   2.007   5.168
 4498SOL     OW13837   2.842   2.978   5.443
 4498SOL    HW113838   2.743   2.984   5.453
 4498SOL    HW213839   2.865   2.898   5.387
 4499SOL     OW13840   2.567   2.912   4.092
 4499SOL    HW113841   2.553   2.919   4.191
 4499SOL    HW213842   2.651   2.861   4.074
 4500SOL     OW13843   2.272   2.675   4.975
 4500SOL    HW113844   2.358   2.687   5.025
 4500SOL    HW213845   2.230   2.588   5.002
 4501SOL     OW13846   3.136   2.248   4.986
 4501SOL    HW113847   3.157   2.322   5.050
 4501SOL    HW213848   3.047   2.265   4.943
 4502SOL     OW13849   1.926   3.426   5.055
 4502SOL    HW113850   1.880   3.508   5.021
 4502SOL    HW213851   2.024   3.445   5.064
 4503SOL     OW13852   2.229   2.962   4.225
 4503SOL    HW113853   2.222   3.045   4.169
 4503SOL    HW213854   2.233   2.882   4.165
 4504SOL     OW13855   2.428   2.399   4.589
 4504SOL    HW113856   2.440   2.465   4.515
 4504SOL    HW213857   2.474   2.433   4.672
 4505SOL     OW13858   3.114   3.210   4.112
 4505SOL    HW113859   3.164   3.287   4.152
 4505SOL    HW213860   3.019   3.212   4.144
 4506SOL     OW13861   3.134   3.307   4.866
 4506SOL    HW113862   3.181   3.320   4.953
 4506SOL    HW213863   3.068   3.233   4.875
 4507SOL     OW13864   3.444   2.501   4.196
 4507SOL    HW113865   3.413   2.562   4.269
 4507SOL    HW213866   3.494   2.553   4.127
 4508SOL     OW13867   2.216   3.372   5.053
 4508SOL    HW113868   2.195   3.328   4.966
 4508SOL    HW213869   2.313   3.398   5.056
 4509SOL     OW13870   2.264   2.613   5.322
 4509SOL    HW113871   2.332   2.668   5.275
 4509SOL    HW213872   2.304   2.525   5.349
 4510SOL     OW13873   3.449   2.641   5.394
 4510SOL    HW113874   3.357   2.679   5.389
 4510SOL    HW213875   3.509   2.688   5.329
 4511SOL     OW13876   2.875   1.967   5.494
 4511SOL    HW113877   2.881   2.052   5.442
 4511SOL    HW213878   2.907   1.891   5.437
 4512SOL     OW13879   2.366   1.912   5.464
 4512SOL    HW113880   2.324   1.855   5.394
 4512SOL    HW213881   2.300   1.981   5.496
 4513SOL     OW13882   2.435   2.732   4.753
 4513SOL    HW113883   2.479   2.821   4.744
 4513SOL    HW213884   2.372   2.732   4.830
 4514SOL     OW13885   3.222   2.724   4.769
 4514SOL    HW113886   3.147   2.724   4.703
 4514SOL    HW213887   3.259   2.632   4.778
 4515SOL     OW13888   3.071   2.387   3.999
 4515SOL    HW113889   3.084   2.303   4.053
 4515SOL    HW213890   3.042   2.461   4.059
 4516SOL     OW13891   2.169   2.075   4.955
 4516SOL    HW113892   2.146   2.112   5.045
 4516SOL    HW213893   2.139   1.980   4.949
 4517SOL     OW13894   1.899   3.172   5.006
 4517SOL    HW113895   1.952   3.123   5.074
 4517SOL    HW213896   1.921   3.270   5.011
 4518SOL     OW13897   2.594   2.496   4.788
 4518SOL    HW113898   2.653   2.470   4.712
 4518SOL    HW213899   2.566   2.592   4.777
 4519SOL     OW13900   3.590   2.797   5.578
 4519SOL    HW113901   3.544   2.790   5.489
 4519SOL    HW213902   3.528   2.841   5.644
 4520SOL     OW13903   2.169   1.925   4.342
 4520SOL    HW113904   2.158   2.019   4.375
 4520SOL    HW213905   2.164   1.862   4.419
 4521SOL     OW13906   3.484   2.229   4.098
 4521SOL    HW113907   3.486   2.153   4.162
 4521SOL    HW213908   3.436   2.306   4.138
 4522SOL     OW13909   2.885   2.628   4.690
 4522SOL    HW113910   2.900   2.649   4.786
 4522SOL    HW213911   2.855   2.533   4.681
 4523SOL     OW13912   2.842   3.435   5.424
 4523SOL    HW113913   2.822   3.479   5.336
 4523SOL    HW213914   2.881   3.344   5.408
 4524SOL     OW13915   3.721   3.380   5.329
 4524SOL    HW113916   3.735   3.407   5.234
 4524SOL    HW213917   3.804   3.402   5.382
 4525SOL     OW13918   2.212   2.760   5.528
 4525SOL    HW113919   2.288   2.804   5.576
 4525SOL    HW213920   2.247   2.713   5.446
 4526SOL     OW13921   3.402   2.136   3.849
 4526SOL    HW113922   3.341   2.061   3.872
 4526SOL    HW213923   3.424   2.188   3.932
 4527SOL     OW13924   3.165   2.700   3.766
 4527SOL    HW113925   3.199   2.607   3.781
 4527SOL    HW213926   3.183   2.727   3.671
 4528SOL     OW13927   2.930   3.195   4.573
 4528SOL    HW113928   2.937   3.111   4.518
 4528SOL    HW213929   2.992   3.264   4.537
 4529SOL     OW13930   2.181   2.672   4.673
 4529SOL    HW113931   2.274   2.708   4.678
 4529SOL    HW213932   2.175   2.587   4.725
 4530SOL     OW13933   2.201   2.371   4.730
 4530SOL    HW113934   2.149   2.288   4.713
 4530SOL    HW213935   2.278   2.376   4.666
 4531SOL     OW13936   3.000   2.242   5.402
 4531SOL    HW113937   2.955   2.305   5.466
 4531SOL    HW213938   3.093   2.273   5.385
 4532SOL     OW13939   3.022   2.069   5.201
 4532SOL    HW113940   3.022   2.133   5.278
 4532SOL    HW213941   3.050   2.117   5.118
 4533SOL     OW13942   1.870   3.188   3.924
 4533SOL    HW113943   1.777   3.209   3.893
 4533SOL    HW213944   1.880   3.089   3.937
 4534SOL     OW13945   1.950   3.663   4.651
 4534SOL    HW113946   1.908   3.577   4.624
 4534SOL    HW213947   2.044   3.666   4.617
 4535SOL     OW13948   2.366   3.430   4.634
 4535SOL    HW113949   2.432   3.504   4.643
 4535SOL    HW213950   2.410   3.351   4.592
 4536SOL     OW13951   2.864   2.658   4.962
 4536SOL    HW113952   2.905   2.626   5.048
 4536SOL    HW213953   2.768   2.631   4.959
 4537SOL     OW13954   1.902   2.406   4.838
 4537SOL    HW113955   1.987   2.373   4.797
 4537SOL    HW213956   1.915   2.421   4.936
 4538SOL     OW13957   2.051   2.382   5.446
 4538SOL    HW113958   2.110   2.342   5.376
 4538SOL    HW213959   1.993   2.453   5.405
 4539SOL     OW13960   3.231   2.812   5.384
 4539SOL    HW113961   3.270   2.901   5.404
 4539SOL    HW213962   3.241   2.792   5.287
 4540SOL     OW13963   2.677   2.434   4.049
 4540SOL    HW113964   2.684   2.345   4.003
 4540SOL    HW213965   2.583   2.468   4.041
 4541SOL     OW13966   3.519   2.466   4.930
 4541SOL    HW113967   3.481   2.397   4.992
 4541SOL    HW213968   3.601   2.430   4.886
 4542SOL     OW13969   2.114   3.426   5.468
 4542SOL    HW113970   2.084   3.483   5.544
 4542SOL    HW213971   2.107   3.329   5.494
 4543SOL     OW13972   2.533   2.326   4.993
 4543SOL    HW113973   2.499   2.237   4.963
 4543SOL    HW213974   2.559   2.380   4.913
 4544SOL     OW13975   2.792   3.540   5.189
 4544SOL    HW113976   2.768   3.522   5.094
 4544SOL    HW213977   2.822   3.634   5.199
 4545SOL     OW13978   2.335   2.362   3.915
 4545SOL    HW113979   2.396   2.442   3.919
 4545SOL    HW213980   2.240   2.393   3.922
 4546SOL     OW13981   2.021   2.999   5.190
 4546SOL    HW113982   2.043   2.938   5.266
 4546SOL    HW213983   2.031   2.950   5.104
 4547SOL     OW13984   3.209   2.921   4.958
 4547SOL    HW113985   3.233   2.858   4.884
 4547SOL    HW213986   3.119   2.961   4.940
 4548SOL     OW13987   3.164   2.717   4.033
 4548SOL    HW113988   3.078   2.686   4.075
 4548SOL    HW213989   3.160   2.703   3.934
 4549SOL     OW13990   3.621   3.609   4.878
 4549SOL    HW113991   3.682   3.639   4.805
 4549SOL    HW213992   3.583   3.520   4.856
 4550SOL     OW13993   3.114   3.593   4.852
 4550SOL    HW113994   3.198   3.598   4.798
 4550SOL    HW213995   3.091   3.497   4.870
 4551SOL     OW13996   1.945   3.120   4.746
 4551SOL    HW113997   1.940   3.119   4.846
 4551SOL    HW213998   1.862   3.079   4.708
 4552SOL     OW13999   2.550   3.524   5.440
 4552SOL    HW114000   2.494   3.605   5.449
 4552SOL    HW214001   2.602   3.528   5.354
 4553SOL     OW14002   3.588   1.997   4.247
 4553SOL    HW114003   3.661   1.980   4.180
 4553SOL    HW214004   3.557   1.910   4.285
 4554SOL     OW14005   3.250   3.435   4.201
 4554SOL    HW114006   3.317   3.447   4.127
 4554SOL    HW214007   3.210   3.524   4.224
 4555SOL     OW14008   1.992   3.656   5.575
 4555SOL    HW114009   1.951   3.582   5.628
 4555SOL    HW214010   2.056   3.707   5.633
 4556SOL     OW14011   3.142   2.789   4.396
 4556SOL    HW114012   3.202   2.708   4.398
 4556SOL    HW214013   3.182   2.858   4.336
 4557SOL     OW14014   2.692   3.135   5.146
 4557SOL    HW114015   2.687   3.168   5.241
 4557SOL    HW214016   2.606   3.154   5.100
 4558SOL     OW14017   2.534   3.478   3.878
 4558SOL    HW114018   2.543   3.488   3.779
 4558SOL    HW214019   2.494   3.389   3.899
 4559SOL     OW14020   3.512   3.582   5.118
 4559SOL    HW114021   3.565   3.592   5.034
 4559SOL    HW214022   3.485   3.672   5.152
 4560SOL     OW14023   3.703   2.037   4.687
 4560SOL    HW114024   3.742   1.952   4.651
 4560SOL    HW214025   3.605   2.039   4.668
 4561SOL     OW14026   2.125   2.188   4.444
 4561SOL    HW114027   2.046   2.239   4.410
 4561SOL    HW214028   2.116   2.173   4.542
 4562SOL     OW14029   3.056   3.474   3.755
 4562SOL    HW114030   3.062   3.381   3.792
 4562SOL    HW214031   2.997   3.474   3.675
 4563SOL     OW14032   2.684   2.864   5.096
 4563SOL    HW114033   2.724   2.863   5.004
 4563SOL    HW214034   2.694   2.956   5.136
 4564SOL     OW14035   2.778   2.772   4.015
 4564SOL    HW114036   2.841   2.810   3.947
 4564SOL    HW214037   2.818   2.689   4.054
 4565SOL     OW14038   3.366   3.469   3.768
 4565SOL    HW114039   3.274   3.506   3.775
 4565SOL    HW214040   3.404   3.489   3.678
 4566SOL     OW14041   2.234   3.150   5.214
 4566SOL    HW114042   2.221   3.243   5.180
 4566SOL    HW214043   2.150   3.098   5.201
 4567SOL     OW14044   3.476   3.154   5.013
 4567SOL    HW114045   3.536   3.157   5.093
 4567SOL    HW214046   3.401   3.218   5.026
 4568SOL     OW14047   2.901   2.960   4.420
 4568SOL    HW114048   2.831   2.913   4.474
 4568SOL    HW214049   2.960   2.892   4.377
 4569SOL     OW14050   2.876   2.098   4.695
 4569SOL    HW114051   2.868   2.062   4.602
 4569SOL    HW214052   2.874   2.022   4.760
 4570SOL     OW14053   2.452   3.349   4.215
 4570SOL    HW114054   2.494   3.291   4.145
 4570SOL    HW214055   2.408   3.428   4.171
 4571SOL     OW14056   3.571   2.247   5.105
 4571SOL    HW114057   3.644   2.316   5.109
 4571SOL    HW214058   3.599   2.172   5.046
 4572SOL     OW14059   2.117   3.210   4.014
 4572SOL    HW114060   2.021   3.211   3.987
 4572SOL    HW214061   2.129   3.263   4.098
 4573SOL     OW14062   1.967   2.875   5.450
 4573SOL    HW114063   1.890   2.842   5.504
 4573SOL    HW214064   2.052   2.845   5.492
 4574SOL     OW14065   2.534   2.065   5.213
 4574SOL    HW114066   2.624   2.049   5.173
 4574SOL    HW214067   2.542   2.070   5.312
 4575SOL     OW14068   1.937   2.207   3.757
 4575SOL    HW114069   1.845   2.179   3.728
 4575SOL    HW214070   1.968   2.284   3.701
 4576SOL     OW14071   3.302   2.718   5.122
 4576SOL    HW114072   3.245   2.770   5.059
 4576SOL    HW214073   3.398   2.730   5.098
 4577SOL     OW14074   1.934   2.028   4.042
 4577SOL    HW114075   1.917   2.111   3.988
 4577SOL    HW214076   2.024   1.991   4.020
 4578SOL     OW14077   3.045   3.197   3.843
 4578SOL    HW114078   2.946   3.186   3.845
 4578SOL    HW214079   3.079   3.212   3.936
 4579SOL     OW14080   2.475   2.704   5.155
 4579SOL    HW114081   2.531   2.785   5.138
 4579SOL    HW214082   2.534   2.624   5.158
 4580SOL     OW14083   3.355   3.629   4.683
 4580SOL    HW114084   3.388   3.693   4.614
 4580SOL    HW214085   3.421   3.623   4.758
 4581SOL     OW14086   2.578   2.427   5.432
 4581SOL    HW114087   2.597   2.492   5.506
 4581SOL    HW214088   2.638   2.347   5.441
 4582SOL     OW14089   3.312   3.082   5.357
 4582SOL    HW114090   3.303   3.072   5.456
 4582SOL    HW214091   3.408   3.075   5.331
 4583SOL     OW14092   2.252   3.603   5.284
 4583SOL    HW114093   2.161   3.644   5.282
 4583SOL    HW214094   2.245   3.509   5.316
 4584SOL     OW14095   3.536   2.745   4.978
 4584SOL    HW114096   3.509   2.656   4.941
 4584SOL    HW214097   3.537   2.813   4.905
 4585SOL     OW14098   3.087   2.187   4.173
 4585SOL    HW114099   3.152   2.113   4.162
 4585SOL    HW214100   3.107   2.237   4.257
 4586SOL     OW14101   2.456   2.607   4.376
 4586SOL    HW114102   2.506   2.692   4.357
 4586SOL    HW214103   2.368   2.609   4.328
 4587SOL     OW14104   3.639   2.204   5.366
 4587SOL    HW114105   3.622   2.235   5.272
 4587SOL    HW214106   3.555   2.167   5.404
 4588SOL     OW14107   3.592   2.796   5.241
 4588SOL    HW114108   3.630   2.887   5.256
 4588SOL    HW214109   3.584   2.779   5.142
 4589SOL     OW14110   2.721   3.236   3.740
 4589SOL    HW114111   2.675   3.251   3.828
 4589SOL    HW214112   2.765   3.321   3.710
 4590SOL     OW14113   2.523   3.652   4.677
 4590SOL    HW114114   2.477   3.740   4.664
 4590SOL    HW214115   2.622   3.664   4.670
 4591SOL     OW14116   2.721   2.818   4.585
 4591SOL    HW114117   2.775   2.749   4.633
 4591SOL    HW214118   2.689   2.887   4.651
 4592SOL     OW14119   2.945   2.846   3.811
 4592SOL    HW114120   2.922   2.899   3.729
 4592SOL    HW214121   3.026   2.790   3.792
 4593SOL     OW14122   3.723   3.431   4.575
 4593SOL    HW114123   3.652   3.419   4.505
 4593SOL    HW214124   3.724   3.352   4.635
 4594SOL     OW14125   2.083   3.176   5.568
 4594SOL    HW114126   2.018   3.103   5.547
 4594SOL    HW214127   2.087   3.190   5.666
 4595SOL     OW14128   1.941   3.102   4.377
 4595SOL    HW114129   1.940   3.055   4.465
 4595SOL    HW214130   2.023   3.074   4.326
 4596SOL     OW14131   2.534   3.253   5.348
 4596SOL    HW114132   2.456   3.203   5.386
 4596SOL    HW214133   2.531   3.348   5.379
 4597SOL     OW14134   3.686   2.054   4.951
 4597SOL    HW114135   3.682   1.964   4.995
 4597SOL    HW214136   3.689   2.043   4.852
 4598SOL     OW14137   2.290   2.286   4.244
 4598SOL    HW114138   2.320   2.214   4.182
 4598SOL    HW214139   2.251   2.246   4.327
 4599SOL     OW14140   3.567   3.349   4.828
 4599SOL    HW114141   3.474   3.324   4.801
 4599SOL    HW214142   3.593   3.299   4.910
 4600SOL     OW14143   2.179   2.409   5.004
 4600SOL    HW114144   2.217   2.350   5.076
 4600SOL    HW214145   2.219   2.383   4.916
 4601SOL     OW14146   2.674   3.448   4.411
 4601SOL    HW114147   2.706   3.458   4.317
 4601SOL    HW214148   2.595   3.386   4.413
 4602SOL     OW14149   3.286   2.076   4.836
 4602SOL    HW114150   3.338   2.011   4.891
 4602SOL    HW214151   3.237   2.139   4.897
 4603SOL     OW14152   2.863   1.896   4.878
 4603SOL    HW114153   2.800   1.824   4.847
 4603SOL    HW214154   2.956   1.860   4.878
 4604SOL     OW14155   2.632   3.192   4.025
 4604SOL    HW114156   2.586   3.105   4.042
 4604SOL    HW214157   2.723   3.189   4.066
 4605SOL     OW14158   2.480   3.429   5.008
 4605SOL    HW114159   2.475   3.511   5.065
 4605SOL    HW214160   2.569   3.426   4.963
 4606SOL     OW14161   3.214   1.914   3.892
 4606SOL    HW114162   3.249   1.873   3.808
 4606SOL    HW214163   3.124   1.876   3.912
 4607SOL     OW14164   3.162   2.315   4.415
 4607SOL    HW114165   3.103   2.395   4.419
 4607SOL    HW214166   3.177   2.280   4.508
 4608SOL     OW14167   3.455   2.083   4.606
 4608SOL    HW114168   3.371   2.082   4.660
 4608SOL    HW214169   3.457   2.166   4.550
 4609SOL     OW14170   1.901   2.939   4.024
 4609SOL    HW114171   2.000   2.928   4.015
 4609SOL    HW214172   1.861   2.853   4.056
 4610SOL     OW14173   2.737   3.508   4.061
 4610SOL    HW114174   2.660   3.473   4.007
 4610SOL    HW214175   2.705   3.579   4.123
 4611SOL     OW14176   2.092   2.490   5.699
 4611SOL    HW114177   1.999   2.488   5.736
 4611SOL    HW214178   2.093   2.451   5.607
 4612SOL     OW14179   2.087   2.137   6.582
 4612SOL    HW114180   2.122   2.120   6.674
 4612SOL    HW214181   1.999   2.092   6.570
 4613SOL     OW14182   1.881   2.230   6.233
 4613SOL    HW114183   1.799   2.273   6.272
 4613SOL    HW214184   1.853   2.157   6.170
 4614SOL     OW14185   2.431   3.137   6.751
 4614SOL    HW114186   2.338   3.130   6.714
 4614SOL    HW214187   2.442   3.226   6.795
 4615SOL     OW14188   3.417   3.373   6.289
 4615SOL    HW114189   3.360   3.357   6.370
 4615SOL    HW214190   3.358   3.383   6.209
 4616SOL     OW14191   2.997   2.565   6.303
 4616SOL    HW114192   3.054   2.643   6.278
 4616SOL    HW214193   2.937   2.591   6.379
 4617SOL     OW14194   3.617   2.469   5.817
 4617SOL    HW114195   3.605   2.456   5.718
 4617SOL    HW214196   3.587   2.388   5.866
 4618SOL     OW14197   2.547   2.874   6.251
 4618SOL    HW114198   2.616   2.858   6.321
 4618SOL    HW214199   2.474   2.931   6.289
 4619SOL     OW14200   2.197   3.297   6.647
 4619SOL    HW114201   2.119   3.266   6.594
 4619SOL    HW214202   2.255   3.355   6.590
 4620SOL     OW14203   3.465   2.309   6.323
 4620SOL    HW114204   3.391   2.355   6.273
 4620SOL    HW214205   3.516   2.377   6.376
 4621SOL     OW14206   2.093   3.575   6.069
 4621SOL    HW114207   2.127   3.652   6.123
 4621SOL    HW214208   2.137   3.575   5.979
 4622SOL     OW14209   2.092   3.296   6.124
 4622SOL    HW114210   2.066   3.392   6.124
 4622SOL    HW214211   2.021   3.242   6.169
 4623SOL     OW14212   2.102   2.953   6.472
 4623SOL    HW114213   2.116   2.869   6.524
 4623SOL    HW214214   2.047   3.017   6.527
 4624SOL     OW14215   2.468   2.826   5.709
 4624SOL    HW114216   2.475   2.910   5.655
 4624SOL    HW214217   2.514   2.839   5.797
 4625SOL     OW14218   1.984   2.505   6.149
 4625SOL    HW114219   1.939   2.417   6.166
 4625SOL    HW214220   1.983   2.559   6.233
 4626SOL     OW14221   3.704   3.629   5.945
 4626SOL    HW114222   3.758   3.600   6.025
 4626SOL    HW214223   3.734   3.719   5.916
 4627SOL     OW14224   1.889   3.458   5.703
 4627SOL    HW114225   1.870   3.362   5.724
 4627SOL    HW214226   1.856   3.516   5.778
 4628SOL     OW14227   3.551   2.784   6.198
 4628SOL    HW114228   3.646   2.755   6.206
 4628SOL    HW214229   3.543   2.849   6.123
 4629SOL     OW14230   3.503   2.970   6.018
 4629SOL    HW114231   3.589   2.972   5.966
 4629SOL    HW214232   3.517   3.017   6.106
 4630SOL     OW14233   2.475   3.227   6.312
 4630SOL    HW114234   2.426   3.140   6.321
 4630SOL    HW214235   2.452   3.270   6.225
 4631SOL     OW14236   2.671   1.866   6.088
 4631SOL    HW114237   2.711   1.957   6.079
 4631SOL    HW214238   2.571   1.874   6.094
 4632SOL     OW14239   3.387   2.861   5.776
 4632SOL    HW114240   3.324   2.785   5.789
 4632SOL    HW214241   3.435   2.879   5.862
 4633SOL     OW14242   3.529   3.576   6.158
 4633SOL    HW114243   3.488   3.553   6.070
 4633SOL    HW214244   3.511   3.502   6.223
 4634SOL     OW14245   2.460   2.591   5.856
 4634SOL    HW114246   2.484   2.660   5.788
 4634SOL    HW214247   2.382   2.624   5.910
 4635SOL     OW14248   3.143   2.207   6.530
 4635SOL    HW114249   3.057   2.157   6.517
 4635SOL    HW214250   3.205   2.153   6.586
 4636SOL     OW14251   3.438   3.524   5.893
 4636SOL    HW114252   3.527   3.570   5.896
 4636SOL    HW214253   3.417   3.500   5.798
 4637SOL     OW14254   2.853   2.272   6.828
 4637SOL    HW114255   2.776   2.306   6.882
 4637SOL    HW214256   2.819   2.221   6.749
 4638SOL     OW14257   2.903   2.563   6.015
 4638SOL    HW114258   2.929   2.559   6.111
 4638SOL    HW214259   2.818   2.512   6.001
 4639SOL     OW14260   1.938   2.673   6.375
 4639SOL    HW114261   2.037   2.661   6.384
 4639SOL    HW214262   1.914   2.768   6.396
 4640SOL     OW14263   2.727   2.210   5.781
 4640SOL    HW114264   2.786   2.273   5.732
 4640SOL    HW214265   2.746   2.116   5.752
 4641SOL     OW14266   3.224   3.006   6.131
 4641SOL    HW114267   3.307   2.977   6.083
 4641SOL    HW214268   3.175   3.073   6.075
 4642SOL     OW14269   2.412   2.058   6.471
 4642SOL    HW114270   2.407   2.053   6.571
 4642SOL    HW214271   2.414   2.154   6.442
 4643SOL     OW14272   2.870   3.318   6.063
 4643SOL    HW114273   2.824   3.390   6.011
 4643SOL    HW214274   2.866   3.338   6.161
 4644SOL     OW14275   2.213   3.663   6.439
 4644SOL    HW114276   2.263   3.577   6.445
 4644SOL    HW214277   2.278   3.740   6.436
 4645SOL     OW14278   2.183   2.805   5.828
 4645SOL    HW114279   2.265   2.844   5.786
 4645SOL    HW214280   2.156   2.723   5.779
 4646SOL     OW14281   3.320   2.597   6.314
 4646SOL    HW114282   3.315   2.532   6.389
 4646SOL    HW214283   3.400   2.656   6.327
 4647SOL     OW14284   2.973   3.638   5.823
 4647SOL    HW114285   2.913   3.576   5.873
 4647SOL    HW214286   3.004   3.594   5.738
 4648SOL     OW14287   3.494   3.239   5.667
 4648SOL    HW114288   3.462   3.333   5.657
 4648SOL    HW214289   3.418   3.176   5.655
 4649SOL     OW14290   2.326   3.605   5.909
 4649SOL    HW114291   2.359   3.644   5.995
 4649SOL    HW214292   2.402   3.598   5.844
 4650SOL     OW14293   3.262   1.969   6.012
 4650SOL    HW114294   3.238   1.932   5.922
 4650SOL    HW214295   3.361   1.985   6.016
 4651SOL     OW14296   2.111   3.647   6.827
 4651SOL    HW114297   2.168   3.582   6.877
 4651SOL    HW214298   2.095   3.614   6.734
 4652SOL     OW14299   2.802   3.560   6.490
 4652SOL    HW114300   2.882   3.503   6.511
 4652SOL    HW214301   2.753   3.520   6.413
 4653SOL     OW14302   2.244   2.562   6.066
 4653SOL    HW114303   2.289   2.472   6.063
 4653SOL    HW214304   2.150   2.551   6.099
 4654SOL     OW14305   2.476   1.984   5.703
 4654SOL    HW114306   2.574   1.962   5.710
 4654SOL    HW214307   2.445   1.967   5.610
 4655SOL     OW14308   2.665   3.264   6.510
 4655SOL    HW114309   2.755   3.278   6.468
 4655SOL    HW214310   2.594   3.266   6.439
 4656SOL     OW14311   2.401   1.926   6.098
 4656SOL    HW114312   2.320   1.927   6.156
 4656SOL    HW214313   2.404   2.009   6.043
 4657SOL     OW14314   3.296   3.050   5.627
 4657SOL    HW114315   3.328   2.974   5.684
 4657SOL    HW214316   3.204   3.077   5.657
 4658SOL     OW14317   2.159   1.897   5.757
 4658SOL    HW114318   2.208   1.981   5.736
 4658SOL    HW214319   2.221   1.832   5.802
 4659SOL     OW14320   2.797   2.098   6.066
 4659SOL    HW114321   2.749   2.139   5.988
 4659SOL    HW214322   2.896   2.096   6.047
 4660SOL     OW14323   3.089   3.432   6.379
 4660SOL    HW114324   3.110   3.506   6.314
 4660SOL    HW214325   3.157   3.432   6.452
 4661SOL     OW14326   2.321   3.014   6.327
 4661SOL    HW114327   2.250   2.987   6.392
 4661SOL    HW214328   2.295   2.986   6.234
 4662SOL     OW14329   3.133   3.659   6.177
 4662SOL    HW114330   3.177   3.723   6.113
 4662SOL    HW214331   3.083   3.711   6.247
 4663SOL     OW14332   2.894   2.411   5.602
 4663SOL    HW114333   2.853   2.493   5.563
 4663SOL    HW214334   2.958   2.437   5.675
 4664SOL     OW14335   2.423   2.084   6.733
 4664SOL    HW114336   2.461   2.000   6.770
 4664SOL    HW214337   2.335   2.103   6.777
 4665SOL     OW14338   2.728   2.316   6.228
 4665SOL    HW114339   2.696   2.388   6.166
 4665SOL    HW214340   2.752   2.235   6.175
 4666SOL     OW14341   2.879   1.901   6.339
 4666SOL    HW114342   2.807   1.906   6.270
 4666SOL    HW214343   2.855   1.832   6.408
 4667SOL     OW14344   3.291   3.035   6.453
 4667SOL    HW114345   3.236   2.951   6.446
 4667SOL    HW214346   3.317   3.064   6.361
 4668SOL     OW14347   3.328   2.452   6.578
 4668SOL    HW114348   3.298   2.357   6.585
 4668SOL    HW214349   3.401   2.468   6.644
 4669SOL     OW14350   3.719   2.695   5.963
 4669SOL    HW114351   3.761   2.631   6.027
 4669SOL    HW214352   3.681   2.644   5.885
 4670SOL     OW14353   2.350   3.247   5.760
 4670SOL    HW114354   2.263   3.232   5.807
 4670SOL    HW214355   2.333   3.273   5.665
 4671SOL     OW14356   3.526   3.142   6.243
 4671SOL    HW114357   3.625   3.150   6.257
 4671SOL    HW214358   3.481   3.226   6.274
 4672SOL     OW14359   3.252   2.437   5.664
 4672SOL    HW114360   3.198   2.416   5.745
 4672SOL    HW214361   3.343   2.396   5.673
 4673SOL     OW14362   2.389   2.118   5.914
 4673SOL    HW114363   2.416   2.059   5.839
 4673SOL    HW214364   2.389   2.213   5.883
 4674SOL     OW14365   3.500   2.961   6.665
 4674SOL    HW114366   3.505   3.042   6.724
 4674SOL    HW214367   3.414   2.963   6.614
 4675SOL     OW14368   2.567   2.912   5.954
 4675SOL    HW114369   2.553   2.919   6.053
 4675SOL    HW214370   2.651   2.861   5.936
 4676SOL     OW14371   2.229   2.962   6.087
 4676SOL    HW114372   2.222   3.045   6.031
 4676SOL    HW214373   2.233   2.882   6.027
 4677SOL     OW14374   2.428   2.399   6.451
 4677SOL    HW114375   2.440   2.465   6.377
 4677SOL    HW214376   2.474   2.433   6.534
 4678SOL     OW14377   3.114   3.210   5.974
 4678SOL    HW114378   3.164   3.287   6.014
 4678SOL    HW214379   3.019   3.212   6.006
 4679SOL     OW14380   3.444   2.501   6.058
 4679SOL    HW114381   3.413   2.562   6.131
 4679SOL    HW214382   3.494   2.553   5.989
 4680SOL     OW14383   2.435   2.732   6.615
 4680SOL    HW114384   2.479   2.821   6.606
 4680SOL    HW214385   2.372   2.732   6.692
 4681SOL     OW14386   3.071   2.387   5.861
 4681SOL    HW114387   3.084   2.303   5.915
 4681SOL    HW214388   3.042   2.461   5.921
 4682SOL     OW14389   2.594   2.496   6.650
 4682SOL    HW114390   2.653   2.470   6.574
 4682SOL    HW214391   2.566   2.592   6.639
 4683SOL     OW14392   2.169   1.925   6.204
 4683SOL    HW114393   2.158   2.019   6.237
 4683SOL    HW214394   2.164   1.862   6.281
 4684SOL     OW14395   3.484   2.229   5.960
 4684SOL    HW114396   3.486   2.153   6.024
 4684SOL    HW214397   3.436   2.306   6.000
 4685SOL     OW14398   3.402   2.136   5.711
 4685SOL    HW114399   3.341   2.061   5.734
 4685SOL    HW214400   3.424   2.188   5.794
 4686SOL     OW14401   3.165   2.700   5.628
 4686SOL    HW114402   3.199   2.607   5.643
 4686SOL    HW214403   3.183   2.727   5.533
 4687SOL     OW14404   2.930   3.195   6.435
 4687SOL    HW114405   2.937   3.111   6.380
 4687SOL    HW214406   2.992   3.264   6.399
 4688SOL     OW14407   2.181   2.672   6.535
 4688SOL    HW114408   2.274   2.708   6.540
 4688SOL    HW214409   2.175   2.587   6.587
 4689SOL     OW14410   2.201   2.371   6.592
 4689SOL    HW114411   2.149   2.288   6.575
 4689SOL    HW214412   2.278   2.376   6.528
 4690SOL     OW14413   1.870   3.188   5.786
 4690SOL    HW114414   1.777   3.209   5.755
 4690SOL    HW214415   1.880   3.089   5.799
 4691SOL     OW14416   1.950   3.663   6.513
 4691SOL    HW114417   1.908   3.577   6.486
 4691SOL    HW214418   2.044   3.666   6.479
 4692SOL     OW14419   2.366   3.430   6.496
 4692SOL    HW114420   2.432   3.504   6.505
 4692SOL    HW214421   2.410   3.351   6.454
 4693SOL     OW14422   1.902   2.406   6.700
 4693SOL    HW114423   1.987   2.373   6.659
 4693SOL    HW214424   1.915   2.421   6.798
 4694SOL     OW14425   2.677   2.434   5.911
 4694SOL    HW114426   2.684   2.345   5.865
 4694SOL    HW214427   2.583   2.468   5.903
 4695SOL     OW14428   2.533   2.326   6.855
 4695SOL    HW114429   2.499   2.237   6.825
 4695SOL    HW214430   2.559   2.380   6.775
 4696SOL     OW14431   2.335   2.362   5.777
 4696SOL    HW114432   2.396   2.442   5.781
 4696SOL    HW214433   2.240   2.393   5.784
 4697SOL     OW14434   3.164   2.717   5.895
 4697SOL    HW114435   3.078   2.686   5.937
 4697SOL    HW214436   3.160   2.703   5.796
 4698SOL     OW14437   1.945   3.120   6.608
 4698SOL    HW114438   1.940   3.119   6.708
 4698SOL    HW214439   1.862   3.079   6.570
 4699SOL     OW14440   3.588   1.997   6.109
 4699SOL    HW114441   3.661   1.980   6.042
 4699SOL    HW214442   3.557   1.910   6.147
 4700SOL     OW14443   3.250   3.435   6.063
 4700SOL    HW114444   3.317   3.447   5.989
 4700SOL    HW214445   3.210   3.524   6.086
 4701SOL     OW14446   3.142   2.789   6.258
 4701SOL    HW114447   3.202   2.708   6.260
 4701SOL    HW214448   3.182   2.858   6.198
 4702SOL     OW14449   2.534   3.478   5.740
 4702SOL    HW114450   2.543   3.488   5.641
 4702SOL    HW214451   2.494   3.389   5.761
 4703SOL     OW14452   3.703   2.037   6.549
 4703SOL    HW114453   3.742   1.952   6.513
 4703SOL    HW214454   3.605   2.039   6.530
 4704SOL     OW14455   2.125   2.188   6.306
 4704SOL    HW114456   2.046   2.239   6.272
 4704SOL    HW214457   2.116   2.173   6.404
 4705SOL     OW14458   3.056   3.474   5.617
 4705SOL    HW114459   3.062   3.381   5.654
 4705SOL    HW214460   2.997   3.474   5.537
 4706SOL     OW14461   2.778   2.772   5.877
 4706SOL    HW114462   2.841   2.810   5.809
 4706SOL    HW214463   2.818   2.689   5.916
 4707SOL     OW14464   3.366   3.469   5.630
 4707SOL    HW114465   3.274   3.506   5.637
 4707SOL    HW214466   3.404   3.489   5.540
 4708SOL     OW14467   2.901   2.960   6.282
 4708SOL    HW114468   2.831   2.913   6.336
 4708SOL    HW214469   2.960   2.892   6.239
 4709SOL     OW14470   2.452   3.349   6.077
 4709SOL    HW114471   2.494   3.291   6.007
 4709SOL    HW214472   2.408   3.428   6.033
 4710SOL     OW14473   2.117   3.210   5.876
 4710SOL    HW114474   2.021   3.211   5.849
 4710SOL    HW214475   2.129   3.263   5.960
 4711SOL     OW14476   1.937   2.207   5.619
 4711SOL    HW114477   1.845   2.179   5.590
 4711SOL    HW214478   1.968   2.284   5.563
 4712SOL     OW14479   1.934   2.028   5.904
 4712SOL    HW114480   1.917   2.111   5.850
 4712SOL    HW214481   2.024   1.991   5.882
 4713SOL     OW14482   3.045   3.197   5.705
 4713SOL    HW114483   2.946   3.186   5.707
 4713SOL    HW214484   3.079   3.212   5.798
 4714SOL     OW14485   3.355   3.629   6.545
 4714SOL    HW114486   3.388   3.693   6.476
 4714SOL    HW214487   3.421   3.623   6.620
 4715SOL     OW14488   3.087   2.187   6.035
 4715SOL    HW114489   3.152   2.113   6.024
 4715SOL    HW214490   3.107   2.237   6.119
 4716SOL     OW14491   2.456   2.607   6.238
 4716SOL    HW114492   2.506   2.692   6.219
 4716SOL    HW214493   2.368   2.609   6.190
 4717SOL     OW14494   2.721   3.236   5.602
 4717SOL    HW114495   2.675   3.251   5.690
 4717SOL    HW214496   2.765   3.321   5.572
 4718SOL     OW14497   2.523   3.652   6.539
 4718SOL    HW114498   2.477   3.740   6.526
 4718SOL    HW214499   2.622   3.664   6.532
 4719SOL     OW14500   2.721   2.818   6.447
 4719SOL    HW114501   2.775   2.749   6.495
 4719SOL    HW214502   2.689   2.887   6.513
 4720SOL     OW14503   2.945   2.846   5.673
 4720SOL    HW114504   2.922   2.899   5.591
 4720SOL    HW214505   3.026   2.790   5.654
 4721SOL     OW14506   1.941   3.102   6.239
 4721SOL    HW114507   1.940   3.055   6.327
 4721SOL    HW214508   2.023   3.074   6.188
 4722SOL     OW14509   3.686   2.054   6.813
 4722SOL    HW114510   3.682   1.964   6.857
 4722SOL    HW214511   3.689   2.043   6.714
 4723SOL     OW14512   2.290   2.286   6.106
 4723SOL    HW114513   2.320   2.214   6.044
 4723SOL    HW214514   2.251   2.246   6.189
 4724SOL     OW14515   2.179   2.409   6.866
 4724SOL    HW114516   2.217   2.350   6.938
 4724SOL    HW214517   2.219   2.383   6.778
 4725SOL     OW14518   2.674   3.448   6.273
 4725SOL    HW114519   2.706   3.458   6.179
 4725SOL    HW214520   2.595   3.386   6.275
 4726SOL     OW14521   2.632   3.192   5.887
 4726SOL    HW114522   2.586   3.105   5.904
 4726SOL    HW214523   2.723   3.189   5.928
 4727SOL     OW14524   3.214   1.914   5.754
 4727SOL    HW114525   3.249   1.873   5.670
 4727SOL    HW214526   3.124   1.876   5.774
 4728SOL     OW14527   3.162   2.315   6.277
 4728SOL    HW114528   3.103   2.395   6.281
 4728SOL    HW214529   3.177   2.280   6.370
 4729SOL     OW14530   3.455   2.083   6.468
 4729SOL    HW114531   3.371   2.082   6.522
 4729SOL    HW214532   3.457   2.166   6.412
 4730SOL     OW14533   1.901   2.939   5.886
 4730SOL    HW114534   2.000   2.928   5.877
 4730SOL    HW214535   1.861   2.853   5.918
 4731SOL     OW14536   2.737   3.508   5.923
 4731SOL    HW114537   2.660   3.473   5.869
 4731SOL    HW214538   2.705   3.579   5.985
 4732SOL     OW14539   2.092   4.352   0.113
 4732SOL    HW114540   1.999   4.350   0.150
 4732SOL    HW214541   2.093   4.313   0.021
 4733SOL     OW14542   2.087   3.999   0.996
 4733SOL    HW114543   2.122   3.982   1.088
 4733SOL    HW214544   1.999   3.954   0.984
 4734SOL     OW14545   1.881   4.092   0.647
 4734SOL    HW114546   1.799   4.135   0.686
 4734SOL    HW214547   1.853   4.019   0.584
 4735SOL     OW14548   2.431   4.999   1.165
 4735SOL    HW114549   2.338   4.992   1.128
 4735SOL    HW214550   2.442   5.088   1.209
 4736SOL     OW14551   3.417   5.235   0.703
 4736SOL    HW114552   3.360   5.219   0.784
 4736SOL    HW214553   3.358   5.245   0.623
 4737SOL     OW14554   2.997   4.427   0.717
 4737SOL    HW114555   3.054   4.505   0.692
 4737SOL    HW214556   2.937   4.453   0.793
 4738SOL     OW14557   3.617   4.331   0.231
 4738SOL    HW114558   3.605   4.318   0.132
 4738SOL    HW214559   3.587   4.250   0.280
 4739SOL     OW14560   2.630   4.868   1.023
 4739SOL    HW114561   2.552   4.885   1.083
 4739SOL    HW214562   2.664   4.955   0.987
 4740SOL     OW14563   2.547   4.736   0.665
 4740SOL    HW114564   2.616   4.720   0.735
 4740SOL    HW214565   2.474   4.793   0.703
 4741SOL     OW14566   2.548   4.885   1.803
 4741SOL    HW114567   2.608   4.964   1.817
 4741SOL    HW214568   2.462   4.916   1.762
 4742SOL     OW14569   2.197   5.159   1.061
 4742SOL    HW114570   2.119   5.128   1.008
 4742SOL    HW214571   2.255   5.217   1.004
 4743SOL     OW14572   3.322   5.229   1.339
 4743SOL    HW114573   3.346   5.323   1.365
 4743SOL    HW214574   3.306   5.175   1.421
 4744SOL     OW14575   2.300   4.116   1.499
 4744SOL    HW114576   2.382   4.060   1.508
 4744SOL    HW214577   2.219   4.058   1.503
 4745SOL     OW14578   3.465   4.171   0.737
 4745SOL    HW114579   3.391   4.217   0.687
 4745SOL    HW214580   3.516   4.239   0.790
 4746SOL     OW14581   2.093   5.437   0.483
 4746SOL    HW114582   2.127   5.514   0.537
 4746SOL    HW214583   2.137   5.437   0.393
 4747SOL     OW14584   2.989   5.065   1.690
 4747SOL    HW114585   3.036   5.065   1.778
 4747SOL    HW214586   2.941   4.978   1.679
 4748SOL     OW14587   2.092   5.158   0.538
 4748SOL    HW114588   2.066   5.254   0.538
 4748SOL    HW214589   2.021   5.104   0.583
 4749SOL     OW14590   2.102   4.815   0.886
 4749SOL    HW114591   2.116   4.731   0.938
 4749SOL    HW214592   2.047   4.879   0.941
 4750SOL     OW14593   2.482   5.510   1.439
 4750SOL    HW114594   2.390   5.493   1.474
 4750SOL    HW214595   2.510   5.602   1.465
 4751SOL     OW14596   2.468   4.688   0.123
 4751SOL    HW114597   2.475   4.772   0.069
 4751SOL    HW214598   2.514   4.701   0.211
 4752SOL     OW14599   3.456   3.838   1.480
 4752SOL    HW114600   3.438   3.905   1.408
 4752SOL    HW214601   3.453   3.884   1.569
 4753SOL     OW14602   1.984   4.367   0.563
 4753SOL    HW114603   1.939   4.279   0.580
 4753SOL    HW214604   1.983   4.421   0.647
 4754SOL     OW14605   3.704   5.491   0.359
 4754SOL    HW114606   3.758   5.462   0.439
 4754SOL    HW214607   3.734   5.581   0.330
 4755SOL     OW14608   1.889   5.320   0.117
 4755SOL    HW114609   1.870   5.224   0.138
 4755SOL    HW214610   1.856   5.378   0.192
 4756SOL     OW14611   3.551   4.646   0.612
 4756SOL    HW114612   3.646   4.617   0.620
 4756SOL    HW214613   3.543   4.711   0.537
 4757SOL     OW14614   3.503   4.832   0.432
 4757SOL    HW114615   3.589   4.834   0.380
 4757SOL    HW214616   3.517   4.879   0.520
 4758SOL     OW14617   1.975   4.461   1.597
 4758SOL    HW114618   2.063   4.448   1.642
 4758SOL    HW214619   1.962   4.558   1.575
 4759SOL     OW14620   2.475   5.089   0.726
 4759SOL    HW114621   2.426   5.002   0.735
 4759SOL    HW214622   2.452   5.132   0.639
 4760SOL     OW14623   3.155   4.952   1.423
 4760SOL    HW114624   3.192   4.879   1.365
 4760SOL    HW214625   3.207   4.957   1.508
 4761SOL     OW14626   2.671   3.728   0.502
 4761SOL    HW114627   2.711   3.819   0.493
 4761SOL    HW214628   2.571   3.736   0.508
 4762SOL     OW14629   3.387   4.723   0.190
 4762SOL    HW114630   3.324   4.647   0.203
 4762SOL    HW214631   3.435   4.741   0.276
 4763SOL     OW14632   3.049   5.516   1.616
 4763SOL    HW114633   3.073   5.576   1.540
 4763SOL    HW214634   3.056   5.421   1.586
 4764SOL     OW14635   2.179   3.975   1.801
 4764SOL    HW114636   2.250   4.046   1.807
 4764SOL    HW214637   2.091   4.014   1.829
 4765SOL     OW14638   3.328   5.141   0.953
 4765SOL    HW114639   3.269   5.147   1.033
 4765SOL    HW214640   3.313   5.053   0.907
 4766SOL     OW14641   3.529   5.438   0.572
 4766SOL    HW114642   3.488   5.415   0.484
 4766SOL    HW214643   3.511   5.364   0.637
 4767SOL     OW14644   2.460   4.453   0.270
 4767SOL    HW114645   2.484   4.522   0.202
 4767SOL    HW214646   2.382   4.486   0.324
 4768SOL     OW14647   3.143   4.069   0.944
 4768SOL    HW114648   3.057   4.019   0.931
 4768SOL    HW214649   3.205   4.015   1.000
 4769SOL     OW14650   3.438   5.386   0.307
 4769SOL    HW114651   3.527   5.432   0.310
 4769SOL    HW214652   3.417   5.362   0.212
 4770SOL     OW14653   2.669   4.329   1.465
 4770SOL    HW114654   2.622   4.326   1.554
 4770SOL    HW214655   2.618   4.274   1.399
 4771SOL     OW14656   3.256   4.193   1.674
 4771SOL    HW114657   3.236   4.236   1.762
 4771SOL    HW214658   3.334   4.131   1.683
 4772SOL     OW14659   2.835   4.614   1.572
 4772SOL    HW114660   2.881   4.530   1.543
 4772SOL    HW214661   2.779   4.648   1.497
 4773SOL     OW14662   2.853   4.134   1.242
 4773SOL    HW114663   2.776   4.168   1.296
 4773SOL    HW214664   2.819   4.083   1.163
 4774SOL     OW14665   2.903   4.425   0.429
 4774SOL    HW114666   2.929   4.421   0.525
 4774SOL    HW214667   2.818   4.374   0.415
 4775SOL     OW14668   1.938   4.535   0.789
 4775SOL    HW114669   2.037   4.523   0.798
 4775SOL    HW214670   1.914   4.630   0.810
 4776SOL     OW14671   1.992   5.545   1.571
 4776SOL    HW114672   1.982   5.530   1.670
 4776SOL    HW214673   1.906   5.581   1.535
 4777SOL     OW14674   2.727   4.072   0.195
 4777SOL    HW114675   2.786   4.135   0.146
 4777SOL    HW214676   2.746   3.978   0.166
 4778SOL     OW14677   3.581   4.309   1.831
 4778SOL    HW114678   3.555   4.398   1.795
 4778SOL    HW214679   3.579   4.241   1.758
 4779SOL     OW14680   3.224   4.868   0.545
 4779SOL    HW114681   3.307   4.839   0.497
 4779SOL    HW214682   3.175   4.935   0.489
 4780SOL     OW14683   2.412   3.920   0.885
 4780SOL    HW114684   2.407   3.915   0.985
 4780SOL    HW214685   2.414   4.016   0.856
 4781SOL     OW14686   2.870   5.180   0.477
 4781SOL    HW114687   2.824   5.252   0.425
 4781SOL    HW214688   2.866   5.200   0.575
 4782SOL     OW14689   2.213   5.525   0.853
 4782SOL    HW114690   2.263   5.439   0.859
 4782SOL    HW214691   2.278   5.602   0.850
 4783SOL     OW14692   3.657   4.790   0.873
 4783SOL    HW114693   3.595   4.775   0.797
 4783SOL    HW214694   3.605   4.801   0.958
 4784SOL     OW14695   3.089   5.274   1.506
 4784SOL    HW114696   3.095   5.197   1.570
 4784SOL    HW214697   3.037   5.248   1.426
 4785SOL     OW14698   2.183   4.667   0.242
 4785SOL    HW114699   2.265   4.706   0.200
 4785SOL    HW214700   2.156   4.585   0.193
 4786SOL     OW14701   3.320   4.459   0.728
 4786SOL    HW114702   3.315   4.394   0.803
 4786SOL    HW214703   3.400   4.518   0.741
 4787SOL     OW14704   2.323   4.990   1.727
 4787SOL    HW114705   2.273   4.991   1.641
 4787SOL    HW214706   2.260   4.972   1.803
 4788SOL     OW14707   2.973   5.500   0.237
 4788SOL    HW114708   2.913   5.438   0.287
 4788SOL    HW214709   3.004   5.456   0.152
 4789SOL     OW14710   2.064   4.009   1.498
 4789SOL    HW114711   1.984   4.069   1.485
 4789SOL    HW214712   2.054   3.960   1.584
 4790SOL     OW14713   3.494   5.101   0.081
 4790SOL    HW114714   3.462   5.195   0.071
 4790SOL    HW214715   3.418   5.038   0.069
 4791SOL     OW14716   2.326   5.467   0.323
 4791SOL    HW114717   2.359   5.506   0.409
 4791SOL    HW214718   2.402   5.460   0.258
 4792SOL     OW14719   2.111   5.509   1.241
 4792SOL    HW114720   2.168   5.444   1.291
 4792SOL    HW214721   2.095   5.476   1.148
 4793SOL     OW14722   2.802   5.422   0.904
 4793SOL    HW114723   2.882   5.365   0.925
 4793SOL    HW214724   2.753   5.382   0.827
 4794SOL     OW14725   2.244   4.424   0.480
 4794SOL    HW114726   2.289   4.334   0.477
 4794SOL    HW214727   2.150   4.413   0.513
 4795SOL     OW14728   3.409   3.946   1.729
 4795SOL    HW114729   3.404   3.983   1.821
 4795SOL    HW214730   3.337   3.877   1.717
 4796SOL     OW14731   2.476   3.846   0.117
 4796SOL    HW114732   2.574   3.824   0.124
 4796SOL    HW214733   2.445   3.829   0.024
 4797SOL     OW14734   2.643   3.988   1.749
 4797SOL    HW114735   2.710   3.927   1.792
 4797SOL    HW214736   2.570   4.007   1.814
 4798SOL     OW14737   2.750   5.238   1.195
 4798SOL    HW114738   2.727   5.213   1.101
 4798SOL    HW214739   2.811   5.169   1.234
 4799SOL     OW14740   3.213   4.314   1.433
 4799SOL    HW114741   3.241   4.271   1.518
 4799SOL    HW214742   3.238   4.410   1.434
 4800SOL     OW14743   2.665   5.126   0.924
 4800SOL    HW114744   2.755   5.140   0.882
 4800SOL    HW214745   2.594   5.128   0.853
 4801SOL     OW14746   2.784   4.227   0.899
 4801SOL    HW114747   2.759   4.218   0.803
 4801SOL    HW214748   2.832   4.145   0.930
 4802SOL     OW14749   2.401   3.788   0.512
 4802SOL    HW114750   2.320   3.789   0.570
 4802SOL    HW214751   2.404   3.871   0.457
 4803SOL     OW14752   3.296   4.912   0.041
 4803SOL    HW114753   3.328   4.836   0.098
 4803SOL    HW214754   3.204   4.939   0.071
 4804SOL     OW14755   2.159   3.759   0.171
 4804SOL    HW114756   2.208   3.843   0.150
 4804SOL    HW214757   2.221   3.694   0.216
 4805SOL     OW14758   2.797   3.960   0.480
 4805SOL    HW114759   2.749   4.001   0.402
 4805SOL    HW214760   2.896   3.958   0.461
 4806SOL     OW14761   2.938   4.407   1.464
 4806SOL    HW114762   2.858   4.346   1.467
 4806SOL    HW214763   3.019   4.354   1.440
 4807SOL     OW14764   3.089   5.294   0.793
 4807SOL    HW114765   3.110   5.368   0.728
 4807SOL    HW214766   3.157   5.294   0.866
 4808SOL     OW14767   2.321   4.876   0.741
 4808SOL    HW114768   2.250   4.849   0.806
 4808SOL    HW214769   2.295   4.848   0.648
 4809SOL     OW14770   3.133   5.521   0.591
 4809SOL    HW114771   3.177   5.585   0.527
 4809SOL    HW214772   3.083   5.573   0.661
 4810SOL     OW14773   2.894   4.273   0.016
 4810SOL    HW114774   2.853   4.355  -0.023
 4810SOL    HW214775   2.958   4.299   0.089
 4811SOL     OW14776   1.940   4.280   1.386
 4811SOL    HW114777   2.032   4.279   1.345
 4811SOL    HW214778   1.934   4.354   1.453
 4812SOL     OW14779   2.423   3.946   1.147
 4812SOL    HW114780   2.461   3.862   1.184
 4812SOL    HW214781   2.335   3.965   1.191
 4813SOL     OW14782   2.728   4.178   0.642
 4813SOL    HW114783   2.696   4.250   0.580
 4813SOL    HW214784   2.752   4.097   0.589
 4814SOL     OW14785   2.879   3.763   0.753
 4814SOL    HW114786   2.807   3.768   0.684
 4814SOL    HW214787   2.855   3.694   0.822
 4815SOL     OW14788   3.291   4.897   0.867
 4815SOL    HW114789   3.236   4.813   0.860
 4815SOL    HW214790   3.317   4.926   0.775
 4816SOL     OW14791   3.328   4.314   0.992
 4816SOL    HW114792   3.298   4.219   0.999
 4816SOL    HW214793   3.401   4.330   1.058
 4817SOL     OW14794   3.719   4.557   0.377
 4817SOL    HW114795   3.761   4.493   0.441
 4817SOL    HW214796   3.681   4.506   0.299
 4818SOL     OW14797   2.350   5.109   0.174
 4818SOL    HW114798   2.263   5.094   0.221
 4818SOL    HW214799   2.333   5.135   0.079
 4819SOL     OW14800   3.526   5.004   0.657
 4819SOL    HW114801   3.625   5.012   0.671
 4819SOL    HW214802   3.481   5.088   0.688
 4820SOL     OW14803   3.252   4.299   0.078
 4820SOL    HW114804   3.198   4.278   0.159
 4820SOL    HW214805   3.343   4.258   0.087
 4821SOL     OW14806   2.389   3.980   0.328
 4821SOL    HW114807   2.416   3.921   0.253
 4821SOL    HW214808   2.389   4.075   0.297
 4822SOL     OW14809   3.616   4.947   1.588
 4822SOL    HW114810   3.707   4.908   1.575
 4822SOL    HW214811   3.624   5.043   1.612
 4823SOL     OW14812   2.926   5.071   1.340
 4823SOL    HW114813   2.846   5.048   1.395
 4823SOL    HW214814   3.009   5.045   1.389
 4824SOL     OW14815   3.454   5.353   1.625
 4824SOL    HW114816   3.481   5.387   1.535
 4824SOL    HW214817   3.533   5.315   1.671
 4825SOL     OW14818   2.973   4.919   1.100
 4825SOL    HW114819   2.933   4.963   1.181
 4825SOL    HW214820   2.932   4.956   1.017
 4826SOL     OW14821   3.500   4.823   1.079
 4826SOL    HW114822   3.505   4.904   1.138
 4826SOL    HW214823   3.414   4.825   1.028
 4827SOL     OW14824   2.777   3.813   1.402
 4827SOL    HW114825   2.802   3.793   1.307
 4827SOL    HW214826   2.849   3.869   1.444
 4828SOL     OW14827   2.842   4.840   1.719
 4828SOL    HW114828   2.743   4.846   1.729
 4828SOL    HW214829   2.865   4.760   1.663
 4829SOL     OW14830   2.567   4.774   0.368
 4829SOL    HW114831   2.553   4.781   0.467
 4829SOL    HW214832   2.651   4.723   0.350
 4830SOL     OW14833   2.272   4.537   1.251
 4830SOL    HW114834   2.358   4.549   1.301
 4830SOL    HW214835   2.230   4.450   1.278
 4831SOL     OW14836   3.136   4.110   1.262
 4831SOL    HW114837   3.157   4.184   1.326
 4831SOL    HW214838   3.047   4.127   1.219
 4832SOL     OW14839   1.926   5.288   1.331
 4832SOL    HW114840   1.880   5.370   1.297
 4832SOL    HW214841   2.024   5.307   1.340
 4833SOL     OW14842   2.229   4.824   0.501
 4833SOL    HW114843   2.222   4.907   0.445
 4833SOL    HW214844   2.233   4.744   0.441
 4834SOL     OW14845   2.428   4.261   0.865
 4834SOL    HW114846   2.440   4.327   0.791
 4834SOL    HW214847   2.474   4.295   0.948
 4835SOL     OW14848   3.114   5.072   0.388
 4835SOL    HW114849   3.164   5.149   0.428
 4835SOL    HW214850   3.019   5.074   0.420
 4836SOL     OW14851   3.134   5.169   1.142
 4836SOL    HW114852   3.181   5.182   1.229
 4836SOL    HW214853   3.068   5.095   1.151
 4837SOL     OW14854   3.444   4.363   0.472
 4837SOL    HW114855   3.413   4.424   0.545
 4837SOL    HW214856   3.494   4.415   0.403
 4838SOL     OW14857   2.216   5.234   1.329
 4838SOL    HW114858   2.195   5.190   1.242
 4838SOL    HW214859   2.313   5.260   1.332
 4839SOL     OW14860   2.264   4.475   1.598
 4839SOL    HW114861   2.332   4.530   1.551
 4839SOL    HW214862   2.304   4.387   1.625
 4840SOL     OW14863   3.449   4.503   1.670
 4840SOL    HW114864   3.357   4.541   1.665
 4840SOL    HW214865   3.509   4.550   1.605
 4841SOL     OW14866   2.875   3.829   1.770
 4841SOL    HW114867   2.881   3.914   1.718
 4841SOL    HW214868   2.907   3.753   1.713
 4842SOL     OW14869   2.366   3.774   1.740
 4842SOL    HW114870   2.324   3.717   1.670
 4842SOL    HW214871   2.300   3.843   1.772
 4843SOL     OW14872   2.435   4.594   1.029
 4843SOL    HW114873   2.479   4.683   1.020
 4843SOL    HW214874   2.372   4.594   1.106
 4844SOL     OW14875   3.222   4.586   1.045
 4844SOL    HW114876   3.147   4.586   0.979
 4844SOL    HW214877   3.259   4.494   1.054
 4845SOL     OW14878   3.071   4.249   0.275
 4845SOL    HW114879   3.084   4.165   0.329
 4845SOL    HW214880   3.042   4.323   0.335
 4846SOL     OW14881   2.169   3.937   1.231
 4846SOL    HW114882   2.146   3.974   1.321
 4846SOL    HW214883   2.139   3.842   1.225
 4847SOL     OW14884   1.899   5.034   1.282
 4847SOL    HW114885   1.952   4.985   1.350
 4847SOL    HW214886   1.921   5.132   1.287
 4848SOL     OW14887   2.594   4.358   1.064
 4848SOL    HW114888   2.653   4.332   0.988
 4848SOL    HW214889   2.566   4.454   1.053
 4849SOL     OW14890   3.590   4.659   1.854
 4849SOL    HW114891   3.544   4.652   1.765
 4849SOL    HW214892   3.528   4.703   1.920
 4850SOL     OW14893   2.169   3.787   0.618
 4850SOL    HW114894   2.158   3.881   0.651
 4850SOL    HW214895   2.164   3.724   0.695
 4851SOL     OW14896   3.484   4.091   0.374
 4851SOL    HW114897   3.486   4.015   0.438
 4851SOL    HW214898   3.436   4.168   0.414
 4852SOL     OW14899   2.885   4.490   0.966
 4852SOL    HW114900   2.900   4.511   1.062
 4852SOL    HW214901   2.855   4.395   0.957
 4853SOL     OW14902   2.842   5.297   1.700
 4853SOL    HW114903   2.822   5.341   1.612
 4853SOL    HW214904   2.881   5.206   1.684
 4854SOL     OW14905   3.721   5.242   1.605
 4854SOL    HW114906   3.735   5.269   1.510
 4854SOL    HW214907   3.804   5.264   1.658
 4855SOL     OW14908   2.212   4.622   1.804
 4855SOL    HW114909   2.288   4.666   1.852
 4855SOL    HW214910   2.247   4.575   1.722
 4856SOL     OW14911   3.165   4.562   0.042
 4856SOL    HW114912   3.199   4.469   0.057
 4856SOL    HW214913   3.183   4.589  -0.053
 4857SOL     OW14914   2.930   5.057   0.849
 4857SOL    HW114915   2.937   4.973   0.794
 4857SOL    HW214916   2.992   5.126   0.813
 4858SOL     OW14917   2.181   4.534   0.949
 4858SOL    HW114918   2.274   4.570   0.954
 4858SOL    HW214919   2.175   4.449   1.001
 4859SOL     OW14920   2.201   4.233   1.006
 4859SOL    HW114921   2.149   4.150   0.989
 4859SOL    HW214922   2.278   4.238   0.942
 4860SOL     OW14923   3.000   4.104   1.678
 4860SOL    HW114924   2.955   4.167   1.742
 4860SOL    HW214925   3.093   4.135   1.661
 4861SOL     OW14926   3.022   3.931   1.477
 4861SOL    HW114927   3.022   3.995   1.554
 4861SOL    HW214928   3.050   3.979   1.394
 4862SOL     OW14929   1.870   5.050   0.200
 4862SOL    HW114930   1.777   5.071   0.169
 4862SOL    HW214931   1.880   4.951   0.213
 4863SOL     OW14932   1.950   5.525   0.927
 4863SOL    HW114933   1.908   5.439   0.900
 4863SOL    HW214934   2.044   5.528   0.893
 4864SOL     OW14935   2.366   5.292   0.910
 4864SOL    HW114936   2.432   5.366   0.919
 4864SOL    HW214937   2.410   5.213   0.868
 4865SOL     OW14938   2.864   4.520   1.238
 4865SOL    HW114939   2.905   4.488   1.324
 4865SOL    HW214940   2.768   4.493   1.235
 4866SOL     OW14941   1.902   4.268   1.114
 4866SOL    HW114942   1.987   4.235   1.073
 4866SOL    HW214943   1.915   4.283   1.212
 4867SOL     OW14944   2.051   4.244   1.722
 4867SOL    HW114945   2.110   4.204   1.652
 4867SOL    HW214946   1.993   4.315   1.681
 4868SOL     OW14947   3.231   4.674   1.660
 4868SOL    HW114948   3.270   4.763   1.680
 4868SOL    HW214949   3.241   4.654   1.563
 4869SOL     OW14950   2.677   4.296   0.325
 4869SOL    HW114951   2.684   4.207   0.279
 4869SOL    HW214952   2.583   4.330   0.317
 4870SOL     OW14953   3.519   4.328   1.206
 4870SOL    HW114954   3.481   4.259   1.268
 4870SOL    HW214955   3.601   4.292   1.162
 4871SOL     OW14956   2.114   5.288   1.744
 4871SOL    HW114957   2.084   5.345   1.820
 4871SOL    HW214958   2.107   5.191   1.770
 4872SOL     OW14959   2.533   4.188   1.269
 4872SOL    HW114960   2.499   4.099   1.239
 4872SOL    HW214961   2.559   4.242   1.189
 4873SOL     OW14962   2.792   5.402   1.465
 4873SOL    HW114963   2.768   5.384   1.370
 4873SOL    HW214964   2.822   5.496   1.475
 4874SOL     OW14965   2.335   4.224   0.191
 4874SOL    HW114966   2.396   4.304   0.195
 4874SOL    HW214967   2.240   4.255   0.198
 4875SOL     OW14968   2.021   4.861   1.466
 4875SOL    HW114969   2.043   4.800   1.542
 4875SOL    HW214970   2.031   4.812   1.380
 4876SOL     OW14971   3.209   4.783   1.234
 4876SOL    HW114972   3.233   4.720   1.160
 4876SOL    HW214973   3.119   4.823   1.216
 4877SOL     OW14974   3.164   4.579   0.309
 4877SOL    HW114975   3.078   4.548   0.351
 4877SOL    HW214976   3.160   4.565   0.210
 4878SOL     OW14977   3.621   5.471   1.154
 4878SOL    HW114978   3.682   5.501   1.081
 4878SOL    HW214979   3.583   5.382   1.132
 4879SOL     OW14980   3.114   5.455   1.128
 4879SOL    HW114981   3.198   5.460   1.074
 4879SOL    HW214982   3.091   5.359   1.146
 4880SOL     OW14983   1.945   4.982   1.022
 4880SOL    HW114984   1.940   4.981   1.122
 4880SOL    HW214985   1.862   4.941   0.984
 4881SOL     OW14986   2.550   5.386   1.716
 4881SOL    HW114987   2.494   5.467   1.725
 4881SOL    HW214988   2.602   5.390   1.630
 4882SOL     OW14989   3.588   3.859   0.523
 4882SOL    HW114990   3.661   3.842   0.456
 4882SOL    HW214991   3.557   3.772   0.561
 4883SOL     OW14992   3.250   5.297   0.477
 4883SOL    HW114993   3.317   5.309   0.403
 4883SOL    HW214994   3.210   5.386   0.500
 4884SOL     OW14995   1.992   5.518   1.851
 4884SOL    HW114996   1.951   5.444   1.904
 4884SOL    HW214997   2.056   5.569   1.909
 4885SOL     OW14998   3.142   4.651   0.672
 4885SOL    HW114999   3.202   4.570   0.674
 4885SOL    HW215000   3.182   4.720   0.612
 4886SOL     OW15001   2.692   4.997   1.422
 4886SOL    HW115002   2.687   5.030   1.517
 4886SOL    HW215003   2.606   5.016   1.376
 4887SOL     OW15004   2.534   5.340   0.154
 4887SOL    HW115005   2.543   5.350   0.055
 4887SOL    HW215006   2.494   5.251   0.175
 4888SOL     OW15007   3.512   5.444   1.394
 4888SOL    HW115008   3.565   5.454   1.310
 4888SOL    HW215009   3.485   5.534   1.428
 4889SOL     OW15010   3.703   3.899   0.963
 4889SOL    HW115011   3.742   3.814   0.927
 4889SOL    HW215012   3.605   3.901   0.944
 4890SOL     OW15013   2.125   4.050   0.720
 4890SOL    HW115014   2.046   4.101   0.686
 4890SOL    HW215015   2.116   4.035   0.818
 4891SOL     OW15016   3.056   5.336   0.031
 4891SOL    HW115017   3.062   5.243   0.068
 4891SOL    HW215018   2.997   5.336  -0.049
 4892SOL     OW15019   2.684   4.726   1.372
 4892SOL    HW115020   2.724   4.725   1.280
 4892SOL    HW215021   2.694   4.818   1.412
 4893SOL     OW15022   2.778   4.634   0.291
 4893SOL    HW115023   2.841   4.672   0.223
 4893SOL    HW215024   2.818   4.551   0.330
 4894SOL     OW15025   3.366   5.331   0.044
 4894SOL    HW115026   3.274   5.368   0.051
 4894SOL    HW215027   3.404   5.351  -0.046
 4895SOL     OW15028   2.234   5.012   1.490
 4895SOL    HW115029   2.221   5.105   1.456
 4895SOL    HW215030   2.150   4.960   1.477
 4896SOL     OW15031   3.476   5.016   1.289
 4896SOL    HW115032   3.536   5.019   1.369
 4896SOL    HW215033   3.401   5.080   1.302
 4897SOL     OW15034   2.901   4.822   0.696
 4897SOL    HW115035   2.831   4.775   0.750
 4897SOL    HW215036   2.960   4.754   0.653
 4898SOL     OW15037   2.876   3.960   0.971
 4898SOL    HW115038   2.868   3.924   0.878
 4898SOL    HW215039   2.874   3.884   1.036
 4899SOL     OW15040   2.452   5.211   0.491
 4899SOL    HW115041   2.494   5.153   0.421
 4899SOL    HW215042   2.408   5.290   0.447
 4900SOL     OW15043   3.571   4.109   1.381
 4900SOL    HW115044   3.644   4.178   1.385
 4900SOL    HW215045   3.599   4.034   1.322
 4901SOL     OW15046   2.117   5.072   0.290
 4901SOL    HW115047   2.021   5.073   0.263
 4901SOL    HW215048   2.129   5.125   0.374
 4902SOL     OW15049   1.967   4.737   1.726
 4902SOL    HW115050   1.890   4.704   1.780
 4902SOL    HW215051   2.052   4.707   1.768
 4903SOL     OW15052   2.534   3.927   1.489
 4903SOL    HW115053   2.624   3.911   1.449
 4903SOL    HW215054   2.542   3.932   1.588
 4904SOL     OW15055   1.937   4.069   0.033
 4904SOL    HW115056   1.845   4.041   0.004
 4904SOL    HW215057   1.968   4.146  -0.023
 4905SOL     OW15058   3.302   4.580   1.398
 4905SOL    HW115059   3.245   4.632   1.335
 4905SOL    HW215060   3.398   4.592   1.374
 4906SOL     OW15061   1.934   3.890   0.318
 4906SOL    HW115062   1.917   3.973   0.264
 4906SOL    HW215063   2.024   3.853   0.296
 4907SOL     OW15064   3.045   5.059   0.119
 4907SOL    HW115065   2.946   5.048   0.121
 4907SOL    HW215066   3.079   5.074   0.212
 4908SOL     OW15067   2.475   4.566   1.431
 4908SOL    HW115068   2.531   4.647   1.414
 4908SOL    HW215069   2.534   4.486   1.434
 4909SOL     OW15070   3.355   5.491   0.959
 4909SOL    HW115071   3.388   5.555   0.890
 4909SOL    HW215072   3.421   5.485   1.034
 4910SOL     OW15073   2.578   4.289   1.708
 4910SOL    HW115074   2.597   4.354   1.782
 4910SOL    HW215075   2.638   4.209   1.717
 4911SOL     OW15076   3.312   4.944   1.633
 4911SOL    HW115077   3.303   4.934   1.732
 4911SOL    HW215078   3.408   4.937   1.607
 4912SOL     OW15079   2.252   5.465   1.560
 4912SOL    HW115080   2.161   5.506   1.558
 4912SOL    HW215081   2.245   5.371   1.592
 4913SOL     OW15082   3.536   4.607   1.254
 4913SOL    HW115083   3.509   4.518   1.217
 4913SOL    HW215084   3.537   4.675   1.181
 4914SOL     OW15085   3.087   4.049   0.449
 4914SOL    HW115086   3.152   3.975   0.438
 4914SOL    HW215087   3.107   4.099   0.533
 4915SOL     OW15088   2.456   4.469   0.652
 4915SOL    HW115089   2.506   4.554   0.633
 4915SOL    HW215090   2.368   4.471   0.604
 4916SOL     OW15091   3.639   4.066   1.642
 4916SOL    HW115092   3.622   4.097   1.548
 4916SOL    HW215093   3.555   4.029   1.680
 4917SOL     OW15094   3.592   4.658   1.517
 4917SOL    HW115095   3.630   4.749   1.532
 4917SOL    HW215096   3.584   4.641   1.418
 4918SOL     OW15097   2.721   5.098   0.016
 4918SOL    HW115098   2.675   5.113   0.104
 4918SOL    HW215099   2.765   5.183  -0.014
 4919SOL     OW15100   2.523   5.514   0.953
 4919SOL    HW115101   2.477   5.602   0.940
 4919SOL    HW215102   2.622   5.526   0.946
 4920SOL     OW15103   2.721   4.680   0.861
 4920SOL    HW115104   2.775   4.611   0.909
 4920SOL    HW215105   2.689   4.749   0.927
 4921SOL     OW15106   2.945   4.708   0.087
 4921SOL    HW115107   2.922   4.761   0.005
 4921SOL    HW215108   3.026   4.652   0.068
 4922SOL     OW15109   3.723   5.293   0.851
 4922SOL    HW115110   3.652   5.281   0.781
 4922SOL    HW215111   3.724   5.214   0.911
 4923SOL     OW15112   2.083   5.038   1.844
 4923SOL    HW115113   2.018   4.965   1.823
 4923SOL    HW215114   2.087   5.052   1.942
 4924SOL     OW15115   1.941   4.964   0.653
 4924SOL    HW115116   1.940   4.917   0.741
 4924SOL    HW215117   2.023   4.936   0.602
 4925SOL     OW15118   2.534   5.115   1.624
 4925SOL    HW115119   2.456   5.065   1.662
 4925SOL    HW215120   2.531   5.210   1.655
 4926SOL     OW15121   3.686   3.916   1.227
 4926SOL    HW115122   3.682   3.826   1.271
 4926SOL    HW215123   3.689   3.905   1.128
 4927SOL     OW15124   2.290   4.148   0.520
 4927SOL    HW115125   2.320   4.076   0.458
 4927SOL    HW215126   2.251   4.108   0.603
 4928SOL     OW15127   3.567   5.211   1.104
 4928SOL    HW115128   3.474   5.186   1.077
 4928SOL    HW215129   3.593   5.161   1.186
 4929SOL     OW15130   2.179   4.271   1.280
 4929SOL    HW115131   2.217   4.212   1.352
 4929SOL    HW215132   2.219   4.245   1.192
 4930SOL     OW15133   2.674   5.310   0.687
 4930SOL    HW115134   2.706   5.320   0.593
 4930SOL    HW215135   2.595   5.248   0.689
 4931SOL     OW15136   3.286   3.938   1.112
 4931SOL    HW115137   3.338   3.873   1.167
 4931SOL    HW215138   3.237   4.001   1.173
 4932SOL     OW15139   2.863   3.758   1.154
 4932SOL    HW115140   2.800   3.686   1.123
 4932SOL    HW215141   2.956   3.722   1.154
 4933SOL     OW15142   2.632   5.054   0.301
 4933SOL    HW115143   2.586   4.967   0.318
 4933SOL    HW215144   2.723   5.051   0.342
 4934SOL     OW15145   2.480   5.291   1.284
 4934SOL    HW115146   2.475   5.373   1.341
 4934SOL    HW215147   2.569   5.288   1.239
 4935SOL     OW15148   3.162   4.177   0.691
 4935SOL    HW115149   3.103   4.257   0.695
 4935SOL    HW215150   3.177   4.142   0.784
 4936SOL     OW15151   3.455   3.945   0.882
 4936SOL    HW115152   3.371   3.944   0.936
 4936SOL    HW215153   3.457   4.028   0.826
 4937SOL     OW15154   1.901   4.801   0.300
 4937SOL    HW115155   2.000   4.790   0.291
 4937SOL    HW215156   1.861   4.715   0.332
 4938SOL     OW15157   2.737   5.370   0.337
 4938SOL    HW115158   2.660   5.335   0.283
 4938SOL    HW215159   2.705   5.441   0.399
 4939SOL     OW15160   2.092   4.352   1.975
 4939SOL    HW115161   1.999   4.350   2.012
 4939SOL    HW215162   2.093   4.313   1.883
 4940SOL     OW15163   2.087   3.999   2.858
 4940SOL    HW115164   2.122   3.982   2.950
 4940SOL    HW215165   1.999   3.954   2.846
 4941SOL     OW15166   1.881   4.092   2.509
 4941SOL    HW115167   1.799   4.135   2.548
 4941SOL    HW215168   1.853   4.019   2.446
 4942SOL     OW15169   2.431   4.999   3.027
 4942SOL    HW115170   2.338   4.992   2.990
 4942SOL    HW215171   2.442   5.088   3.071
 4943SOL     OW15172   3.417   5.235   2.565
 4943SOL    HW115173   3.360   5.219   2.646
 4943SOL    HW215174   3.358   5.245   2.485
 4944SOL     OW15175   2.997   4.427   2.579
 4944SOL    HW115176   3.054   4.505   2.554
 4944SOL    HW215177   2.937   4.453   2.655
 4945SOL     OW15178   3.617   4.331   2.093
 4945SOL    HW115179   3.605   4.318   1.994
 4945SOL    HW215180   3.587   4.250   2.142
 4946SOL     OW15181   2.630   4.868   2.885
 4946SOL    HW115182   2.552   4.885   2.945
 4946SOL    HW215183   2.664   4.955   2.849
 4947SOL     OW15184   2.712   4.522   3.685
 4947SOL    HW115185   2.708   4.598   3.750
 4947SOL    HW215186   2.734   4.558   3.594
 4948SOL     OW15187   2.547   4.736   2.527
 4948SOL    HW115188   2.616   4.720   2.597
 4948SOL    HW215189   2.474   4.793   2.565
 4949SOL     OW15190   2.548   4.885   3.665
 4949SOL    HW115191   2.608   4.964   3.679
 4949SOL    HW215192   2.462   4.916   3.624
 4950SOL     OW15193   2.197   5.159   2.923
 4950SOL    HW115194   2.119   5.128   2.870
 4950SOL    HW215195   2.255   5.217   2.866
 4951SOL     OW15196   2.300   4.116   3.361
 4951SOL    HW115197   2.382   4.060   3.370
 4951SOL    HW215198   2.219   4.058   3.365
 4952SOL     OW15199   3.465   4.171   2.599
 4952SOL    HW115200   3.391   4.217   2.549
 4952SOL    HW215201   3.516   4.239   2.652
 4953SOL     OW15202   2.093   5.437   2.345
 4953SOL    HW115203   2.127   5.514   2.399
 4953SOL    HW215204   2.137   5.437   2.255
 4954SOL     OW15205   2.989   5.065   3.552
 4954SOL    HW115206   3.036   5.065   3.640
 4954SOL    HW215207   2.941   4.978   3.541
 4955SOL     OW15208   2.092   5.158   2.400
 4955SOL    HW115209   2.066   5.254   2.400
 4955SOL    HW215210   2.021   5.104   2.445
 4956SOL     OW15211   2.102   4.815   2.748
 4956SOL    HW115212   2.116   4.731   2.800
 4956SOL    HW215213   2.047   4.879   2.803
 4957SOL     OW15214   2.482   5.510   3.301
 4957SOL    HW115215   2.390   5.493   3.336
 4957SOL    HW215216   2.510   5.602   3.327
 4958SOL     OW15217   2.468   4.688   1.985
 4958SOL    HW115218   2.475   4.772   1.931
 4958SOL    HW215219   2.514   4.701   2.073
 4959SOL     OW15220   3.456   3.838   3.342
 4959SOL    HW115221   3.438   3.905   3.270
 4959SOL    HW215222   3.453   3.884   3.431
 4960SOL     OW15223   1.984   4.367   2.425
 4960SOL    HW115224   1.939   4.279   2.442
 4960SOL    HW215225   1.983   4.421   2.509
 4961SOL     OW15226   3.704   5.491   2.221
 4961SOL    HW115227   3.758   5.462   2.301
 4961SOL    HW215228   3.734   5.581   2.192
 4962SOL     OW15229   1.889   5.320   1.979
 4962SOL    HW115230   1.870   5.224   2.000
 4962SOL    HW215231   1.856   5.378   2.054
 4963SOL     OW15232   3.551   4.646   2.474
 4963SOL    HW115233   3.646   4.617   2.482
 4963SOL    HW215234   3.543   4.711   2.399
 4964SOL     OW15235   3.503   4.832   2.294
 4964SOL    HW115236   3.589   4.834   2.242
 4964SOL    HW215237   3.517   4.879   2.382
 4965SOL     OW15238   1.975   4.461   3.459
 4965SOL    HW115239   2.063   4.448   3.504
 4965SOL    HW215240   1.962   4.558   3.437
 4966SOL     OW15241   2.475   5.089   2.588
 4966SOL    HW115242   2.426   5.002   2.597
 4966SOL    HW215243   2.452   5.132   2.501
 4967SOL     OW15244   3.155   4.952   3.285
 4967SOL    HW115245   3.192   4.879   3.227
 4967SOL    HW215246   3.207   4.957   3.370
 4968SOL     OW15247   2.671   3.728   2.364
 4968SOL    HW115248   2.711   3.819   2.355
 4968SOL    HW215249   2.571   3.736   2.370
 4969SOL     OW15250   2.059   4.700   3.126
 4969SOL    HW115251   2.148   4.655   3.112
 4969SOL    HW215252   1.986   4.635   3.107
 4970SOL     OW15253   3.387   4.723   2.052
 4970SOL    HW115254   3.324   4.647   2.065
 4970SOL    HW215255   3.435   4.741   2.138
 4971SOL     OW15256   3.049   5.516   3.478
 4971SOL    HW115257   3.073   5.576   3.402
 4971SOL    HW215258   3.056   5.421   3.448
 4972SOL     OW15259   2.179   3.975   3.663
 4972SOL    HW115260   2.250   4.046   3.669
 4972SOL    HW215261   2.091   4.014   3.691
 4973SOL     OW15262   3.328   5.141   2.815
 4973SOL    HW115263   3.269   5.147   2.895
 4973SOL    HW215264   3.313   5.053   2.769
 4974SOL     OW15265   3.529   5.438   2.434
 4974SOL    HW115266   3.488   5.415   2.346
 4974SOL    HW215267   3.511   5.364   2.499
 4975SOL     OW15268   2.460   4.453   2.132
 4975SOL    HW115269   2.484   4.522   2.064
 4975SOL    HW215270   2.382   4.486   2.186
 4976SOL     OW15271   3.143   4.069   2.806
 4976SOL    HW115272   3.057   4.019   2.793
 4976SOL    HW215273   3.205   4.015   2.862
 4977SOL     OW15274   3.438   5.386   2.169
 4977SOL    HW115275   3.527   5.432   2.172
 4977SOL    HW215276   3.417   5.362   2.074
 4978SOL     OW15277   2.669   4.329   3.327
 4978SOL    HW115278   2.622   4.326   3.416
 4978SOL    HW215279   2.618   4.274   3.261
 4979SOL     OW15280   3.256   4.193   3.536
 4979SOL    HW115281   3.236   4.236   3.624
 4979SOL    HW215282   3.334   4.131   3.545
 4980SOL     OW15283   2.835   4.614   3.434
 4980SOL    HW115284   2.881   4.530   3.405
 4980SOL    HW215285   2.779   4.648   3.359
 4981SOL     OW15286   2.853   4.134   3.104
 4981SOL    HW115287   2.776   4.168   3.158
 4981SOL    HW215288   2.819   4.083   3.025
 4982SOL     OW15289   2.903   4.425   2.291
 4982SOL    HW115290   2.929   4.421   2.387
 4982SOL    HW215291   2.818   4.374   2.277
 4983SOL     OW15292   1.938   4.535   2.651
 4983SOL    HW115293   2.037   4.523   2.660
 4983SOL    HW215294   1.914   4.630   2.672
 4984SOL     OW15295   1.992   5.545   3.433
 4984SOL    HW115296   1.982   5.530   3.532
 4984SOL    HW215297   1.906   5.581   3.397
 4985SOL     OW15298   2.727   4.072   2.057
 4985SOL    HW115299   2.786   4.135   2.008
 4985SOL    HW215300   2.746   3.978   2.028
 4986SOL     OW15301   3.581   4.309   3.693
 4986SOL    HW115302   3.555   4.398   3.657
 4986SOL    HW215303   3.579   4.241   3.620
 4987SOL     OW15304   3.224   4.868   2.407
 4987SOL    HW115305   3.307   4.839   2.359
 4987SOL    HW215306   3.175   4.935   2.351
 4988SOL     OW15307   2.412   3.920   2.747
 4988SOL    HW115308   2.407   3.915   2.847
 4988SOL    HW215309   2.414   4.016   2.718
 4989SOL     OW15310   2.870   5.180   2.339
 4989SOL    HW115311   2.824   5.252   2.287
 4989SOL    HW215312   2.866   5.200   2.437
 4990SOL     OW15313   2.213   5.525   2.715
 4990SOL    HW115314   2.263   5.439   2.721
 4990SOL    HW215315   2.278   5.602   2.712
 4991SOL     OW15316   3.657   4.790   2.735
 4991SOL    HW115317   3.595   4.775   2.659
 4991SOL    HW215318   3.605   4.801   2.820
 4992SOL     OW15319   3.089   5.274   3.368
 4992SOL    HW115320   3.095   5.197   3.432
 4992SOL    HW215321   3.037   5.248   3.288
 4993SOL     OW15322   2.183   4.667   2.104
 4993SOL    HW115323   2.265   4.706   2.062
 4993SOL    HW215324   2.156   4.585   2.055
 4994SOL     OW15325   3.320   4.459   2.590
 4994SOL    HW115326   3.315   4.394   2.665
 4994SOL    HW215327   3.400   4.518   2.603
 4995SOL     OW15328   2.323   4.990   3.589
 4995SOL    HW115329   2.273   4.991   3.503
 4995SOL    HW215330   2.260   4.972   3.665
 4996SOL     OW15331   2.973   5.500   2.099
 4996SOL    HW115332   2.913   5.438   2.149
 4996SOL    HW215333   3.004   5.456   2.014
 4997SOL     OW15334   2.064   4.009   3.360
 4997SOL    HW115335   1.984   4.069   3.347
 4997SOL    HW215336   2.054   3.960   3.446
 4998SOL     OW15337   3.494   5.101   1.943
 4998SOL    HW115338   3.462   5.195   1.933
 4998SOL    HW215339   3.418   5.038   1.931
 4999SOL     OW15340   2.326   5.467   2.185
 4999SOL    HW115341   2.359   5.506   2.271
 4999SOL    HW215342   2.402   5.460   2.120
 5000SOL     OW15343   3.262   3.831   2.288
 5000SOL    HW115344   3.238   3.794   2.198
 5000SOL    HW215345   3.361   3.847   2.292
 5001SOL     OW15346   2.111   5.509   3.103
 5001SOL    HW115347   2.168   5.444   3.153
 5001SOL    HW215348   2.095   5.476   3.010
 5002SOL     OW15349   2.802   5.422   2.766
 5002SOL    HW115350   2.882   5.365   2.787
 5002SOL    HW215351   2.753   5.382   2.689
 5003SOL     OW15352   2.244   4.424   2.342
 5003SOL    HW115353   2.289   4.334   2.339
 5003SOL    HW215354   2.150   4.413   2.375
 5004SOL     OW15355   3.409   3.946   3.591
 5004SOL    HW115356   3.404   3.983   3.683
 5004SOL    HW215357   3.337   3.877   3.579
 5005SOL     OW15358   2.476   3.846   1.979
 5005SOL    HW115359   2.574   3.824   1.986
 5005SOL    HW215360   2.445   3.829   1.886
 5006SOL     OW15361   2.643   3.988   3.611
 5006SOL    HW115362   2.710   3.927   3.654
 5006SOL    HW215363   2.570   4.007   3.676
 5007SOL     OW15364   2.750   5.238   3.057
 5007SOL    HW115365   2.727   5.213   2.963
 5007SOL    HW215366   2.811   5.169   3.096
 5008SOL     OW15367   3.213   4.314   3.295
 5008SOL    HW115368   3.241   4.271   3.380
 5008SOL    HW215369   3.238   4.410   3.296
 5009SOL     OW15370   2.665   5.126   2.786
 5009SOL    HW115371   2.755   5.140   2.744
 5009SOL    HW215372   2.594   5.128   2.715
 5010SOL     OW15373   2.784   4.227   2.761
 5010SOL    HW115374   2.759   4.218   2.665
 5010SOL    HW215375   2.832   4.145   2.792
 5011SOL     OW15376   2.401   3.788   2.374
 5011SOL    HW115377   2.320   3.789   2.432
 5011SOL    HW215378   2.404   3.871   2.319
 5012SOL     OW15379   3.296   4.912   1.903
 5012SOL    HW115380   3.328   4.836   1.960
 5012SOL    HW215381   3.204   4.939   1.933
 5013SOL     OW15382   2.159   3.759   2.033
 5013SOL    HW115383   2.208   3.843   2.012
 5013SOL    HW215384   2.221   3.694   2.078
 5014SOL     OW15385   2.797   3.960   2.342
 5014SOL    HW115386   2.749   4.001   2.264
 5014SOL    HW215387   2.896   3.958   2.323
 5015SOL     OW15388   2.938   4.407   3.326
 5015SOL    HW115389   2.858   4.346   3.329
 5015SOL    HW215390   3.019   4.354   3.302
 5016SOL     OW15391   3.089   5.294   2.655
 5016SOL    HW115392   3.110   5.368   2.590
 5016SOL    HW215393   3.157   5.294   2.728
 5017SOL     OW15394   2.321   4.876   2.603
 5017SOL    HW115395   2.250   4.849   2.668
 5017SOL    HW215396   2.295   4.848   2.510
 5018SOL     OW15397   3.133   5.521   2.453
 5018SOL    HW115398   3.177   5.585   2.389
 5018SOL    HW215399   3.083   5.573   2.523
 5019SOL     OW15400   2.894   4.273   1.878
 5019SOL    HW115401   2.853   4.355   1.839
 5019SOL    HW215402   2.958   4.299   1.951
 5020SOL     OW15403   1.940   4.280   3.248
 5020SOL    HW115404   2.032   4.279   3.207
 5020SOL    HW215405   1.934   4.354   3.315
 5021SOL     OW15406   2.423   3.946   3.009
 5021SOL    HW115407   2.461   3.862   3.046
 5021SOL    HW215408   2.335   3.965   3.053
 5022SOL     OW15409   2.728   4.178   2.504
 5022SOL    HW115410   2.696   4.250   2.442
 5022SOL    HW215411   2.752   4.097   2.451
 5023SOL     OW15412   2.879   3.763   2.615
 5023SOL    HW115413   2.807   3.768   2.546
 5023SOL    HW215414   2.855   3.694   2.684
 5024SOL     OW15415   3.291   4.897   2.729
 5024SOL    HW115416   3.236   4.813   2.722
 5024SOL    HW215417   3.317   4.926   2.637
 5025SOL     OW15418   3.328   4.314   2.854
 5025SOL    HW115419   3.298   4.219   2.861
 5025SOL    HW215420   3.401   4.330   2.920
 5026SOL     OW15421   3.719   4.557   2.239
 5026SOL    HW115422   3.761   4.493   2.303
 5026SOL    HW215423   3.681   4.506   2.161
 5027SOL     OW15424   2.350   5.109   2.036
 5027SOL    HW115425   2.263   5.094   2.083
 5027SOL    HW215426   2.333   5.135   1.941
 5028SOL     OW15427   3.526   5.004   2.519
 5028SOL    HW115428   3.625   5.012   2.533
 5028SOL    HW215429   3.481   5.088   2.550
 5029SOL     OW15430   3.252   4.299   1.940
 5029SOL    HW115431   3.198   4.278   2.021
 5029SOL    HW215432   3.343   4.258   1.949
 5030SOL     OW15433   2.389   3.980   2.190
 5030SOL    HW115434   2.416   3.921   2.115
 5030SOL    HW215435   2.389   4.075   2.159
 5031SOL     OW15436   3.616   4.947   3.450
 5031SOL    HW115437   3.707   4.908   3.437
 5031SOL    HW215438   3.624   5.043   3.474
 5032SOL     OW15439   2.926   5.071   3.202
 5032SOL    HW115440   2.846   5.048   3.257
 5032SOL    HW215441   3.009   5.045   3.251
 5033SOL     OW15442   2.973   4.919   2.962
 5033SOL    HW115443   2.933   4.963   3.043
 5033SOL    HW215444   2.932   4.956   2.879
 5034SOL     OW15445   3.500   4.823   2.941
 5034SOL    HW115446   3.505   4.904   3.000
 5034SOL    HW215447   3.414   4.825   2.890
 5035SOL     OW15448   2.777   3.813   3.264
 5035SOL    HW115449   2.802   3.793   3.169
 5035SOL    HW215450   2.849   3.869   3.306
 5036SOL     OW15451   2.842   4.840   3.581
 5036SOL    HW115452   2.743   4.846   3.591
 5036SOL    HW215453   2.865   4.760   3.525
 5037SOL     OW15454   2.567   4.774   2.230
 5037SOL    HW115455   2.553   4.781   2.329
 5037SOL    HW215456   2.651   4.723   2.212
 5038SOL     OW15457   2.272   4.537   3.113
 5038SOL    HW115458   2.358   4.549   3.163
 5038SOL    HW215459   2.230   4.450   3.140
 5039SOL     OW15460   3.136   4.110   3.124
 5039SOL    HW115461   3.157   4.184   3.188
 5039SOL    HW215462   3.047   4.127   3.081
 5040SOL     OW15463   1.926   5.288   3.193
 5040SOL    HW115464   1.880   5.370   3.159
 5040SOL    HW215465   2.024   5.307   3.202
 5041SOL     OW15466   2.229   4.824   2.363
 5041SOL    HW115467   2.222   4.907   2.307
 5041SOL    HW215468   2.233   4.744   2.303
 5042SOL     OW15469   2.428   4.261   2.727
 5042SOL    HW115470   2.440   4.327   2.653
 5042SOL    HW215471   2.474   4.295   2.810
 5043SOL     OW15472   3.114   5.072   2.250
 5043SOL    HW115473   3.164   5.149   2.290
 5043SOL    HW215474   3.019   5.074   2.282
 5044SOL     OW15475   3.134   5.169   3.004
 5044SOL    HW115476   3.181   5.182   3.091
 5044SOL    HW215477   3.068   5.095   3.013
 5045SOL     OW15478   3.444   4.363   2.334
 5045SOL    HW115479   3.413   4.424   2.407
 5045SOL    HW215480   3.494   4.415   2.265
 5046SOL     OW15481   2.216   5.234   3.191
 5046SOL    HW115482   2.195   5.190   3.104
 5046SOL    HW215483   2.313   5.260   3.194
 5047SOL     OW15484   2.264   4.475   3.460
 5047SOL    HW115485   2.332   4.530   3.413
 5047SOL    HW215486   2.304   4.387   3.487
 5048SOL     OW15487   3.449   4.503   3.532
 5048SOL    HW115488   3.357   4.541   3.527
 5048SOL    HW215489   3.509   4.550   3.467
 5049SOL     OW15490   2.875   3.829   3.632
 5049SOL    HW115491   2.881   3.914   3.580
 5049SOL    HW215492   2.907   3.753   3.575
 5050SOL     OW15493   2.366   3.774   3.602
 5050SOL    HW115494   2.324   3.717   3.532
 5050SOL    HW215495   2.300   3.843   3.634
 5051SOL     OW15496   3.222   4.586   2.907
 5051SOL    HW115497   3.147   4.586   2.841
 5051SOL    HW215498   3.259   4.494   2.916
 5052SOL     OW15499   3.071   4.249   2.137
 5052SOL    HW115500   3.084   4.165   2.191
 5052SOL    HW215501   3.042   4.323   2.197
 5053SOL     OW15502   2.169   3.937   3.093
 5053SOL    HW115503   2.146   3.974   3.183
 5053SOL    HW215504   2.139   3.842   3.087
 5054SOL     OW15505   1.899   5.034   3.144
 5054SOL    HW115506   1.952   4.985   3.212
 5054SOL    HW215507   1.921   5.132   3.149
 5055SOL     OW15508   2.594   4.358   2.926
 5055SOL    HW115509   2.653   4.332   2.850
 5055SOL    HW215510   2.566   4.454   2.915
 5056SOL     OW15511   3.590   4.659   3.716
 5056SOL    HW115512   3.544   4.652   3.627
 5056SOL    HW215513   3.528   4.703   3.782
 5057SOL     OW15514   2.169   3.787   2.480
 5057SOL    HW115515   2.158   3.881   2.513
 5057SOL    HW215516   2.164   3.724   2.557
 5058SOL     OW15517   3.484   4.091   2.236
 5058SOL    HW115518   3.486   4.015   2.300
 5058SOL    HW215519   3.436   4.168   2.276
 5059SOL     OW15520   2.885   4.490   2.828
 5059SOL    HW115521   2.900   4.511   2.924
 5059SOL    HW215522   2.855   4.395   2.819
 5060SOL     OW15523   2.842   5.297   3.562
 5060SOL    HW115524   2.822   5.341   3.474
 5060SOL    HW215525   2.881   5.206   3.546
 5061SOL     OW15526   2.212   4.622   3.666
 5061SOL    HW115527   2.288   4.666   3.714
 5061SOL    HW215528   2.247   4.575   3.584
 5062SOL     OW15529   3.402   3.998   1.987
 5062SOL    HW115530   3.341   3.923   2.010
 5062SOL    HW215531   3.424   4.050   2.070
 5063SOL     OW15532   3.165   4.562   1.904
 5063SOL    HW115533   3.199   4.469   1.919
 5063SOL    HW215534   3.183   4.589   1.809
 5064SOL     OW15535   2.930   5.057   2.711
 5064SOL    HW115536   2.937   4.973   2.656
 5064SOL    HW215537   2.992   5.126   2.675
 5065SOL     OW15538   2.181   4.534   2.811
 5065SOL    HW115539   2.274   4.570   2.816
 5065SOL    HW215540   2.175   4.449   2.863
 5066SOL     OW15541   2.201   4.233   2.868
 5066SOL    HW115542   2.149   4.150   2.851
 5066SOL    HW215543   2.278   4.238   2.804
 5067SOL     OW15544   3.000   4.104   3.540
 5067SOL    HW115545   2.955   4.167   3.604
 5067SOL    HW215546   3.093   4.135   3.523
 5068SOL     OW15547   3.022   3.931   3.339
 5068SOL    HW115548   3.022   3.995   3.416
 5068SOL    HW215549   3.050   3.979   3.256
 5069SOL     OW15550   1.870   5.050   2.062
 5069SOL    HW115551   1.777   5.071   2.031
 5069SOL    HW215552   1.880   4.951   2.075
 5070SOL     OW15553   1.950   5.525   2.789
 5070SOL    HW115554   1.908   5.439   2.762
 5070SOL    HW215555   2.044   5.528   2.755
 5071SOL     OW15556   2.366   5.292   2.772
 5071SOL    HW115557   2.432   5.366   2.781
 5071SOL    HW215558   2.410   5.213   2.730
 5072SOL     OW15559   2.864   4.520   3.100
 5072SOL    HW115560   2.905   4.488   3.186
 5072SOL    HW215561   2.768   4.493   3.097
 5073SOL     OW15562   1.902   4.268   2.976
 5073SOL    HW115563   1.987   4.235   2.935
 5073SOL    HW215564   1.915   4.283   3.074
 5074SOL     OW15565   2.051   4.244   3.584
 5074SOL    HW115566   2.110   4.204   3.514
 5074SOL    HW215567   1.993   4.315   3.543
 5075SOL     OW15568   3.231   4.674   3.522
 5075SOL    HW115569   3.270   4.763   3.542
 5075SOL    HW215570   3.241   4.654   3.425
 5076SOL     OW15571   2.677   4.296   2.187
 5076SOL    HW115572   2.684   4.207   2.141
 5076SOL    HW215573   2.583   4.330   2.179
 5077SOL     OW15574   3.519   4.328   3.068
 5077SOL    HW115575   3.481   4.259   3.130
 5077SOL    HW215576   3.601   4.292   3.024
 5078SOL     OW15577   2.114   5.288   3.606
 5078SOL    HW115578   2.084   5.345   3.682
 5078SOL    HW215579   2.107   5.191   3.632
 5079SOL     OW15580   2.533   4.188   3.131
 5079SOL    HW115581   2.499   4.099   3.101
 5079SOL    HW215582   2.559   4.242   3.051
 5080SOL     OW15583   2.792   5.402   3.327
 5080SOL    HW115584   2.768   5.384   3.232
 5080SOL    HW215585   2.822   5.496   3.337
 5081SOL     OW15586   2.335   4.224   2.053
 5081SOL    HW115587   2.396   4.304   2.057
 5081SOL    HW215588   2.240   4.255   2.060
 5082SOL     OW15589   2.021   4.861   3.328
 5082SOL    HW115590   2.043   4.800   3.404
 5082SOL    HW215591   2.031   4.812   3.242
 5083SOL     OW15592   3.209   4.783   3.096
 5083SOL    HW115593   3.233   4.720   3.022
 5083SOL    HW215594   3.119   4.823   3.078
 5084SOL     OW15595   3.164   4.579   2.171
 5084SOL    HW115596   3.078   4.548   2.213
 5084SOL    HW215597   3.160   4.565   2.072
 5085SOL     OW15598   3.114   5.455   2.990
 5085SOL    HW115599   3.198   5.460   2.936
 5085SOL    HW215600   3.091   5.359   3.008
 5086SOL     OW15601   1.945   4.982   2.884
 5086SOL    HW115602   1.940   4.981   2.984
 5086SOL    HW215603   1.862   4.941   2.846
 5087SOL     OW15604   2.550   5.386   3.578
 5087SOL    HW115605   2.494   5.467   3.587
 5087SOL    HW215606   2.602   5.390   3.492
 5088SOL     OW15607   3.588   3.859   2.385
 5088SOL    HW115608   3.661   3.842   2.318
 5088SOL    HW215609   3.557   3.772   2.423
 5089SOL     OW15610   3.250   5.297   2.339
 5089SOL    HW115611   3.317   5.309   2.265
 5089SOL    HW215612   3.210   5.386   2.362
 5090SOL     OW15613   1.992   5.518   3.713
 5090SOL    HW115614   1.951   5.444   3.766
 5090SOL    HW215615   2.056   5.569   3.771
 5091SOL     OW15616   3.142   4.651   2.534
 5091SOL    HW115617   3.202   4.570   2.536
 5091SOL    HW215618   3.182   4.720   2.474
 5092SOL     OW15619   2.692   4.997   3.284
 5092SOL    HW115620   2.687   5.030   3.379
 5092SOL    HW215621   2.606   5.016   3.238
 5093SOL     OW15622   2.534   5.340   2.016
 5093SOL    HW115623   2.543   5.350   1.917
 5093SOL    HW215624   2.494   5.251   2.037
 5094SOL     OW15625   3.703   3.899   2.825
 5094SOL    HW115626   3.742   3.814   2.789
 5094SOL    HW215627   3.605   3.901   2.806
 5095SOL     OW15628   2.125   4.050   2.582
 5095SOL    HW115629   2.046   4.101   2.548
 5095SOL    HW215630   2.116   4.035   2.680
 5096SOL     OW15631   3.056   5.336   1.893
 5096SOL    HW115632   3.062   5.243   1.930
 5096SOL    HW215633   2.997   5.336   1.813
 5097SOL     OW15634   2.684   4.726   3.234
 5097SOL    HW115635   2.724   4.725   3.142
 5097SOL    HW215636   2.694   4.818   3.274
 5098SOL     OW15637   2.778   4.634   2.153
 5098SOL    HW115638   2.841   4.672   2.085
 5098SOL    HW215639   2.818   4.551   2.192
 5099SOL     OW15640   3.366   5.331   1.906
 5099SOL    HW115641   3.274   5.368   1.913
 5099SOL    HW215642   3.404   5.351   1.816
 5100SOL     OW15643   2.234   5.012   3.352
 5100SOL    HW115644   2.221   5.105   3.318
 5100SOL    HW215645   2.150   4.960   3.339
 5101SOL     OW15646   3.476   5.016   3.151
 5101SOL    HW115647   3.536   5.019   3.231
 5101SOL    HW215648   3.401   5.080   3.164
 5102SOL     OW15649   2.901   4.822   2.558
 5102SOL    HW115650   2.831   4.775   2.612
 5102SOL    HW215651   2.960   4.754   2.515
 5103SOL     OW15652   2.876   3.960   2.833
 5103SOL    HW115653   2.868   3.924   2.740
 5103SOL    HW215654   2.874   3.884   2.898
 5104SOL     OW15655   2.452   5.211   2.353
 5104SOL    HW115656   2.494   5.153   2.283
 5104SOL    HW215657   2.408   5.290   2.309
 5105SOL     OW15658   3.571   4.109   3.243
 5105SOL    HW115659   3.644   4.178   3.247
 5105SOL    HW215660   3.599   4.034   3.184
 5106SOL     OW15661   2.117   5.072   2.152
 5106SOL    HW115662   2.021   5.073   2.125
 5106SOL    HW215663   2.129   5.125   2.236
 5107SOL     OW15664   1.967   4.737   3.588
 5107SOL    HW115665   1.890   4.704   3.642
 5107SOL    HW215666   2.052   4.707   3.630
 5108SOL     OW15667   2.534   3.927   3.351
 5108SOL    HW115668   2.624   3.911   3.311
 5108SOL    HW215669   2.542   3.932   3.450
 5109SOL     OW15670   1.937   4.069   1.895
 5109SOL    HW115671   1.845   4.041   1.866
 5109SOL    HW215672   1.968   4.146   1.839
 5110SOL     OW15673   3.302   4.580   3.260
 5110SOL    HW115674   3.245   4.632   3.197
 5110SOL    HW215675   3.398   4.592   3.236
 5111SOL     OW15676   1.934   3.890   2.180
 5111SOL    HW115677   1.917   3.973   2.126
 5111SOL    HW215678   2.024   3.853   2.158
 5112SOL     OW15679   3.045   5.059   1.981
 5112SOL    HW115680   2.946   5.048   1.983
 5112SOL    HW215681   3.079   5.074   2.074
 5113SOL     OW15682   2.475   4.566   3.293
 5113SOL    HW115683   2.531   4.647   3.276
 5113SOL    HW215684   2.534   4.486   3.296
 5114SOL     OW15685   2.578   4.289   3.570
 5114SOL    HW115686   2.597   4.354   3.644
 5114SOL    HW215687   2.638   4.209   3.579
 5115SOL     OW15688   3.312   4.944   3.495
 5115SOL    HW115689   3.303   4.934   3.594
 5115SOL    HW215690   3.408   4.937   3.469
 5116SOL     OW15691   2.252   5.465   3.422
 5116SOL    HW115692   2.161   5.506   3.420
 5116SOL    HW215693   2.245   5.371   3.454
 5117SOL     OW15694   3.536   4.607   3.116
 5117SOL    HW115695   3.509   4.518   3.079
 5117SOL    HW215696   3.537   4.675   3.043
 5118SOL     OW15697   3.087   4.049   2.311
 5118SOL    HW115698   3.152   3.975   2.300
 5118SOL    HW215699   3.107   4.099   2.395
 5119SOL     OW15700   2.456   4.469   2.514
 5119SOL    HW115701   2.506   4.554   2.495
 5119SOL    HW215702   2.368   4.471   2.466
 5120SOL     OW15703   3.639   4.066   3.504
 5120SOL    HW115704   3.622   4.097   3.410
 5120SOL    HW215705   3.555   4.029   3.542
 5121SOL     OW15706   3.592   4.658   3.379
 5121SOL    HW115707   3.630   4.749   3.394
 5121SOL    HW215708   3.584   4.641   3.280
 5122SOL     OW15709   2.721   5.098   1.878
 5122SOL    HW115710   2.675   5.113   1.966
 5122SOL    HW215711   2.765   5.183   1.848
 5123SOL     OW15712   2.523   5.514   2.815
 5123SOL    HW115713   2.477   5.602   2.802
 5123SOL    HW215714   2.622   5.526   2.808
 5124SOL     OW15715   2.721   4.680   2.723
 5124SOL    HW115716   2.775   4.611   2.771
 5124SOL    HW215717   2.689   4.749   2.789
 5125SOL     OW15718   2.945   4.708   1.949
 5125SOL    HW115719   2.922   4.761   1.867
 5125SOL    HW215720   3.026   4.652   1.930
 5126SOL     OW15721   3.723   5.293   2.713
 5126SOL    HW115722   3.652   5.281   2.643
 5126SOL    HW215723   3.724   5.214   2.773
 5127SOL     OW15724   2.083   5.038   3.706
 5127SOL    HW115725   2.018   4.965   3.685
 5127SOL    HW215726   2.087   5.052   3.804
 5128SOL     OW15727   1.941   4.964   2.515
 5128SOL    HW115728   1.940   4.917   2.603
 5128SOL    HW215729   2.023   4.936   2.464
 5129SOL     OW15730   2.534   5.115   3.486
 5129SOL    HW115731   2.456   5.065   3.524
 5129SOL    HW215732   2.531   5.210   3.517
 5130SOL     OW15733   3.686   3.916   3.089
 5130SOL    HW115734   3.682   3.826   3.133
 5130SOL    HW215735   3.689   3.905   2.990
 5131SOL     OW15736   2.290   4.148   2.382
 5131SOL    HW115737   2.320   4.076   2.320
 5131SOL    HW215738   2.251   4.108   2.465
 5132SOL     OW15739   3.567   5.211   2.966
 5132SOL    HW115740   3.474   5.186   2.939
 5132SOL    HW215741   3.593   5.161   3.048
 5133SOL     OW15742   2.179   4.271   3.142
 5133SOL    HW115743   2.217   4.212   3.214
 5133SOL    HW215744   2.219   4.245   3.054
 5134SOL     OW15745   2.674   5.310   2.549
 5134SOL    HW115746   2.706   5.320   2.455
 5134SOL    HW215747   2.595   5.248   2.551
 5135SOL     OW15748   3.286   3.938   2.974
 5135SOL    HW115749   3.338   3.873   3.029
 5135SOL    HW215750   3.237   4.001   3.035
 5136SOL     OW15751   2.863   3.758   3.016
 5136SOL    HW115752   2.800   3.686   2.985
 5136SOL    HW215753   2.956   3.722   3.016
 5137SOL     OW15754   2.632   5.054   2.163
 5137SOL    HW115755   2.586   4.967   2.180
 5137SOL    HW215756   2.723   5.051   2.204
 5138SOL     OW15757   2.480   5.291   3.146
 5138SOL    HW115758   2.475   5.373   3.203
 5138SOL    HW215759   2.569   5.288   3.101
 5139SOL     OW15760   3.214   3.776   2.030
 5139SOL    HW115761   3.249   3.735   1.946
 5139SOL    HW215762   3.124   3.738   2.050
 5140SOL     OW15763   3.162   4.177   2.553
 5140SOL    HW115764   3.103   4.257   2.557
 5140SOL    HW215765   3.177   4.142   2.646
 5141SOL     OW15766   3.455   3.945   2.744
 5141SOL    HW115767   3.371   3.944   2.798
 5141SOL    HW215768   3.457   4.028   2.688
 5142SOL     OW15769   1.901   4.801   2.162
 5142SOL    HW115770   2.000   4.790   2.153
 5142SOL    HW215771   1.861   4.715   2.194
 5143SOL     OW15772   2.737   5.370   2.199
 5143SOL    HW115773   2.660   5.335   2.145
 5143SOL    HW215774   2.705   5.441   2.261
 5144SOL     OW15775   2.092   4.352   3.837
 5144SOL    HW115776   1.999   4.350   3.874
 5144SOL    HW215777   2.093   4.313   3.745
 5145SOL     OW15778   2.087   3.999   4.720
 5145SOL    HW115779   2.122   3.982   4.812
 5145SOL    HW215780   1.999   3.954   4.708
 5146SOL     OW15781   1.881   4.092   4.371
 5146SOL    HW115782   1.799   4.135   4.410
 5146SOL    HW215783   1.853   4.019   4.308
 5147SOL     OW15784   2.431   4.999   4.889
 5147SOL    HW115785   2.338   4.992   4.852
 5147SOL    HW215786   2.442   5.088   4.933
 5148SOL     OW15787   3.417   5.235   4.427
 5148SOL    HW115788   3.360   5.219   4.508
 5148SOL    HW215789   3.358   5.245   4.347
 5149SOL     OW15790   2.997   4.427   4.441
 5149SOL    HW115791   3.054   4.505   4.416
 5149SOL    HW215792   2.937   4.453   4.517
 5150SOL     OW15793   3.617   4.331   3.955
 5150SOL    HW115794   3.605   4.318   3.856
 5150SOL    HW215795   3.587   4.250   4.004
 5151SOL     OW15796   2.630   4.868   4.747
 5151SOL    HW115797   2.552   4.885   4.807
 5151SOL    HW215798   2.664   4.955   4.711
 5152SOL     OW15799   2.712   4.522   5.547
 5152SOL    HW115800   2.708   4.598   5.612
 5152SOL    HW215801   2.734   4.558   5.456
 5153SOL     OW15802   2.547   4.736   4.389
 5153SOL    HW115803   2.616   4.720   4.459
 5153SOL    HW215804   2.474   4.793   4.427
 5154SOL     OW15805   2.548   4.885   5.527
 5154SOL    HW115806   2.608   4.964   5.541
 5154SOL    HW215807   2.462   4.916   5.486
 5155SOL     OW15808   2.197   5.159   4.785
 5155SOL    HW115809   2.119   5.128   4.732
 5155SOL    HW215810   2.255   5.217   4.728
 5156SOL     OW15811   3.322   5.229   5.063
 5156SOL    HW115812   3.346   5.323   5.089
 5156SOL    HW215813   3.306   5.175   5.145
 5157SOL     OW15814   2.300   4.116   5.223
 5157SOL    HW115815   2.382   4.060   5.232
 5157SOL    HW215816   2.219   4.058   5.227
 5158SOL     OW15817   3.465   4.171   4.461
 5158SOL    HW115818   3.391   4.217   4.411
 5158SOL    HW215819   3.516   4.239   4.514
 5159SOL     OW15820   2.093   5.437   4.207
 5159SOL    HW115821   2.127   5.514   4.261
 5159SOL    HW215822   2.137   5.437   4.117
 5160SOL     OW15823   2.989   5.065   5.414
 5160SOL    HW115824   3.036   5.065   5.502
 5160SOL    HW215825   2.941   4.978   5.403
 5161SOL     OW15826   2.092   5.158   4.262
 5161SOL    HW115827   2.066   5.254   4.262
 5161SOL    HW215828   2.021   5.104   4.307
 5162SOL     OW15829   2.102   4.815   4.610
 5162SOL    HW115830   2.116   4.731   4.662
 5162SOL    HW215831   2.047   4.879   4.665
 5163SOL     OW15832   2.482   5.510   5.163
 5163SOL    HW115833   2.390   5.493   5.198
 5163SOL    HW215834   2.510   5.602   5.189
 5164SOL     OW15835   2.468   4.688   3.847
 5164SOL    HW115836   2.475   4.772   3.793
 5164SOL    HW215837   2.514   4.701   3.935
 5165SOL     OW15838   3.456   3.838   5.204
 5165SOL    HW115839   3.438   3.905   5.132
 5165SOL    HW215840   3.453   3.884   5.293
 5166SOL     OW15841   1.984   4.367   4.287
 5166SOL    HW115842   1.939   4.279   4.304
 5166SOL    HW215843   1.983   4.421   4.371
 5167SOL     OW15844   1.889   5.320   3.841
 5167SOL    HW115845   1.870   5.224   3.862
 5167SOL    HW215846   1.856   5.378   3.916
 5168SOL     OW15847   3.551   4.646   4.336
 5168SOL    HW115848   3.646   4.617   4.344
 5168SOL    HW215849   3.543   4.711   4.261
 5169SOL     OW15850   3.503   4.832   4.156
 5169SOL    HW115851   3.589   4.834   4.104
 5169SOL    HW215852   3.517   4.879   4.244
 5170SOL     OW15853   1.975   4.461   5.321
 5170SOL    HW115854   2.063   4.448   5.366
 5170SOL    HW215855   1.962   4.558   5.299
 5171SOL     OW15856   2.475   5.089   4.450
 5171SOL    HW115857   2.426   5.002   4.459
 5171SOL    HW215858   2.452   5.132   4.363
 5172SOL     OW15859   3.155   4.952   5.147
 5172SOL    HW115860   3.192   4.879   5.089
 5172SOL    HW215861   3.207   4.957   5.232
 5173SOL     OW15862   2.671   3.728   4.226
 5173SOL    HW115863   2.711   3.819   4.217
 5173SOL    HW215864   2.571   3.736   4.232
 5174SOL     OW15865   2.059   4.700   4.988
 5174SOL    HW115866   2.148   4.655   4.974
 5174SOL    HW215867   1.986   4.635   4.969
 5175SOL     OW15868   3.387   4.723   3.914
 5175SOL    HW115869   3.324   4.647   3.927
 5175SOL    HW215870   3.435   4.741   4.000
 5176SOL     OW15871   3.049   5.516   5.340
 5176SOL    HW115872   3.073   5.576   5.264
 5176SOL    HW215873   3.056   5.421   5.310
 5177SOL     OW15874   2.179   3.975   5.525
 5177SOL    HW115875   2.250   4.046   5.531
 5177SOL    HW215876   2.091   4.014   5.553
 5178SOL     OW15877   3.328   5.141   4.677
 5178SOL    HW115878   3.269   5.147   4.757
 5178SOL    HW215879   3.313   5.053   4.631
 5179SOL     OW15880   2.460   4.453   3.994
 5179SOL    HW115881   2.484   4.522   3.926
 5179SOL    HW215882   2.382   4.486   4.048
 5180SOL     OW15883   3.143   4.069   4.668
 5180SOL    HW115884   3.057   4.019   4.655
 5180SOL    HW215885   3.205   4.015   4.724
 5181SOL     OW15886   2.669   4.329   5.189
 5181SOL    HW115887   2.622   4.326   5.278
 5181SOL    HW215888   2.618   4.274   5.123
 5182SOL     OW15889   3.256   4.193   5.398
 5182SOL    HW115890   3.236   4.236   5.486
 5182SOL    HW215891   3.334   4.131   5.407
 5183SOL     OW15892   2.835   4.614   5.296
 5183SOL    HW115893   2.881   4.530   5.267
 5183SOL    HW215894   2.779   4.648   5.221
 5184SOL     OW15895   2.853   4.134   4.966
 5184SOL    HW115896   2.776   4.168   5.020
 5184SOL    HW215897   2.819   4.083   4.887
 5185SOL     OW15898   2.903   4.425   4.153
 5185SOL    HW115899   2.929   4.421   4.249
 5185SOL    HW215900   2.818   4.374   4.139
 5186SOL     OW15901   1.938   4.535   4.513
 5186SOL    HW115902   2.037   4.523   4.522
 5186SOL    HW215903   1.914   4.630   4.534
 5187SOL     OW15904   1.992   5.545   5.295
 5187SOL    HW115905   1.982   5.530   5.394
 5187SOL    HW215906   1.906   5.581   5.259
 5188SOL     OW15907   2.727   4.072   3.919
 5188SOL    HW115908   2.786   4.135   3.870
 5188SOL    HW215909   2.746   3.978   3.890
 5189SOL     OW15910   3.581   4.309   5.555
 5189SOL    HW115911   3.555   4.398   5.519
 5189SOL    HW215912   3.579   4.241   5.482
 5190SOL     OW15913   3.224   4.868   4.269
 5190SOL    HW115914   3.307   4.839   4.221
 5190SOL    HW215915   3.175   4.935   4.213
 5191SOL     OW15916   2.412   3.920   4.609
 5191SOL    HW115917   2.407   3.915   4.709
 5191SOL    HW215918   2.414   4.016   4.580
 5192SOL     OW15919   2.870   5.180   4.201
 5192SOL    HW115920   2.824   5.252   4.149
 5192SOL    HW215921   2.866   5.200   4.299
 5193SOL     OW15922   2.213   5.525   4.577
 5193SOL    HW115923   2.263   5.439   4.583
 5193SOL    HW215924   2.278   5.602   4.574
 5194SOL     OW15925   3.657   4.790   4.597
 5194SOL    HW115926   3.595   4.775   4.521
 5194SOL    HW215927   3.605   4.801   4.682
 5195SOL     OW15928   2.183   4.667   3.966
 5195SOL    HW115929   2.265   4.706   3.924
 5195SOL    HW215930   2.156   4.585   3.917
 5196SOL     OW15931   3.320   4.459   4.452
 5196SOL    HW115932   3.315   4.394   4.527
 5196SOL    HW215933   3.400   4.518   4.465
 5197SOL     OW15934   2.323   4.990   5.451
 5197SOL    HW115935   2.273   4.991   5.365
 5197SOL    HW215936   2.260   4.972   5.527
 5198SOL     OW15937   2.064   4.009   5.222
 5198SOL    HW115938   1.984   4.069   5.209
 5198SOL    HW215939   2.054   3.960   5.308
 5199SOL     OW15940   3.494   5.101   3.805
 5199SOL    HW115941   3.462   5.195   3.795
 5199SOL    HW215942   3.418   5.038   3.793
 5200SOL     OW15943   2.326   5.467   4.047
 5200SOL    HW115944   2.359   5.506   4.133
 5200SOL    HW215945   2.402   5.460   3.982
 5201SOL     OW15946   3.262   3.831   4.150
 5201SOL    HW115947   3.238   3.794   4.060
 5201SOL    HW215948   3.361   3.847   4.154
 5202SOL     OW15949   2.111   5.509   4.965
 5202SOL    HW115950   2.168   5.444   5.015
 5202SOL    HW215951   2.095   5.476   4.872
 5203SOL     OW15952   2.802   5.422   4.628
 5203SOL    HW115953   2.882   5.365   4.649
 5203SOL    HW215954   2.753   5.382   4.551
 5204SOL     OW15955   2.244   4.424   4.204
 5204SOL    HW115956   2.289   4.334   4.201
 5204SOL    HW215957   2.150   4.413   4.237
 5205SOL     OW15958   3.409   3.946   5.453
 5205SOL    HW115959   3.404   3.983   5.545
 5205SOL    HW215960   3.337   3.877   5.441
 5206SOL     OW15961   2.476   3.846   3.841
 5206SOL    HW115962   2.574   3.824   3.848
 5206SOL    HW215963   2.445   3.829   3.748
 5207SOL     OW15964   2.643   3.988   5.473
 5207SOL    HW115965   2.710   3.927   5.516
 5207SOL    HW215966   2.570   4.007   5.538
 5208SOL     OW15967   3.213   4.314   5.157
 5208SOL    HW115968   3.241   4.271   5.242
 5208SOL    HW215969   3.238   4.410   5.158
 5209SOL     OW15970   2.665   5.126   4.648
 5209SOL    HW115971   2.755   5.140   4.606
 5209SOL    HW215972   2.594   5.128   4.577
 5210SOL     OW15973   2.784   4.227   4.623
 5210SOL    HW115974   2.759   4.218   4.527
 5210SOL    HW215975   2.832   4.145   4.654
 5211SOL     OW15976   2.401   3.788   4.236
 5211SOL    HW115977   2.320   3.789   4.294
 5211SOL    HW215978   2.404   3.871   4.181
 5212SOL     OW15979   3.296   4.912   3.765
 5212SOL    HW115980   3.328   4.836   3.822
 5212SOL    HW215981   3.204   4.939   3.795
 5213SOL     OW15982   2.159   3.759   3.895
 5213SOL    HW115983   2.208   3.843   3.874
 5213SOL    HW215984   2.221   3.694   3.940
 5214SOL     OW15985   2.797   3.960   4.204
 5214SOL    HW115986   2.749   4.001   4.126
 5214SOL    HW215987   2.896   3.958   4.185
 5215SOL     OW15988   2.938   4.407   5.188
 5215SOL    HW115989   2.858   4.346   5.191
 5215SOL    HW215990   3.019   4.354   5.164
 5216SOL     OW15991   2.321   4.876   4.465
 5216SOL    HW115992   2.250   4.849   4.530
 5216SOL    HW215993   2.295   4.848   4.372
 5217SOL     OW15994   2.894   4.273   3.740
 5217SOL    HW115995   2.853   4.355   3.701
 5217SOL    HW215996   2.958   4.299   3.813
 5218SOL     OW15997   1.940   4.280   5.110
 5218SOL    HW115998   2.032   4.279   5.069
 5218SOL    HW215999   1.934   4.354   5.177
 5219SOL     OW16000   2.423   3.946   4.871
 5219SOL    HW116001   2.461   3.862   4.908
 5219SOL    HW216002   2.335   3.965   4.915
 5220SOL     OW16003   2.728   4.178   4.366
 5220SOL    HW116004   2.696   4.250   4.304
 5220SOL    HW216005   2.752   4.097   4.313
 5221SOL     OW16006   2.879   3.763   4.477
 5221SOL    HW116007   2.807   3.768   4.408
 5221SOL    HW216008   2.855   3.694   4.546
 5222SOL     OW16009   3.291   4.897   4.591
 5222SOL    HW116010   3.236   4.813   4.584
 5222SOL    HW216011   3.317   4.926   4.499
 5223SOL     OW16012   3.328   4.314   4.716
 5223SOL    HW116013   3.298   4.219   4.723
 5223SOL    HW216014   3.401   4.330   4.782
 5224SOL     OW16015   3.719   4.557   4.101
 5224SOL    HW116016   3.761   4.493   4.165
 5224SOL    HW216017   3.681   4.506   4.023
 5225SOL     OW16018   2.350   5.109   3.898
 5225SOL    HW116019   2.263   5.094   3.945
 5225SOL    HW216020   2.333   5.135   3.803
 5226SOL     OW16021   3.526   5.004   4.381
 5226SOL    HW116022   3.625   5.012   4.395
 5226SOL    HW216023   3.481   5.088   4.412
 5227SOL     OW16024   3.252   4.299   3.802
 5227SOL    HW116025   3.198   4.278   3.883
 5227SOL    HW216026   3.343   4.258   3.811
 5228SOL     OW16027   2.389   3.980   4.052
 5228SOL    HW116028   2.416   3.921   3.977
 5228SOL    HW216029   2.389   4.075   4.021
 5229SOL     OW16030   3.616   4.947   5.312
 5229SOL    HW116031   3.707   4.908   5.299
 5229SOL    HW216032   3.624   5.043   5.336
 5230SOL     OW16033   2.926   5.071   5.064
 5230SOL    HW116034   2.846   5.048   5.119
 5230SOL    HW216035   3.009   5.045   5.113
 5231SOL     OW16036   3.454   5.353   5.349
 5231SOL    HW116037   3.481   5.387   5.259
 5231SOL    HW216038   3.533   5.315   5.395
 5232SOL     OW16039   2.973   4.919   4.824
 5232SOL    HW116040   2.933   4.963   4.905
 5232SOL    HW216041   2.932   4.956   4.741
 5233SOL     OW16042   3.500   4.823   4.803
 5233SOL    HW116043   3.505   4.904   4.862
 5233SOL    HW216044   3.414   4.825   4.752
 5234SOL     OW16045   2.777   3.813   5.126
 5234SOL    HW116046   2.802   3.793   5.031
 5234SOL    HW216047   2.849   3.869   5.168
 5235SOL     OW16048   2.842   4.840   5.443
 5235SOL    HW116049   2.743   4.846   5.453
 5235SOL    HW216050   2.865   4.760   5.387
 5236SOL     OW16051   2.567   4.774   4.092
 5236SOL    HW116052   2.553   4.781   4.191
 5236SOL    HW216053   2.651   4.723   4.074
 5237SOL     OW16054   2.272   4.537   4.975
 5237SOL    HW116055   2.358   4.549   5.025
 5237SOL    HW216056   2.230   4.450   5.002
 5238SOL     OW16057   3.136   4.110   4.986
 5238SOL    HW116058   3.157   4.184   5.050
 5238SOL    HW216059   3.047   4.127   4.943
 5239SOL     OW16060   1.926   5.288   5.055
 5239SOL    HW116061   1.880   5.370   5.021
 5239SOL    HW216062   2.024   5.307   5.064
 5240SOL     OW16063   2.229   4.824   4.225
 5240SOL    HW116064   2.222   4.907   4.169
 5240SOL    HW216065   2.233   4.744   4.165
 5241SOL     OW16066   2.428   4.261   4.589
 5241SOL    HW116067   2.440   4.327   4.515
 5241SOL    HW216068   2.474   4.295   4.672
 5242SOL     OW16069   3.114   5.072   4.112
 5242SOL    HW116070   3.164   5.149   4.152
 5242SOL    HW216071   3.019   5.074   4.144
 5243SOL     OW16072   3.134   5.169   4.866
 5243SOL    HW116073   3.181   5.182   4.953
 5243SOL    HW216074   3.068   5.095   4.875
 5244SOL     OW16075   3.444   4.363   4.196
 5244SOL    HW116076   3.413   4.424   4.269
 5244SOL    HW216077   3.494   4.415   4.127
 5245SOL     OW16078   2.216   5.234   5.053
 5245SOL    HW116079   2.195   5.190   4.966
 5245SOL    HW216080   2.313   5.260   5.056
 5246SOL     OW16081   2.264   4.475   5.322
 5246SOL    HW116082   2.332   4.530   5.275
 5246SOL    HW216083   2.304   4.387   5.349
 5247SOL     OW16084   3.449   4.503   5.394
 5247SOL    HW116085   3.357   4.541   5.389
 5247SOL    HW216086   3.509   4.550   5.329
 5248SOL     OW16087   2.875   3.829   5.494
 5248SOL    HW116088   2.881   3.914   5.442
 5248SOL    HW216089   2.907   3.753   5.437
 5249SOL     OW16090   2.366   3.774   5.464
 5249SOL    HW116091   2.324   3.717   5.394
 5249SOL    HW216092   2.300   3.843   5.496
 5250SOL     OW16093   2.435   4.594   4.753
 5250SOL    HW116094   2.479   4.683   4.744
 5250SOL    HW216095   2.372   4.594   4.830
 5251SOL     OW16096   3.222   4.586   4.769
 5251SOL    HW116097   3.147   4.586   4.703
 5251SOL    HW216098   3.259   4.494   4.778
 5252SOL     OW16099   3.071   4.249   3.999
 5252SOL    HW116100   3.084   4.165   4.053
 5252SOL    HW216101   3.042   4.323   4.059
 5253SOL     OW16102   2.169   3.937   4.955
 5253SOL    HW116103   2.146   3.974   5.045
 5253SOL    HW216104   2.139   3.842   4.949
 5254SOL     OW16105   1.899   5.034   5.006
 5254SOL    HW116106   1.952   4.985   5.074
 5254SOL    HW216107   1.921   5.132   5.011
 5255SOL     OW16108   2.594   4.358   4.788
 5255SOL    HW116109   2.653   4.332   4.712
 5255SOL    HW216110   2.566   4.454   4.777
 5256SOL     OW16111   3.590   4.659   5.578
 5256SOL    HW116112   3.544   4.652   5.489
 5256SOL    HW216113   3.528   4.703   5.644
 5257SOL     OW16114   2.169   3.787   4.342
 5257SOL    HW116115   2.158   3.881   4.375
 5257SOL    HW216116   2.164   3.724   4.419
 5258SOL     OW16117   3.484   4.091   4.098
 5258SOL    HW116118   3.486   4.015   4.162
 5258SOL    HW216119   3.436   4.168   4.138
 5259SOL     OW16120   2.885   4.490   4.690
 5259SOL    HW116121   2.900   4.511   4.786
 5259SOL    HW216122   2.855   4.395   4.681
 5260SOL     OW16123   2.842   5.297   5.424
 5260SOL    HW116124   2.822   5.341   5.336
 5260SOL    HW216125   2.881   5.206   5.408
 5261SOL     OW16126   3.721   5.242   5.329
 5261SOL    HW116127   3.735   5.269   5.234
 5261SOL    HW216128   3.804   5.264   5.382
 5262SOL     OW16129   2.212   4.622   5.528
 5262SOL    HW116130   2.288   4.666   5.576
 5262SOL    HW216131   2.247   4.575   5.446
 5263SOL     OW16132   3.402   3.998   3.849
 5263SOL    HW116133   3.341   3.923   3.872
 5263SOL    HW216134   3.424   4.050   3.932
 5264SOL     OW16135   3.165   4.562   3.766
 5264SOL    HW116136   3.199   4.469   3.781
 5264SOL    HW216137   3.183   4.589   3.671
 5265SOL     OW16138   2.930   5.057   4.573
 5265SOL    HW116139   2.937   4.973   4.518
 5265SOL    HW216140   2.992   5.126   4.537
 5266SOL     OW16141   2.181   4.534   4.673
 5266SOL    HW116142   2.274   4.570   4.678
 5266SOL    HW216143   2.175   4.449   4.725
 5267SOL     OW16144   2.201   4.233   4.730
 5267SOL    HW116145   2.149   4.150   4.713
 5267SOL    HW216146   2.278   4.238   4.666
 5268SOL     OW16147   3.000   4.104   5.402
 5268SOL    HW116148   2.955   4.167   5.466
 5268SOL    HW216149   3.093   4.135   5.385
 5269SOL     OW16150   3.022   3.931   5.201
 5269SOL    HW116151   3.022   3.995   5.278
 5269SOL    HW216152   3.050   3.979   5.118
 5270SOL     OW16153   1.870   5.050   3.924
 5270SOL    HW116154   1.777   5.071   3.893
 5270SOL    HW216155   1.880   4.951   3.937
 5271SOL     OW16156   1.950   5.525   4.651
 5271SOL    HW116157   1.908   5.439   4.624
 5271SOL    HW216158   2.044   5.528   4.617
 5272SOL     OW16159   2.366   5.292   4.634
 5272SOL    HW116160   2.432   5.366   4.643
 5272SOL    HW216161   2.410   5.213   4.592
 5273SOL     OW16162   2.864   4.520   4.962
 5273SOL    HW116163   2.905   4.488   5.048
 5273SOL    HW216164   2.768   4.493   4.959
 5274SOL     OW16165   1.902   4.268   4.838
 5274SOL    HW116166   1.987   4.235   4.797
 5274SOL    HW216167   1.915   4.283   4.936
 5275SOL     OW16168   2.051   4.244   5.446
 5275SOL    HW116169   2.110   4.204   5.376
 5275SOL    HW216170   1.993   4.315   5.405
 5276SOL     OW16171   3.231   4.674   5.384
 5276SOL    HW116172   3.270   4.763   5.404
 5276SOL    HW216173   3.241   4.654   5.287
 5277SOL     OW16174   2.677   4.296   4.049
 5277SOL    HW116175   2.684   4.207   4.003
 5277SOL    HW216176   2.583   4.330   4.041
 5278SOL     OW16177   3.519   4.328   4.930
 5278SOL    HW116178   3.481   4.259   4.992
 5278SOL    HW216179   3.601   4.292   4.886
 5279SOL     OW16180   2.114   5.288   5.468
 5279SOL    HW116181   2.084   5.345   5.544
 5279SOL    HW216182   2.107   5.191   5.494
 5280SOL     OW16183   2.533   4.188   4.993
 5280SOL    HW116184   2.499   4.099   4.963
 5280SOL    HW216185   2.559   4.242   4.913
 5281SOL     OW16186   2.792   5.402   5.189
 5281SOL    HW116187   2.768   5.384   5.094
 5281SOL    HW216188   2.822   5.496   5.199
 5282SOL     OW16189   2.335   4.224   3.915
 5282SOL    HW116190   2.396   4.304   3.919
 5282SOL    HW216191   2.240   4.255   3.922
 5283SOL     OW16192   2.021   4.861   5.190
 5283SOL    HW116193   2.043   4.800   5.266
 5283SOL    HW216194   2.031   4.812   5.104
 5284SOL     OW16195   3.209   4.783   4.958
 5284SOL    HW116196   3.233   4.720   4.884
 5284SOL    HW216197   3.119   4.823   4.940
 5285SOL     OW16198   3.164   4.579   4.033
 5285SOL    HW116199   3.078   4.548   4.075
 5285SOL    HW216200   3.160   4.565   3.934
 5286SOL     OW16201   3.621   5.471   4.878
 5286SOL    HW116202   3.682   5.501   4.805
 5286SOL    HW216203   3.583   5.382   4.856
 5287SOL     OW16204   1.945   4.982   4.746
 5287SOL    HW116205   1.940   4.981   4.846
 5287SOL    HW216206   1.862   4.941   4.708
 5288SOL     OW16207   2.550   5.386   5.440
 5288SOL    HW116208   2.494   5.467   5.449
 5288SOL    HW216209   2.602   5.390   5.354
 5289SOL     OW16210   3.588   3.859   4.247
 5289SOL    HW116211   3.661   3.842   4.180
 5289SOL    HW216212   3.557   3.772   4.285
 5290SOL     OW16213   1.992   5.518   5.575
 5290SOL    HW116214   1.951   5.444   5.628
 5290SOL    HW216215   2.056   5.569   5.633
 5291SOL     OW16216   3.142   4.651   4.396
 5291SOL    HW116217   3.202   4.570   4.398
 5291SOL    HW216218   3.182   4.720   4.336
 5292SOL     OW16219   2.692   4.997   5.146
 5292SOL    HW116220   2.687   5.030   5.241
 5292SOL    HW216221   2.606   5.016   5.100
 5293SOL     OW16222   2.534   5.340   3.878
 5293SOL    HW116223   2.543   5.350   3.779
 5293SOL    HW216224   2.494   5.251   3.899
 5294SOL     OW16225   3.512   5.444   5.118
 5294SOL    HW116226   3.565   5.454   5.034
 5294SOL    HW216227   3.485   5.534   5.152
 5295SOL     OW16228   3.703   3.899   4.687
 5295SOL    HW116229   3.742   3.814   4.651
 5295SOL    HW216230   3.605   3.901   4.668
 5296SOL     OW16231   2.125   4.050   4.444
 5296SOL    HW116232   2.046   4.101   4.410
 5296SOL    HW216233   2.116   4.035   4.542
 5297SOL     OW16234   3.056   5.336   3.755
 5297SOL    HW116235   3.062   5.243   3.792
 5297SOL    HW216236   2.997   5.336   3.675
 5298SOL     OW16237   2.684   4.726   5.096
 5298SOL    HW116238   2.724   4.725   5.004
 5298SOL    HW216239   2.694   4.818   5.136
 5299SOL     OW16240   2.778   4.634   4.015
 5299SOL    HW116241   2.841   4.672   3.947
 5299SOL    HW216242   2.818   4.551   4.054
 5300SOL     OW16243   3.366   5.331   3.768
 5300SOL    HW116244   3.274   5.368   3.775
 5300SOL    HW216245   3.404   5.351   3.678
 5301SOL     OW16246   3.476   5.016   5.013
 5301SOL    HW116247   3.536   5.019   5.093
 5301SOL    HW216248   3.401   5.080   5.026
 5302SOL     OW16249   2.901   4.822   4.420
 5302SOL    HW116250   2.831   4.775   4.474
 5302SOL    HW216251   2.960   4.754   4.377
 5303SOL     OW16252   2.876   3.960   4.695
 5303SOL    HW116253   2.868   3.924   4.602
 5303SOL    HW216254   2.874   3.884   4.760
 5304SOL     OW16255   2.452   5.211   4.215
 5304SOL    HW116256   2.494   5.153   4.145
 5304SOL    HW216257   2.408   5.290   4.171
 5305SOL     OW16258   3.571   4.109   5.105
 5305SOL    HW116259   3.644   4.178   5.109
 5305SOL    HW216260   3.599   4.034   5.046
 5306SOL     OW16261   2.117   5.072   4.014
 5306SOL    HW116262   2.021   5.073   3.987
 5306SOL    HW216263   2.129   5.125   4.098
 5307SOL     OW16264   1.967   4.737   5.450
 5307SOL    HW116265   1.890   4.704   5.504
 5307SOL    HW216266   2.052   4.707   5.492
 5308SOL     OW16267   2.534   3.927   5.213
 5308SOL    HW116268   2.624   3.911   5.173
 5308SOL    HW216269   2.542   3.932   5.312
 5309SOL     OW16270   1.937   4.069   3.757
 5309SOL    HW116271   1.845   4.041   3.728
 5309SOL    HW216272   1.968   4.146   3.701
 5310SOL     OW16273   3.302   4.580   5.122
 5310SOL    HW116274   3.245   4.632   5.059
 5310SOL    HW216275   3.398   4.592   5.098
 5311SOL     OW16276   1.934   3.890   4.042
 5311SOL    HW116277   1.917   3.973   3.988
 5311SOL    HW216278   2.024   3.853   4.020
 5312SOL     OW16279   3.045   5.059   3.843
 5312SOL    HW116280   2.946   5.048   3.845
 5312SOL    HW216281   3.079   5.074   3.936
 5313SOL     OW16282   2.475   4.566   5.155
 5313SOL    HW116283   2.531   4.647   5.138
 5313SOL    HW216284   2.534   4.486   5.158
 5314SOL     OW16285   2.578   4.289   5.432
 5314SOL    HW116286   2.597   4.354   5.506
 5314SOL    HW216287   2.638   4.209   5.441
 5315SOL     OW16288   3.312   4.944   5.357
 5315SOL    HW116289   3.303   4.934   5.456
 5315SOL    HW216290   3.408   4.937   5.331
 5316SOL     OW16291   2.252   5.465   5.284
 5316SOL    HW116292   2.161   5.506   5.282
 5316SOL    HW216293   2.245   5.371   5.316
 5317SOL     OW16294   3.536   4.607   4.978
 5317SOL    HW116295   3.509   4.518   4.941
 5317SOL    HW216296   3.537   4.675   4.905
 5318SOL     OW16297   3.087   4.049   4.173
 5318SOL    HW116298   3.152   3.975   4.162
 5318SOL    HW216299   3.107   4.099   4.257
 5319SOL     OW16300   2.456   4.469   4.376
 5319SOL    HW116301   2.506   4.554   4.357
 5319SOL    HW216302   2.368   4.471   4.328
 5320SOL     OW16303   3.639   4.066   5.366
 5320SOL    HW116304   3.622   4.097   5.272
 5320SOL    HW216305   3.555   4.029   5.404
 5321SOL     OW16306   3.592   4.658   5.241
 5321SOL    HW116307   3.630   4.749   5.256
 5321SOL    HW216308   3.584   4.641   5.142
 5322SOL     OW16309   2.721   5.098   3.740
 5322SOL    HW116310   2.675   5.113   3.828
 5322SOL    HW216311   2.765   5.183   3.710
 5323SOL     OW16312   2.523   5.514   4.677
 5323SOL    HW116313   2.477   5.602   4.664
 5323SOL    HW216314   2.622   5.526   4.670
 5324SOL     OW16315   2.721   4.680   4.585
 5324SOL    HW116316   2.775   4.611   4.633
 5324SOL    HW216317   2.689   4.749   4.651
 5325SOL     OW16318   2.945   4.708   3.811
 5325SOL    HW116319   2.922   4.761   3.729
 5325SOL    HW216320   3.026   4.652   3.792
 5326SOL     OW16321   3.723   5.293   4.575
 5326SOL    HW116322   3.652   5.281   4.505
 5326SOL    HW216323   3.724   5.214   4.635
 5327SOL     OW16324   2.083   5.038   5.568
 5327SOL    HW116325   2.018   4.965   5.547
 5327SOL    HW216326   2.087   5.052   5.666
 5328SOL     OW16327   1.941   4.964   4.377
 5328SOL    HW116328   1.940   4.917   4.465
 5328SOL    HW216329   2.023   4.936   4.326
 5329SOL     OW16330   2.534   5.115   5.348
 5329SOL    HW116331   2.456   5.065   5.386
 5329SOL    HW216332   2.531   5.210   5.379
 5330SOL     OW16333   3.686   3.916   4.951
 5330SOL    HW116334   3.682   3.826   4.995
 5330SOL    HW216335   3.689   3.905   4.852
 5331SOL     OW16336   2.290   4.148   4.244
 5331SOL    HW116337   2.320   4.076   4.182
 5331SOL    HW216338   2.251   4.108   4.327
 5332SOL     OW16339   3.567   5.211   4.828
 5332SOL    HW116340   3.474   5.186   4.801
 5332SOL    HW216341   3.593   5.161   4.910
 5333SOL     OW16342   2.179   4.271   5.004
 5333SOL    HW116343   2.217   4.212   5.076
 5333SOL    HW216344   2.219   4.245   4.916
 5334SOL     OW16345   2.674   5.310   4.411
 5334SOL    HW116346   2.706   5.320   4.317
 5334SOL    HW216347   2.595   5.248   4.413
 5335SOL     OW16348   3.286   3.938   4.836
 5335SOL    HW116349   3.338   3.873   4.891
 5335SOL    HW216350   3.237   4.001   4.897
 5336SOL     OW16351   2.863   3.758   4.878
 5336SOL    HW116352   2.800   3.686   4.847
 5336SOL    HW216353   2.956   3.722   4.878
 5337SOL     OW16354   2.632   5.054   4.025
 5337SOL    HW116355   2.586   4.967   4.042
 5337SOL    HW216356   2.723   5.051   4.066
 5338SOL     OW16357   2.480   5.291   5.008
 5338SOL    HW116358   2.475   5.373   5.065
 5338SOL    HW216359   2.569   5.288   4.963
 5339SOL     OW16360   3.214   3.776   3.892
 5339SOL    HW116361   3.249   3.735   3.808
 5339SOL    HW216362   3.124   3.738   3.912
 5340SOL     OW16363   3.162   4.177   4.415
 5340SOL    HW116364   3.103   4.257   4.419
 5340SOL    HW216365   3.177   4.142   4.508
 5341SOL     OW16366   3.455   3.945   4.606
 5341SOL    HW116367   3.371   3.944   4.660
 5341SOL    HW216368   3.457   4.028   4.550
 5342SOL     OW16369   1.901   4.801   4.024
 5342SOL    HW116370   2.000   4.790   4.015
 5342SOL    HW216371   1.861   4.715   4.056
 5343SOL     OW16372   2.737   5.370   4.061
 5343SOL    HW116373   2.660   5.335   4.007
 5343SOL    HW216374   2.705   5.441   4.123
 5344SOL     OW16375   2.092   4.352   5.699
 5344SOL    HW116376   1.999   4.350   5.736
 5344SOL    HW216377   2.093   4.313   5.607
 5345SOL     OW16378   2.087   3.999   6.582
 5345SOL    HW116379   2.122   3.982   6.674
 5345SOL    HW216380   1.999   3.954   6.570
 5346SOL     OW16381   1.881   4.092   6.233
 5346SOL    HW116382   1.799   4.135   6.272
 5346SOL    HW216383   1.853   4.019   6.170
 5347SOL     OW16384   2.431   4.999   6.751
 5347SOL    HW116385   2.338   4.992   6.714
 5347SOL    HW216386   2.442   5.088   6.795
 5348SOL     OW16387   3.417   5.235   6.289
 5348SOL    HW116388   3.360   5.219   6.370
 5348SOL    HW216389   3.358   5.245   6.209
 5349SOL     OW16390   2.997   4.427   6.303
 5349SOL    HW116391   3.054   4.505   6.278
 5349SOL    HW216392   2.937   4.453   6.379
 5350SOL     OW16393   3.617   4.331   5.817
 5350SOL    HW116394   3.605   4.318   5.718
 5350SOL    HW216395   3.587   4.250   5.866
 5351SOL     OW16396   2.630   4.868   6.609
 5351SOL    HW116397   2.552   4.885   6.669
 5351SOL    HW216398   2.664   4.955   6.573
 5352SOL     OW16399   2.547   4.736   6.251
 5352SOL    HW116400   2.616   4.720   6.321
 5352SOL    HW216401   2.474   4.793   6.289
 5353SOL     OW16402   2.197   5.159   6.647
 5353SOL    HW116403   2.119   5.128   6.594
 5353SOL    HW216404   2.255   5.217   6.590
 5354SOL     OW16405   3.465   4.171   6.323
 5354SOL    HW116406   3.391   4.217   6.273
 5354SOL    HW216407   3.516   4.239   6.376
 5355SOL     OW16408   2.093   5.437   6.069
 5355SOL    HW116409   2.127   5.514   6.123
 5355SOL    HW216410   2.137   5.437   5.979
 5356SOL     OW16411   2.092   5.158   6.124
 5356SOL    HW116412   2.066   5.254   6.124
 5356SOL    HW216413   2.021   5.104   6.169
 5357SOL     OW16414   2.102   4.815   6.472
 5357SOL    HW116415   2.116   4.731   6.524
 5357SOL    HW216416   2.047   4.879   6.527
 5358SOL     OW16417   2.468   4.688   5.709
 5358SOL    HW116418   2.475   4.772   5.655
 5358SOL    HW216419   2.514   4.701   5.797
 5359SOL     OW16420   1.984   4.367   6.149
 5359SOL    HW116421   1.939   4.279   6.166
 5359SOL    HW216422   1.983   4.421   6.233
 5360SOL     OW16423   3.704   5.491   5.945
 5360SOL    HW116424   3.758   5.462   6.025
 5360SOL    HW216425   3.734   5.581   5.916
 5361SOL     OW16426   1.889   5.320   5.703
 5361SOL    HW116427   1.870   5.224   5.724
 5361SOL    HW216428   1.856   5.378   5.778
 5362SOL     OW16429   3.551   4.646   6.198
 5362SOL    HW116430   3.646   4.617   6.206
 5362SOL    HW216431   3.543   4.711   6.123
 5363SOL     OW16432   3.503   4.832   6.018
 5363SOL    HW116433   3.589   4.834   5.966
 5363SOL    HW216434   3.517   4.879   6.106
 5364SOL     OW16435   2.475   5.089   6.312
 5364SOL    HW116436   2.426   5.002   6.321
 5364SOL    HW216437   2.452   5.132   6.225
 5365SOL     OW16438   2.671   3.728   6.088
 5365SOL    HW116439   2.711   3.819   6.079
 5365SOL    HW216440   2.571   3.736   6.094
 5366SOL     OW16441   3.387   4.723   5.776
 5366SOL    HW116442   3.324   4.647   5.789
 5366SOL    HW216443   3.435   4.741   5.862
 5367SOL     OW16444   3.328   5.141   6.539
 5367SOL    HW116445   3.269   5.147   6.619
 5367SOL    HW216446   3.313   5.053   6.493
 5368SOL     OW16447   3.529   5.438   6.158
 5368SOL    HW116448   3.488   5.415   6.070
 5368SOL    HW216449   3.511   5.364   6.223
 5369SOL     OW16450   2.460   4.453   5.856
 5369SOL    HW116451   2.484   4.522   5.788
 5369SOL    HW216452   2.382   4.486   5.910
 5370SOL     OW16453   3.143   4.069   6.530
 5370SOL    HW116454   3.057   4.019   6.517
 5370SOL    HW216455   3.205   4.015   6.586
 5371SOL     OW16456   3.438   5.386   5.893
 5371SOL    HW116457   3.527   5.432   5.896
 5371SOL    HW216458   3.417   5.362   5.798
 5372SOL     OW16459   2.853   4.134   6.828
 5372SOL    HW116460   2.776   4.168   6.882
 5372SOL    HW216461   2.819   4.083   6.749
 5373SOL     OW16462   2.903   4.425   6.015
 5373SOL    HW116463   2.929   4.421   6.111
 5373SOL    HW216464   2.818   4.374   6.001
 5374SOL     OW16465   1.938   4.535   6.375
 5374SOL    HW116466   2.037   4.523   6.384
 5374SOL    HW216467   1.914   4.630   6.396
 5375SOL     OW16468   2.727   4.072   5.781
 5375SOL    HW116469   2.786   4.135   5.732
 5375SOL    HW216470   2.746   3.978   5.752
 5376SOL     OW16471   3.224   4.868   6.131
 5376SOL    HW116472   3.307   4.839   6.083
 5376SOL    HW216473   3.175   4.935   6.075
 5377SOL     OW16474   2.412   3.920   6.471
 5377SOL    HW116475   2.407   3.915   6.571
 5377SOL    HW216476   2.414   4.016   6.442
 5378SOL     OW16477   2.870   5.180   6.063
 5378SOL    HW116478   2.824   5.252   6.011
 5378SOL    HW216479   2.866   5.200   6.161
 5379SOL     OW16480   2.213   5.525   6.439
 5379SOL    HW116481   2.263   5.439   6.445
 5379SOL    HW216482   2.278   5.602   6.436
 5380SOL     OW16483   3.657   4.790   6.459
 5380SOL    HW116484   3.595   4.775   6.383
 5380SOL    HW216485   3.605   4.801   6.544
 5381SOL     OW16486   2.183   4.667   5.828
 5381SOL    HW116487   2.265   4.706   5.786
 5381SOL    HW216488   2.156   4.585   5.779
 5382SOL     OW16489   3.320   4.459   6.314
 5382SOL    HW116490   3.315   4.394   6.389
 5382SOL    HW216491   3.400   4.518   6.327
 5383SOL     OW16492   2.973   5.500   5.823
 5383SOL    HW116493   2.913   5.438   5.873
 5383SOL    HW216494   3.004   5.456   5.738
 5384SOL     OW16495   3.494   5.101   5.667
 5384SOL    HW116496   3.462   5.195   5.657
 5384SOL    HW216497   3.418   5.038   5.655
 5385SOL     OW16498   2.326   5.467   5.909
 5385SOL    HW116499   2.359   5.506   5.995
 5385SOL    HW216500   2.402   5.460   5.844
 5386SOL     OW16501   3.262   3.831   6.012
 5386SOL    HW116502   3.238   3.794   5.922
 5386SOL    HW216503   3.361   3.847   6.016
 5387SOL     OW16504   2.111   5.509   6.827
 5387SOL    HW116505   2.168   5.444   6.877
 5387SOL    HW216506   2.095   5.476   6.734
 5388SOL     OW16507   2.802   5.422   6.490
 5388SOL    HW116508   2.882   5.365   6.511
 5388SOL    HW216509   2.753   5.382   6.413
 5389SOL     OW16510   2.244   4.424   6.066
 5389SOL    HW116511   2.289   4.334   6.063
 5389SOL    HW216512   2.150   4.413   6.099
 5390SOL     OW16513   2.476   3.846   5.703
 5390SOL    HW116514   2.574   3.824   5.710
 5390SOL    HW216515   2.445   3.829   5.610
 5391SOL     OW16516   2.750   5.238   6.781
 5391SOL    HW116517   2.727   5.213   6.687
 5391SOL    HW216518   2.811   5.169   6.820
 5392SOL     OW16519   2.665   5.126   6.510
 5392SOL    HW116520   2.755   5.140   6.468
 5392SOL    HW216521   2.594   5.128   6.439
 5393SOL     OW16522   2.401   3.788   6.098
 5393SOL    HW116523   2.320   3.789   6.156
 5393SOL    HW216524   2.404   3.871   6.043
 5394SOL     OW16525   3.296   4.912   5.627
 5394SOL    HW116526   3.328   4.836   5.684
 5394SOL    HW216527   3.204   4.939   5.657
 5395SOL     OW16528   2.159   3.759   5.757
 5395SOL    HW116529   2.208   3.843   5.736
 5395SOL    HW216530   2.221   3.694   5.802
 5396SOL     OW16531   2.797   3.960   6.066
 5396SOL    HW116532   2.749   4.001   5.988
 5396SOL    HW216533   2.896   3.958   6.047
 5397SOL     OW16534   3.089   5.294   6.379
 5397SOL    HW116535   3.110   5.368   6.314
 5397SOL    HW216536   3.157   5.294   6.452
 5398SOL     OW16537   2.321   4.876   6.327
 5398SOL    HW116538   2.250   4.849   6.392
 5398SOL    HW216539   2.295   4.848   6.234
 5399SOL     OW16540   3.133   5.521   6.177
 5399SOL    HW116541   3.177   5.585   6.113
 5399SOL    HW216542   3.083   5.573   6.247
 5400SOL     OW16543   2.894   4.273   5.602
 5400SOL    HW116544   2.853   4.355   5.563
 5400SOL    HW216545   2.958   4.299   5.675
 5401SOL     OW16546   2.423   3.946   6.733
 5401SOL    HW116547   2.461   3.862   6.770
 5401SOL    HW216548   2.335   3.965   6.777
 5402SOL     OW16549   2.728   4.178   6.228
 5402SOL    HW116550   2.696   4.250   6.166
 5402SOL    HW216551   2.752   4.097   6.175
 5403SOL     OW16552   2.879   3.763   6.339
 5403SOL    HW116553   2.807   3.768   6.270
 5403SOL    HW216554   2.855   3.694   6.408
 5404SOL     OW16555   3.291   4.897   6.453
 5404SOL    HW116556   3.236   4.813   6.446
 5404SOL    HW216557   3.317   4.926   6.361
 5405SOL     OW16558   3.328   4.314   6.578
 5405SOL    HW116559   3.298   4.219   6.585
 5405SOL    HW216560   3.401   4.330   6.644
 5406SOL     OW16561   3.719   4.557   5.963
 5406SOL    HW116562   3.761   4.493   6.027
 5406SOL    HW216563   3.681   4.506   5.885
 5407SOL     OW16564   2.350   5.109   5.760
 5407SOL    HW116565   2.263   5.094   5.807
 5407SOL    HW216566   2.333   5.135   5.665
 5408SOL     OW16567   3.526   5.004   6.243
 5408SOL    HW116568   3.625   5.012   6.257
 5408SOL    HW216569   3.481   5.088   6.274
 5409SOL     OW16570   3.252   4.299   5.664
 5409SOL    HW116571   3.198   4.278   5.745
 5409SOL    HW216572   3.343   4.258   5.673
 5410SOL     OW16573   2.389   3.980   5.914
 5410SOL    HW116574   2.416   3.921   5.839
 5410SOL    HW216575   2.389   4.075   5.883
 5411SOL     OW16576   2.973   4.919   6.686
 5411SOL    HW116577   2.933   4.963   6.767
 5411SOL    HW216578   2.932   4.956   6.603
 5412SOL     OW16579   3.500   4.823   6.665
 5412SOL    HW116580   3.505   4.904   6.724
 5412SOL    HW216581   3.414   4.825   6.614
 5413SOL     OW16582   2.567   4.774   5.954
 5413SOL    HW116583   2.553   4.781   6.053
 5413SOL    HW216584   2.651   4.723   5.936
 5414SOL     OW16585   2.229   4.824   6.087
 5414SOL    HW116586   2.222   4.907   6.031
 5414SOL    HW216587   2.233   4.744   6.027
 5415SOL     OW16588   2.428   4.261   6.451
 5415SOL    HW116589   2.440   4.327   6.377
 5415SOL    HW216590   2.474   4.295   6.534
 5416SOL     OW16591   3.114   5.072   5.974
 5416SOL    HW116592   3.164   5.149   6.014
 5416SOL    HW216593   3.019   5.074   6.006
 5417SOL     OW16594   3.134   5.169   6.728
 5417SOL    HW116595   3.181   5.182   6.815
 5417SOL    HW216596   3.068   5.095   6.737
 5418SOL     OW16597   3.444   4.363   6.058
 5418SOL    HW116598   3.413   4.424   6.131
 5418SOL    HW216599   3.494   4.415   5.989
 5419SOL     OW16600   2.435   4.594   6.615
 5419SOL    HW116601   2.479   4.683   6.606
 5419SOL    HW216602   2.372   4.594   6.692
 5420SOL     OW16603   3.222   4.586   6.631
 5420SOL    HW116604   3.147   4.586   6.565
 5420SOL    HW216605   3.259   4.494   6.640
 5421SOL     OW16606   3.071   4.249   5.861
 5421SOL    HW116607   3.084   4.165   5.915
 5421SOL    HW216608   3.042   4.323   5.921
 5422SOL     OW16609   2.594   4.358   6.650
 5422SOL    HW116610   2.653   4.332   6.574
 5422SOL    HW216611   2.566   4.454   6.639
 5423SOL     OW16612   2.169   3.787   6.204
 5423SOL    HW116613   2.158   3.881   6.237
 5423SOL    HW216614   2.164   3.724   6.281
 5424SOL     OW16615   3.484   4.091   5.960
 5424SOL    HW116616   3.486   4.015   6.024
 5424SOL    HW216617   3.436   4.168   6.000
 5425SOL     OW16618   2.885   4.490   6.552
 5425SOL    HW116619   2.900   4.511   6.648
 5425SOL    HW216620   2.855   4.395   6.543
 5426SOL     OW16621   3.402   3.998   5.711
 5426SOL    HW116622   3.341   3.923   5.734
 5426SOL    HW216623   3.424   4.050   5.794
 5427SOL     OW16624   3.165   4.562   5.628
 5427SOL    HW116625   3.199   4.469   5.643
 5427SOL    HW216626   3.183   4.589   5.533
 5428SOL     OW16627   2.930   5.057   6.435
 5428SOL    HW116628   2.937   4.973   6.380
 5428SOL    HW216629   2.992   5.126   6.399
 5429SOL     OW16630   2.181   4.534   6.535
 5429SOL    HW116631   2.274   4.570   6.540
 5429SOL    HW216632   2.175   4.449   6.587
 5430SOL     OW16633   2.201   4.233   6.592
 5430SOL    HW116634   2.149   4.150   6.575
 5430SOL    HW216635   2.278   4.238   6.528
 5431SOL     OW16636   1.870   5.050   5.786
 5431SOL    HW116637   1.777   5.071   5.755
 5431SOL    HW216638   1.880   4.951   5.799
 5432SOL     OW16639   1.950   5.525   6.513
 5432SOL    HW116640   1.908   5.439   6.486
 5432SOL    HW216641   2.044   5.528   6.479
 5433SOL     OW16642   2.366   5.292   6.496
 5433SOL    HW116643   2.432   5.366   6.505
 5433SOL    HW216644   2.410   5.213   6.454
 5434SOL     OW16645   1.902   4.268   6.700
 5434SOL    HW116646   1.987   4.235   6.659
 5434SOL    HW216647   1.915   4.283   6.798
 5435SOL     OW16648   2.677   4.296   5.911
 5435SOL    HW116649   2.684   4.207   5.865
 5435SOL    HW216650   2.583   4.330   5.903
 5436SOL     OW16651   3.519   4.328   6.792
 5436SOL    HW116652   3.481   4.259   6.854
 5436SOL    HW216653   3.601   4.292   6.748
 5437SOL     OW16654   2.533   4.188   6.855
 5437SOL    HW116655   2.499   4.099   6.825
 5437SOL    HW216656   2.559   4.242   6.775
 5438SOL     OW16657   2.335   4.224   5.777
 5438SOL    HW116658   2.396   4.304   5.781
 5438SOL    HW216659   2.240   4.255   5.784
 5439SOL     OW16660   3.209   4.783   6.820
 5439SOL    HW116661   3.233   4.720   6.746
 5439SOL    HW216662   3.119   4.823   6.802
 5440SOL     OW16663   3.164   4.579   5.895
 5440SOL    HW116664   3.078   4.548   5.937
 5440SOL    HW216665   3.160   4.565   5.796
 5441SOL     OW16666   3.621   5.471   6.740
 5441SOL    HW116667   3.682   5.501   6.667
 5441SOL    HW216668   3.583   5.382   6.718
 5442SOL     OW16669   3.114   5.455   6.714
 5442SOL    HW116670   3.198   5.460   6.660
 5442SOL    HW216671   3.091   5.359   6.732
 5443SOL     OW16672   1.945   4.982   6.608
 5443SOL    HW116673   1.940   4.981   6.708
 5443SOL    HW216674   1.862   4.941   6.570
 5444SOL     OW16675   3.588   3.859   6.109
 5444SOL    HW116676   3.661   3.842   6.042
 5444SOL    HW216677   3.557   3.772   6.147
 5445SOL     OW16678   3.250   5.297   6.063
 5445SOL    HW116679   3.317   5.309   5.989
 5445SOL    HW216680   3.210   5.386   6.086
 5446SOL     OW16681   3.142   4.651   6.258
 5446SOL    HW116682   3.202   4.570   6.260
 5446SOL    HW216683   3.182   4.720   6.198
 5447SOL     OW16684   2.534   5.340   5.740
 5447SOL    HW116685   2.543   5.350   5.641
 5447SOL    HW216686   2.494   5.251   5.761
 5448SOL     OW16687   3.703   3.899   6.549
 5448SOL    HW116688   3.742   3.814   6.513
 5448SOL    HW216689   3.605   3.901   6.530
 5449SOL     OW16690   2.125   4.050   6.306
 5449SOL    HW116691   2.046   4.101   6.272
 5449SOL    HW216692   2.116   4.035   6.404
 5450SOL     OW16693   3.056   5.336   5.617
 5450SOL    HW116694   3.062   5.243   5.654
 5450SOL    HW216695   2.997   5.336   5.537
 5451SOL     OW16696   2.778   4.634   5.877
 5451SOL    HW116697   2.841   4.672   5.809
 5451SOL    HW216698   2.818   4.551   5.916
 5452SOL     OW16699   3.366   5.331   5.630
 5452SOL    HW116700   3.274   5.368   5.637
 5452SOL    HW216701   3.404   5.351   5.540
 5453SOL     OW16702   2.901   4.822   6.282
 5453SOL    HW116703   2.831   4.775   6.336
 5453SOL    HW216704   2.960   4.754   6.239
 5454SOL     OW16705   2.452   5.211   6.077
 5454SOL    HW116706   2.494   5.153   6.007
 5454SOL    HW216707   2.408   5.290   6.033
 5455SOL     OW16708   2.117   5.072   5.876
 5455SOL    HW116709   2.021   5.073   5.849
 5455SOL    HW216710   2.129   5.125   5.960
 5456SOL     OW16711   1.937   4.069   5.619
 5456SOL    HW116712   1.845   4.041   5.590
 5456SOL    HW216713   1.968   4.146   5.563
 5457SOL     OW16714   1.934   3.890   5.904
 5457SOL    HW116715   1.917   3.973   5.850
 5457SOL    HW216716   2.024   3.853   5.882
 5458SOL     OW16717   3.045   5.059   5.705
 5458SOL    HW116718   2.946   5.048   5.707
 5458SOL    HW216719   3.079   5.074   5.798
 5459SOL     OW16720   3.355   5.491   6.545
 5459SOL    HW116721   3.388   5.555   6.476
 5459SOL    HW216722   3.421   5.485   6.620
 5460SOL     OW16723   3.536   4.607   6.840
 5460SOL    HW116724   3.509   4.518   6.803
 5460SOL    HW216725   3.537   4.675   6.767
 5461SOL     OW16726   3.087   4.049   6.035
 5461SOL    HW116727   3.152   3.975   6.024
 5461SOL    HW216728   3.107   4.099   6.119
 5462SOL     OW16729   2.456   4.469   6.238
 5462SOL    HW116730   2.506   4.554   6.219
 5462SOL    HW216731   2.368   4.471   6.190
 5463SOL     OW16732   2.721   5.098   5.602
 5463SOL    HW116733   2.675   5.113   5.690
 5463SOL    HW216734   2.765   5.183   5.572
 5464SOL     OW16735   2.523   5.514   6.539
 5464SOL    HW116736   2.477   5.602   6.526
 5464SOL    HW216737   2.622   5.526   6.532
 5465SOL     OW16738   2.721   4.680   6.447
 5465SOL    HW116739   2.775   4.611   6.495
 5465SOL    HW216740   2.689   4.749   6.513
 5466SOL     OW16741   2.945   4.708   5.673
 5466SOL    HW116742   2.922   4.761   5.591
 5466SOL    HW216743   3.026   4.652   5.654
 5467SOL     OW16744   3.723   5.293   6.437
 5467SOL    HW116745   3.652   5.281   6.367
 5467SOL    HW216746   3.724   5.214   6.497
 5468SOL     OW16747   1.941   4.964   6.239
 5468SOL    HW116748   1.940   4.917   6.327
 5468SOL    HW216749   2.023   4.936   6.188
 5469SOL     OW16750   3.686   3.916   6.813
 5469SOL    HW116751   3.682   3.826   6.857
 5469SOL    HW216752   3.689   3.905   6.714
 5470SOL     OW16753   2.290   4.148   6.106
 5470SOL    HW116754   2.320   4.076   6.044
 5470SOL    HW216755   2.251   4.108   6.189
 5471SOL     OW16756   3.567   5.211   6.690
 5471SOL    HW116757   3.474   5.186   6.663
 5471SOL    HW216758   3.593   5.161   6.772
 5472SOL     OW16759   2.179   4.271   6.866
 5472SOL    HW116760   2.217   4.212   6.938
 5472SOL    HW216761   2.219   4.245   6.778
 5473SOL     OW16762   2.674   5.310   6.273
 5473SOL    HW116763   2.706   5.320   6.179
 5473SOL    HW216764   2.595   5.248   6.275
 5474SOL     OW16765   2.632   5.054   5.887
 5474SOL    HW116766   2.586   4.967   5.904
 5474SOL    HW216767   2.723   5.051   5.928
 5475SOL     OW16768   3.214   3.776   5.754
 5475SOL    HW116769   3.249   3.735   5.670
 5475SOL    HW216770   3.124   3.738   5.774
 5476SOL     OW16771   3.162   4.177   6.277
 5476SOL    HW116772   3.103   4.257   6.281
 5476SOL    HW216773   3.177   4.142   6.370
 5477SOL     OW16774   3.455   3.945   6.468
 5477SOL    HW116775   3.371   3.944   6.522
 5477SOL    HW216776   3.457   4.028   6.412
 5478SOL     OW16777   1.901   4.801   5.886
 5478SOL    HW116778   2.000   4.790   5.877
 5478SOL    HW216779   1.861   4.715   5.918
 5479SOL     OW16780   2.737   5.370   5.923
 5479SOL    HW116781   2.660   5.335   5.869
 5479SOL    HW216782   2.705   5.441   5.985
 5480SOL     OW16783   2.092   6.214   0.113
 5480SOL    HW116784   1.999   6.212   0.150
 5480SOL    HW216785   2.093   6.175   0.021
 5481SOL     OW16786   2.087   5.861   0.996
 5481SOL    HW116787   2.122   5.844   1.088
 5481SOL    HW216788   1.999   5.816   0.984
 5482SOL     OW16789   1.881   5.954   0.647
 5482SOL    HW116790   1.799   5.997   0.686
 5482SOL    HW216791   1.853   5.881   0.584
 5483SOL     OW16792   2.431   6.861   1.165
 5483SOL    HW116793   2.338   6.854   1.128
 5483SOL    HW216794   2.442   6.950   1.209
 5484SOL     OW16795   3.417   7.097   0.703
 5484SOL    HW116796   3.360   7.081   0.784
 5484SOL    HW216797   3.358   7.107   0.623
 5485SOL     OW16798   2.997   6.289   0.717
 5485SOL    HW116799   3.054   6.367   0.692
 5485SOL    HW216800   2.937   6.315   0.793
 5486SOL     OW16801   3.617   6.193   0.231
 5486SOL    HW116802   3.605   6.180   0.132
 5486SOL    HW216803   3.587   6.112   0.280
 5487SOL     OW16804   2.630   6.730   1.023
 5487SOL    HW116805   2.552   6.747   1.083
 5487SOL    HW216806   2.664   6.817   0.987
 5488SOL     OW16807   2.712   6.384   1.823
 5488SOL    HW116808   2.708   6.460   1.888
 5488SOL    HW216809   2.734   6.420   1.732
 5489SOL     OW16810   2.547   6.598   0.665
 5489SOL    HW116811   2.616   6.582   0.735
 5489SOL    HW216812   2.474   6.655   0.703
 5490SOL     OW16813   2.548   6.747   1.803
 5490SOL    HW116814   2.608   6.826   1.817
 5490SOL    HW216815   2.462   6.778   1.762
 5491SOL     OW16816   2.197   7.021   1.061
 5491SOL    HW116817   2.119   6.990   1.008
 5491SOL    HW216818   2.255   7.079   1.004
 5492SOL     OW16819   3.322   7.091   1.339
 5492SOL    HW116820   3.346   7.185   1.365
 5492SOL    HW216821   3.306   7.037   1.421
 5493SOL     OW16822   2.300   5.978   1.499
 5493SOL    HW116823   2.382   5.922   1.508
 5493SOL    HW216824   2.219   5.920   1.503
 5494SOL     OW16825   3.465   6.033   0.737
 5494SOL    HW116826   3.391   6.079   0.687
 5494SOL    HW216827   3.516   6.101   0.790
 5495SOL     OW16828   2.093   7.299   0.483
 5495SOL    HW116829   2.127   7.376   0.537
 5495SOL    HW216830   2.137   7.299   0.393
 5496SOL     OW16831   2.989   6.927   1.690
 5496SOL    HW116832   3.036   6.927   1.778
 5496SOL    HW216833   2.941   6.840   1.679
 5497SOL     OW16834   2.092   7.020   0.538
 5497SOL    HW116835   2.066   7.116   0.538
 5497SOL    HW216836   2.021   6.966   0.583
 5498SOL     OW16837   2.102   6.677   0.886
 5498SOL    HW116838   2.116   6.593   0.938
 5498SOL    HW216839   2.047   6.741   0.941
 5499SOL     OW16840   2.482   7.372   1.439
 5499SOL    HW116841   2.390   7.355   1.474
 5499SOL    HW216842   2.510   7.464   1.465
 5500SOL     OW16843   2.468   6.550   0.123
 5500SOL    HW116844   2.475   6.634   0.069
 5500SOL    HW216845   2.514   6.563   0.211
 5501SOL     OW16846   3.456   5.700   1.480
 5501SOL    HW116847   3.438   5.767   1.408
 5501SOL    HW216848   3.453   5.746   1.569
 5502SOL     OW16849   1.984   6.229   0.563
 5502SOL    HW116850   1.939   6.141   0.580
 5502SOL    HW216851   1.983   6.283   0.647
 5503SOL     OW16852   3.704   7.353   0.359
 5503SOL    HW116853   3.758   7.324   0.439
 5503SOL    HW216854   3.734   7.443   0.330
 5504SOL     OW16855   1.889   7.182   0.117
 5504SOL    HW116856   1.870   7.086   0.138
 5504SOL    HW216857   1.856   7.240   0.192
 5505SOL     OW16858   3.551   6.508   0.612
 5505SOL    HW116859   3.646   6.479   0.620
 5505SOL    HW216860   3.543   6.573   0.537
 5506SOL     OW16861   3.503   6.694   0.432
 5506SOL    HW116862   3.589   6.696   0.380
 5506SOL    HW216863   3.517   6.741   0.520
 5507SOL     OW16864   1.975   6.323   1.597
 5507SOL    HW116865   2.063   6.310   1.642
 5507SOL    HW216866   1.962   6.420   1.575
 5508SOL     OW16867   2.475   6.951   0.726
 5508SOL    HW116868   2.426   6.864   0.735
 5508SOL    HW216869   2.452   6.994   0.639
 5509SOL     OW16870   3.155   6.814   1.423
 5509SOL    HW116871   3.192   6.741   1.365
 5509SOL    HW216872   3.207   6.819   1.508
 5510SOL     OW16873   2.671   5.590   0.502
 5510SOL    HW116874   2.711   5.681   0.493
 5510SOL    HW216875   2.571   5.598   0.508
 5511SOL     OW16876   2.059   6.562   1.264
 5511SOL    HW116877   2.148   6.517   1.250
 5511SOL    HW216878   1.986   6.497   1.245
 5512SOL     OW16879   3.387   6.585   0.190
 5512SOL    HW116880   3.324   6.509   0.203
 5512SOL    HW216881   3.435   6.603   0.276
 5513SOL     OW16882   3.049   7.378   1.616
 5513SOL    HW116883   3.073   7.438   1.540
 5513SOL    HW216884   3.056   7.283   1.586
 5514SOL     OW16885   2.179   5.837   1.801
 5514SOL    HW116886   2.250   5.908   1.807
 5514SOL    HW216887   2.091   5.876   1.829
 5515SOL     OW16888   3.328   7.003   0.953
 5515SOL    HW116889   3.269   7.009   1.033
 5515SOL    HW216890   3.313   6.915   0.907
 5516SOL     OW16891   3.529   7.300   0.572
 5516SOL    HW116892   3.488   7.277   0.484
 5516SOL    HW216893   3.511   7.226   0.637
 5517SOL     OW16894   2.460   6.315   0.270
 5517SOL    HW116895   2.484   6.384   0.202
 5517SOL    HW216896   2.382   6.348   0.324
 5518SOL     OW16897   3.143   5.931   0.944
 5518SOL    HW116898   3.057   5.881   0.931
 5518SOL    HW216899   3.205   5.877   1.000
 5519SOL     OW16900   3.438   7.248   0.307
 5519SOL    HW116901   3.527   7.294   0.310
 5519SOL    HW216902   3.417   7.224   0.212
 5520SOL     OW16903   2.669   6.191   1.465
 5520SOL    HW116904   2.622   6.188   1.554
 5520SOL    HW216905   2.618   6.136   1.399
 5521SOL     OW16906   3.256   6.055   1.674
 5521SOL    HW116907   3.236   6.098   1.762
 5521SOL    HW216908   3.334   5.993   1.683
 5522SOL     OW16909   2.835   6.476   1.572
 5522SOL    HW116910   2.881   6.392   1.543
 5522SOL    HW216911   2.779   6.510   1.497
 5523SOL     OW16912   2.853   5.996   1.242
 5523SOL    HW116913   2.776   6.030   1.296
 5523SOL    HW216914   2.819   5.945   1.163
 5524SOL     OW16915   2.903   6.287   0.429
 5524SOL    HW116916   2.929   6.283   0.525
 5524SOL    HW216917   2.818   6.236   0.415
 5525SOL     OW16918   1.938   6.397   0.789
 5525SOL    HW116919   2.037   6.385   0.798
 5525SOL    HW216920   1.914   6.492   0.810
 5526SOL     OW16921   1.992   7.407   1.571
 5526SOL    HW116922   1.982   7.392   1.670
 5526SOL    HW216923   1.906   7.443   1.535
 5527SOL     OW16924   2.727   5.934   0.195
 5527SOL    HW116925   2.786   5.997   0.146
 5527SOL    HW216926   2.746   5.840   0.166
 5528SOL     OW16927   3.581   6.171   1.831
 5528SOL    HW116928   3.555   6.260   1.795
 5528SOL    HW216929   3.579   6.103   1.758
 5529SOL     OW16930   3.224   6.730   0.545
 5529SOL    HW116931   3.307   6.701   0.497
 5529SOL    HW216932   3.175   6.797   0.489
 5530SOL     OW16933   2.412   5.782   0.885
 5530SOL    HW116934   2.407   5.777   0.985
 5530SOL    HW216935   2.414   5.878   0.856
 5531SOL     OW16936   2.870   7.042   0.477
 5531SOL    HW116937   2.824   7.114   0.425
 5531SOL    HW216938   2.866   7.062   0.575
 5532SOL     OW16939   2.213   7.387   0.853
 5532SOL    HW116940   2.263   7.301   0.859
 5532SOL    HW216941   2.278   7.464   0.850
 5533SOL     OW16942   3.657   6.652   0.873
 5533SOL    HW116943   3.595   6.637   0.797
 5533SOL    HW216944   3.605   6.663   0.958
 5534SOL     OW16945   3.089   7.136   1.506
 5534SOL    HW116946   3.095   7.059   1.570
 5534SOL    HW216947   3.037   7.110   1.426
 5535SOL     OW16948   2.183   6.529   0.242
 5535SOL    HW116949   2.265   6.568   0.200
 5535SOL    HW216950   2.156   6.447   0.193
 5536SOL     OW16951   3.320   6.321   0.728
 5536SOL    HW116952   3.315   6.256   0.803
 5536SOL    HW216953   3.400   6.380   0.741
 5537SOL     OW16954   2.323   6.852   1.727
 5537SOL    HW116955   2.273   6.853   1.641
 5537SOL    HW216956   2.260   6.834   1.803
 5538SOL     OW16957   2.064   5.871   1.498
 5538SOL    HW116958   1.984   5.931   1.485
 5538SOL    HW216959   2.054   5.822   1.584
 5539SOL     OW16960   3.494   6.963   0.081
 5539SOL    HW116961   3.462   7.057   0.071
 5539SOL    HW216962   3.418   6.900   0.069
 5540SOL     OW16963   2.326   7.329   0.323
 5540SOL    HW116964   2.359   7.368   0.409
 5540SOL    HW216965   2.402   7.322   0.258
 5541SOL     OW16966   3.262   5.693   0.426
 5541SOL    HW116967   3.238   5.656   0.336
 5541SOL    HW216968   3.361   5.709   0.430
 5542SOL     OW16969   2.111   7.371   1.241
 5542SOL    HW116970   2.168   7.306   1.291
 5542SOL    HW216971   2.095   7.338   1.148
 5543SOL     OW16972   2.802   7.284   0.904
 5543SOL    HW116973   2.882   7.227   0.925
 5543SOL    HW216974   2.753   7.244   0.827
 5544SOL     OW16975   2.244   6.286   0.480
 5544SOL    HW116976   2.289   6.196   0.477
 5544SOL    HW216977   2.150   6.275   0.513
 5545SOL     OW16978   3.409   5.808   1.729
 5545SOL    HW116979   3.404   5.845   1.821
 5545SOL    HW216980   3.337   5.739   1.717
 5546SOL     OW16981   2.476   5.708   0.117
 5546SOL    HW116982   2.574   5.686   0.124
 5546SOL    HW216983   2.445   5.691   0.024
 5547SOL     OW16984   2.643   5.850   1.749
 5547SOL    HW116985   2.710   5.789   1.792
 5547SOL    HW216986   2.570   5.869   1.814
 5548SOL     OW16987   2.750   7.100   1.195
 5548SOL    HW116988   2.727   7.075   1.101
 5548SOL    HW216989   2.811   7.031   1.234
 5549SOL     OW16990   3.213   6.176   1.433
 5549SOL    HW116991   3.241   6.133   1.518
 5549SOL    HW216992   3.238   6.272   1.434
 5550SOL     OW16993   2.665   6.988   0.924
 5550SOL    HW116994   2.755   7.002   0.882
 5550SOL    HW216995   2.594   6.990   0.853
 5551SOL     OW16996   2.784   6.089   0.899
 5551SOL    HW116997   2.759   6.080   0.803
 5551SOL    HW216998   2.832   6.007   0.930
 5552SOL     OW16999   2.401   5.650   0.512
 5552SOL    HW117000   2.320   5.651   0.570
 5552SOL    HW217001   2.404   5.733   0.457
 5553SOL     OW17002   3.296   6.774   0.041
 5553SOL    HW117003   3.328   6.698   0.098
 5553SOL    HW217004   3.204   6.801   0.071
 5554SOL     OW17005   2.159   5.621   0.171
 5554SOL    HW117006   2.208   5.705   0.150
 5554SOL    HW217007   2.221   5.556   0.216
 5555SOL     OW17008   2.797   5.822   0.480
 5555SOL    HW117009   2.749   5.863   0.402
 5555SOL    HW217010   2.896   5.820   0.461
 5556SOL     OW17011   2.938   6.269   1.464
 5556SOL    HW117012   2.858   6.208   1.467
 5556SOL    HW217013   3.019   6.216   1.440
 5557SOL     OW17014   3.089   7.156   0.793
 5557SOL    HW117015   3.110   7.230   0.728
 5557SOL    HW217016   3.157   7.156   0.866
 5558SOL     OW17017   2.321   6.738   0.741
 5558SOL    HW117018   2.250   6.711   0.806
 5558SOL    HW217019   2.295   6.710   0.648
 5559SOL     OW17020   2.894   6.135   0.016
 5559SOL    HW117021   2.853   6.217  -0.023
 5559SOL    HW217022   2.958   6.161   0.089
 5560SOL     OW17023   1.940   6.142   1.386
 5560SOL    HW117024   2.032   6.141   1.345
 5560SOL    HW217025   1.934   6.216   1.453
 5561SOL     OW17026   2.423   5.808   1.147
 5561SOL    HW117027   2.461   5.724   1.184
 5561SOL    HW217028   2.335   5.827   1.191
 5562SOL     OW17029   2.728   6.040   0.642
 5562SOL    HW117030   2.696   6.112   0.580
 5562SOL    HW217031   2.752   5.959   0.589
 5563SOL     OW17032   2.879   5.625   0.753
 5563SOL    HW117033   2.807   5.630   0.684
 5563SOL    HW217034   2.855   5.556   0.822
 5564SOL     OW17035   3.291   6.759   0.867
 5564SOL    HW117036   3.236   6.675   0.860
 5564SOL    HW217037   3.317   6.788   0.775
 5565SOL     OW17038   3.328   6.176   0.992
 5565SOL    HW117039   3.298   6.081   0.999
 5565SOL    HW217040   3.401   6.192   1.058
 5566SOL     OW17041   3.719   6.419   0.377
 5566SOL    HW117042   3.761   6.355   0.441
 5566SOL    HW217043   3.681   6.368   0.299
 5567SOL     OW17044   2.350   6.971   0.174
 5567SOL    HW117045   2.263   6.956   0.221
 5567SOL    HW217046   2.333   6.997   0.079
 5568SOL     OW17047   3.526   6.866   0.657
 5568SOL    HW117048   3.625   6.874   0.671
 5568SOL    HW217049   3.481   6.950   0.688
 5569SOL     OW17050   3.252   6.161   0.078
 5569SOL    HW117051   3.198   6.140   0.159
 5569SOL    HW217052   3.343   6.120   0.087
 5570SOL     OW17053   2.389   5.842   0.328
 5570SOL    HW117054   2.416   5.783   0.253
 5570SOL    HW217055   2.389   5.937   0.297
 5571SOL     OW17056   3.616   6.809   1.588
 5571SOL    HW117057   3.707   6.770   1.575
 5571SOL    HW217058   3.624   6.905   1.612
 5572SOL     OW17059   2.926   6.933   1.340
 5572SOL    HW117060   2.846   6.910   1.395
 5572SOL    HW217061   3.009   6.907   1.389
 5573SOL     OW17062   3.454   7.215   1.625
 5573SOL    HW117063   3.481   7.249   1.535
 5573SOL    HW217064   3.533   7.177   1.671
 5574SOL     OW17065   2.973   6.781   1.100
 5574SOL    HW117066   2.933   6.825   1.181
 5574SOL    HW217067   2.932   6.818   1.017
 5575SOL     OW17068   3.500   6.685   1.079
 5575SOL    HW117069   3.505   6.766   1.138
 5575SOL    HW217070   3.414   6.687   1.028
 5576SOL     OW17071   2.777   5.675   1.402
 5576SOL    HW117072   2.802   5.655   1.307
 5576SOL    HW217073   2.849   5.731   1.444
 5577SOL     OW17074   2.842   6.702   1.719
 5577SOL    HW117075   2.743   6.708   1.729
 5577SOL    HW217076   2.865   6.622   1.663
 5578SOL     OW17077   2.567   6.636   0.368
 5578SOL    HW117078   2.553   6.643   0.467
 5578SOL    HW217079   2.651   6.585   0.350
 5579SOL     OW17080   2.272   6.399   1.251
 5579SOL    HW117081   2.358   6.411   1.301
 5579SOL    HW217082   2.230   6.312   1.278
 5580SOL     OW17083   3.136   5.972   1.262
 5580SOL    HW117084   3.157   6.046   1.326
 5580SOL    HW217085   3.047   5.989   1.219
 5581SOL     OW17086   1.926   7.150   1.331
 5581SOL    HW117087   1.880   7.232   1.297
 5581SOL    HW217088   2.024   7.169   1.340
 5582SOL     OW17089   2.229   6.686   0.501
 5582SOL    HW117090   2.222   6.769   0.445
 5582SOL    HW217091   2.233   6.606   0.441
 5583SOL     OW17092   2.428   6.123   0.865
 5583SOL    HW117093   2.440   6.189   0.791
 5583SOL    HW217094   2.474   6.157   0.948
 5584SOL     OW17095   3.114   6.934   0.388
 5584SOL    HW117096   3.164   7.011   0.428
 5584SOL    HW217097   3.019   6.936   0.420
 5585SOL     OW17098   3.134   7.031   1.142
 5585SOL    HW117099   3.181   7.044   1.229
 5585SOL    HW217100   3.068   6.957   1.151
 5586SOL     OW17101   3.444   6.225   0.472
 5586SOL    HW117102   3.413   6.286   0.545
 5586SOL    HW217103   3.494   6.277   0.403
 5587SOL     OW17104   2.216   7.096   1.329
 5587SOL    HW117105   2.195   7.052   1.242
 5587SOL    HW217106   2.313   7.122   1.332
 5588SOL     OW17107   2.264   6.337   1.598
 5588SOL    HW117108   2.332   6.392   1.551
 5588SOL    HW217109   2.304   6.249   1.625
 5589SOL     OW17110   3.449   6.365   1.670
 5589SOL    HW117111   3.357   6.403   1.665
 5589SOL    HW217112   3.509   6.412   1.605
 5590SOL     OW17113   2.875   5.691   1.770
 5590SOL    HW117114   2.881   5.776   1.718
 5590SOL    HW217115   2.907   5.615   1.713
 5591SOL     OW17116   2.366   5.636   1.740
 5591SOL    HW117117   2.324   5.579   1.670
 5591SOL    HW217118   2.300   5.705   1.772
 5592SOL     OW17119   2.435   6.456   1.029
 5592SOL    HW117120   2.479   6.545   1.020
 5592SOL    HW217121   2.372   6.456   1.106
 5593SOL     OW17122   3.222   6.448   1.045
 5593SOL    HW117123   3.147   6.448   0.979
 5593SOL    HW217124   3.259   6.356   1.054
 5594SOL     OW17125   3.071   6.111   0.275
 5594SOL    HW117126   3.084   6.027   0.329
 5594SOL    HW217127   3.042   6.185   0.335
 5595SOL     OW17128   2.169   5.799   1.231
 5595SOL    HW117129   2.146   5.836   1.321
 5595SOL    HW217130   2.139   5.704   1.225
 5596SOL     OW17131   1.899   6.896   1.282
 5596SOL    HW117132   1.952   6.847   1.350
 5596SOL    HW217133   1.921   6.994   1.287
 5597SOL     OW17134   2.594   6.220   1.064
 5597SOL    HW117135   2.653   6.194   0.988
 5597SOL    HW217136   2.566   6.316   1.053
 5598SOL     OW17137   3.590   6.521   1.854
 5598SOL    HW117138   3.544   6.514   1.765
 5598SOL    HW217139   3.528   6.565   1.920
 5599SOL     OW17140   2.169   5.649   0.618
 5599SOL    HW117141   2.158   5.743   0.651
 5599SOL    HW217142   2.164   5.586   0.695
 5600SOL     OW17143   3.484   5.953   0.374
 5600SOL    HW117144   3.486   5.877   0.438
 5600SOL    HW217145   3.436   6.030   0.414
 5601SOL     OW17146   2.842   7.159   1.700
 5601SOL    HW117147   2.822   7.203   1.612
 5601SOL    HW217148   2.881   7.068   1.684
 5602SOL     OW17149   3.721   7.104   1.605
 5602SOL    HW117150   3.735   7.131   1.510
 5602SOL    HW217151   3.804   7.126   1.658
 5603SOL     OW17152   2.212   6.484   1.804
 5603SOL    HW117153   2.288   6.528   1.852
 5603SOL    HW217154   2.247   6.437   1.722
 5604SOL     OW17155   3.402   5.860   0.125
 5604SOL    HW117156   3.341   5.785   0.148
 5604SOL    HW217157   3.424   5.912   0.208
 5605SOL     OW17158   3.165   6.424   0.042
 5605SOL    HW117159   3.199   6.331   0.057
 5605SOL    HW217160   3.183   6.451  -0.053
 5606SOL     OW17161   2.930   6.919   0.849
 5606SOL    HW117162   2.937   6.835   0.794
 5606SOL    HW217163   2.992   6.988   0.813
 5607SOL     OW17164   2.181   6.396   0.949
 5607SOL    HW117165   2.274   6.432   0.954
 5607SOL    HW217166   2.175   6.311   1.001
 5608SOL     OW17167   2.201   6.095   1.006
 5608SOL    HW117168   2.149   6.012   0.989
 5608SOL    HW217169   2.278   6.100   0.942
 5609SOL     OW17170   3.000   5.966   1.678
 5609SOL    HW117171   2.955   6.029   1.742
 5609SOL    HW217172   3.093   5.997   1.661
 5610SOL     OW17173   3.022   5.793   1.477
 5610SOL    HW117174   3.022   5.857   1.554
 5610SOL    HW217175   3.050   5.841   1.394
 5611SOL     OW17176   1.870   6.912   0.200
 5611SOL    HW117177   1.777   6.933   0.169
 5611SOL    HW217178   1.880   6.813   0.213
 5612SOL     OW17179   1.950   7.387   0.927
 5612SOL    HW117180   1.908   7.301   0.900
 5612SOL    HW217181   2.044   7.390   0.893
 5613SOL     OW17182   2.366   7.154   0.910
 5613SOL    HW117183   2.432   7.228   0.919
 5613SOL    HW217184   2.410   7.075   0.868
 5614SOL     OW17185   2.864   6.382   1.238
 5614SOL    HW117186   2.905   6.350   1.324
 5614SOL    HW217187   2.768   6.355   1.235
 5615SOL     OW17188   1.902   6.130   1.114
 5615SOL    HW117189   1.987   6.097   1.073
 5615SOL    HW217190   1.915   6.145   1.212
 5616SOL     OW17191   2.051   6.106   1.722
 5616SOL    HW117192   2.110   6.066   1.652
 5616SOL    HW217193   1.993   6.177   1.681
 5617SOL     OW17194   3.231   6.536   1.660
 5617SOL    HW117195   3.270   6.625   1.680
 5617SOL    HW217196   3.241   6.516   1.563
 5618SOL     OW17197   2.677   6.158   0.325
 5618SOL    HW117198   2.684   6.069   0.279
 5618SOL    HW217199   2.583   6.192   0.317
 5619SOL     OW17200   3.519   6.190   1.206
 5619SOL    HW117201   3.481   6.121   1.268
 5619SOL    HW217202   3.601   6.154   1.162
 5620SOL     OW17203   2.114   7.150   1.744
 5620SOL    HW117204   2.084   7.207   1.820
 5620SOL    HW217205   2.107   7.053   1.770
 5621SOL     OW17206   2.533   6.050   1.269
 5621SOL    HW117207   2.499   5.961   1.239
 5621SOL    HW217208   2.559   6.104   1.189
 5622SOL     OW17209   2.792   7.264   1.465
 5622SOL    HW117210   2.768   7.246   1.370
 5622SOL    HW217211   2.822   7.358   1.475
 5623SOL     OW17212   2.335   6.086   0.191
 5623SOL    HW117213   2.396   6.166   0.195
 5623SOL    HW217214   2.240   6.117   0.198
 5624SOL     OW17215   2.021   6.723   1.466
 5624SOL    HW117216   2.043   6.662   1.542
 5624SOL    HW217217   2.031   6.674   1.380
 5625SOL     OW17218   3.209   6.645   1.234
 5625SOL    HW117219   3.233   6.582   1.160
 5625SOL    HW217220   3.119   6.685   1.216
 5626SOL     OW17221   3.164   6.441   0.309
 5626SOL    HW117222   3.078   6.410   0.351
 5626SOL    HW217223   3.160   6.427   0.210
 5627SOL     OW17224   3.621   7.333   1.154
 5627SOL    HW117225   3.682   7.363   1.081
 5627SOL    HW217226   3.583   7.244   1.132
 5628SOL     OW17227   3.114   7.317   1.128
 5628SOL    HW117228   3.198   7.322   1.074
 5628SOL    HW217229   3.091   7.221   1.146
 5629SOL     OW17230   1.945   6.844   1.022
 5629SOL    HW117231   1.940   6.843   1.122
 5629SOL    HW217232   1.862   6.803   0.984
 5630SOL     OW17233   2.550   7.248   1.716
 5630SOL    HW117234   2.494   7.329   1.725
 5630SOL    HW217235   2.602   7.252   1.630
 5631SOL     OW17236   2.765   5.672   0.133
 5631SOL    HW117237   2.816   5.673   0.047
 5631SOL    HW217238   2.821   5.630   0.204
 5632SOL     OW17239   3.588   5.721   0.523
 5632SOL    HW117240   3.661   5.704   0.456
 5632SOL    HW217241   3.557   5.634   0.561
 5633SOL     OW17242   3.250   7.159   0.477
 5633SOL    HW117243   3.317   7.171   0.403
 5633SOL    HW217244   3.210   7.248   0.500
 5634SOL     OW17245   1.992   7.380   1.851
 5634SOL    HW117246   1.951   7.306   1.904
 5634SOL    HW217247   2.056   7.431   1.909
 5635SOL     OW17248   3.142   6.513   0.672
 5635SOL    HW117249   3.202   6.432   0.674
 5635SOL    HW217250   3.182   6.582   0.612
 5636SOL     OW17251   2.692   6.859   1.422
 5636SOL    HW117252   2.687   6.892   1.517
 5636SOL    HW217253   2.606   6.878   1.376
 5637SOL     OW17254   2.534   7.202   0.154
 5637SOL    HW117255   2.543   7.212   0.055
 5637SOL    HW217256   2.494   7.113   0.175
 5638SOL     OW17257   3.512   7.306   1.394
 5638SOL    HW117258   3.565   7.316   1.310
 5638SOL    HW217259   3.485   7.396   1.428
 5639SOL     OW17260   3.703   5.761   0.963
 5639SOL    HW117261   3.742   5.676   0.927
 5639SOL    HW217262   3.605   5.763   0.944
 5640SOL     OW17263   2.125   5.912   0.720
 5640SOL    HW117264   2.046   5.963   0.686
 5640SOL    HW217265   2.116   5.897   0.818
 5641SOL     OW17266   3.056   7.198   0.031
 5641SOL    HW117267   3.062   7.105   0.068
 5641SOL    HW217268   2.997   7.198  -0.049
 5642SOL     OW17269   2.684   6.588   1.372
 5642SOL    HW117270   2.724   6.587   1.280
 5642SOL    HW217271   2.694   6.680   1.412
 5643SOL     OW17272   2.778   6.496   0.291
 5643SOL    HW117273   2.841   6.534   0.223
 5643SOL    HW217274   2.818   6.413   0.330
 5644SOL     OW17275   3.366   7.193   0.044
 5644SOL    HW117276   3.274   7.230   0.051
 5644SOL    HW217277   3.404   7.213  -0.046
 5645SOL     OW17278   2.234   6.874   1.490
 5645SOL    HW117279   2.221   6.967   1.456
 5645SOL    HW217280   2.150   6.822   1.477
 5646SOL     OW17281   3.476   6.878   1.289
 5646SOL    HW117282   3.536   6.881   1.369
 5646SOL    HW217283   3.401   6.942   1.302
 5647SOL     OW17284   2.901   6.684   0.696
 5647SOL    HW117285   2.831   6.637   0.750
 5647SOL    HW217286   2.960   6.616   0.653
 5648SOL     OW17287   2.876   5.822   0.971
 5648SOL    HW117288   2.868   5.786   0.878
 5648SOL    HW217289   2.874   5.746   1.036
 5649SOL     OW17290   2.452   7.073   0.491
 5649SOL    HW117291   2.494   7.015   0.421
 5649SOL    HW217292   2.408   7.152   0.447
 5650SOL     OW17293   3.571   5.971   1.381
 5650SOL    HW117294   3.644   6.040   1.385
 5650SOL    HW217295   3.599   5.896   1.322
 5651SOL     OW17296   2.117   6.934   0.290
 5651SOL    HW117297   2.021   6.935   0.263
 5651SOL    HW217298   2.129   6.987   0.374
 5652SOL     OW17299   1.967   6.599   1.726
 5652SOL    HW117300   1.890   6.566   1.780
 5652SOL    HW217301   2.052   6.569   1.768
 5653SOL     OW17302   2.534   5.789   1.489
 5653SOL    HW117303   2.624   5.773   1.449
 5653SOL    HW217304   2.542   5.794   1.588
 5654SOL     OW17305   1.937   5.931   0.033
 5654SOL    HW117306   1.845   5.903   0.004
 5654SOL    HW217307   1.968   6.008  -0.023
 5655SOL     OW17308   3.302   6.442   1.398
 5655SOL    HW117309   3.245   6.494   1.335
 5655SOL    HW217310   3.398   6.454   1.374
 5656SOL     OW17311   1.934   5.752   0.318
 5656SOL    HW117312   1.917   5.835   0.264
 5656SOL    HW217313   2.024   5.715   0.296
 5657SOL     OW17314   3.045   6.921   0.119
 5657SOL    HW117315   2.946   6.910   0.121
 5657SOL    HW217316   3.079   6.936   0.212
 5658SOL     OW17317   2.475   6.428   1.431
 5658SOL    HW117318   2.531   6.509   1.414
 5658SOL    HW217319   2.534   6.348   1.434
 5659SOL     OW17320   3.355   7.353   0.959
 5659SOL    HW117321   3.388   7.417   0.890
 5659SOL    HW217322   3.421   7.347   1.034
 5660SOL     OW17323   2.578   6.151   1.708
 5660SOL    HW117324   2.597   6.216   1.782
 5660SOL    HW217325   2.638   6.071   1.717
 5661SOL     OW17326   3.312   6.806   1.633
 5661SOL    HW117327   3.303   6.796   1.732
 5661SOL    HW217328   3.408   6.799   1.607
 5662SOL     OW17329   2.252   7.327   1.560
 5662SOL    HW117330   2.161   7.368   1.558
 5662SOL    HW217331   2.245   7.233   1.592
 5663SOL     OW17332   3.536   6.469   1.254
 5663SOL    HW117333   3.509   6.380   1.217
 5663SOL    HW217334   3.537   6.537   1.181
 5664SOL     OW17335   3.087   5.911   0.449
 5664SOL    HW117336   3.152   5.837   0.438
 5664SOL    HW217337   3.107   5.961   0.533
 5665SOL     OW17338   2.456   6.331   0.652
 5665SOL    HW117339   2.506   6.416   0.633
 5665SOL    HW217340   2.368   6.333   0.604
 5666SOL     OW17341   3.639   5.928   1.642
 5666SOL    HW117342   3.622   5.959   1.548
 5666SOL    HW217343   3.555   5.891   1.680
 5667SOL     OW17344   3.592   6.520   1.517
 5667SOL    HW117345   3.630   6.611   1.532
 5667SOL    HW217346   3.584   6.503   1.418
 5668SOL     OW17347   2.721   6.960   0.016
 5668SOL    HW117348   2.675   6.975   0.104
 5668SOL    HW217349   2.765   7.045  -0.014
 5669SOL     OW17350   2.523   7.376   0.953
 5669SOL    HW117351   2.477   7.464   0.940
 5669SOL    HW217352   2.622   7.388   0.946
 5670SOL     OW17353   2.721   6.542   0.861
 5670SOL    HW117354   2.775   6.473   0.909
 5670SOL    HW217355   2.689   6.611   0.927
 5671SOL     OW17356   2.945   6.570   0.087
 5671SOL    HW117357   2.922   6.623   0.005
 5671SOL    HW217358   3.026   6.514   0.068
 5672SOL     OW17359   3.723   7.155   0.851
 5672SOL    HW117360   3.652   7.143   0.781
 5672SOL    HW217361   3.724   7.076   0.911
 5673SOL     OW17362   2.083   6.900   1.844
 5673SOL    HW117363   2.018   6.827   1.823
 5673SOL    HW217364   2.087   6.914   1.942
 5674SOL     OW17365   1.941   6.826   0.653
 5674SOL    HW117366   1.940   6.779   0.741
 5674SOL    HW217367   2.023   6.798   0.602
 5675SOL     OW17368   2.534   6.977   1.624
 5675SOL    HW117369   2.456   6.927   1.662
 5675SOL    HW217370   2.531   7.072   1.655
 5676SOL     OW17371   3.686   5.778   1.227
 5676SOL    HW117372   3.682   5.688   1.271
 5676SOL    HW217373   3.689   5.767   1.128
 5677SOL     OW17374   2.290   6.010   0.520
 5677SOL    HW117375   2.320   5.938   0.458
 5677SOL    HW217376   2.251   5.970   0.603
 5678SOL     OW17377   3.567   7.073   1.104
 5678SOL    HW117378   3.474   7.048   1.077
 5678SOL    HW217379   3.593   7.023   1.186
 5679SOL     OW17380   2.179   6.133   1.280
 5679SOL    HW117381   2.217   6.074   1.352
 5679SOL    HW217382   2.219   6.107   1.192
 5680SOL     OW17383   2.674   7.172   0.687
 5680SOL    HW117384   2.706   7.182   0.593
 5680SOL    HW217385   2.595   7.110   0.689
 5681SOL     OW17386   3.286   5.800   1.112
 5681SOL    HW117387   3.338   5.735   1.167
 5681SOL    HW217388   3.237   5.863   1.173
 5682SOL     OW17389   2.863   5.620   1.154
 5682SOL    HW117390   2.800   5.548   1.123
 5682SOL    HW217391   2.956   5.584   1.154
 5683SOL     OW17392   2.632   6.916   0.301
 5683SOL    HW117393   2.586   6.829   0.318
 5683SOL    HW217394   2.723   6.913   0.342
 5684SOL     OW17395   2.480   7.153   1.284
 5684SOL    HW117396   2.475   7.235   1.341
 5684SOL    HW217397   2.569   7.150   1.239
 5685SOL     OW17398   3.214   5.638   0.168
 5685SOL    HW117399   3.249   5.597   0.084
 5685SOL    HW217400   3.124   5.600   0.188
 5686SOL     OW17401   3.162   6.039   0.691
 5686SOL    HW117402   3.103   6.119   0.695
 5686SOL    HW217403   3.177   6.004   0.784
 5687SOL     OW17404   3.455   5.807   0.882
 5687SOL    HW117405   3.371   5.806   0.936
 5687SOL    HW217406   3.457   5.890   0.826
 5688SOL     OW17407   1.901   6.663   0.300
 5688SOL    HW117408   2.000   6.652   0.291
 5688SOL    HW217409   1.861   6.577   0.332
 5689SOL     OW17410   2.737   7.232   0.337
 5689SOL    HW117411   2.660   7.197   0.283
 5689SOL    HW217412   2.705   7.303   0.399
 5690SOL     OW17413   2.092   6.214   1.975
 5690SOL    HW117414   1.999   6.212   2.012
 5690SOL    HW217415   2.093   6.175   1.883
 5691SOL     OW17416   2.087   5.861   2.858
 5691SOL    HW117417   2.122   5.844   2.950
 5691SOL    HW217418   1.999   5.816   2.846
 5692SOL     OW17419   1.881   5.954   2.509
 5692SOL    HW117420   1.799   5.997   2.548
 5692SOL    HW217421   1.853   5.881   2.446
 5693SOL     OW17422   2.431   6.861   3.027
 5693SOL    HW117423   2.338   6.854   2.990
 5693SOL    HW217424   2.442   6.950   3.071
 5694SOL     OW17425   3.417   7.097   2.565
 5694SOL    HW117426   3.360   7.081   2.646
 5694SOL    HW217427   3.358   7.107   2.485
 5695SOL     OW17428   2.997   6.289   2.579
 5695SOL    HW117429   3.054   6.367   2.554
 5695SOL    HW217430   2.937   6.315   2.655
 5696SOL     OW17431   3.617   6.193   2.093
 5696SOL    HW117432   3.605   6.180   1.994
 5696SOL    HW217433   3.587   6.112   2.142
 5697SOL     OW17434   2.630   6.730   2.885
 5697SOL    HW117435   2.552   6.747   2.945
 5697SOL    HW217436   2.664   6.817   2.849
 5698SOL     OW17437   2.712   6.384   3.685
 5698SOL    HW117438   2.708   6.460   3.750
 5698SOL    HW217439   2.734   6.420   3.594
 5699SOL     OW17440   2.547   6.598   2.527
 5699SOL    HW117441   2.616   6.582   2.597
 5699SOL    HW217442   2.474   6.655   2.565
 5700SOL     OW17443   2.548   6.747   3.665
 5700SOL    HW117444   2.608   6.826   3.679
 5700SOL    HW217445   2.462   6.778   3.624
 5701SOL     OW17446   2.197   7.021   2.923
 5701SOL    HW117447   2.119   6.990   2.870
 5701SOL    HW217448   2.255   7.079   2.866
 5702SOL     OW17449   3.322   7.091   3.201
 5702SOL    HW117450   3.346   7.185   3.227
 5702SOL    HW217451   3.306   7.037   3.283
 5703SOL     OW17452   2.300   5.978   3.361
 5703SOL    HW117453   2.382   5.922   3.370
 5703SOL    HW217454   2.219   5.920   3.365
 5704SOL     OW17455   3.465   6.033   2.599
 5704SOL    HW117456   3.391   6.079   2.549
 5704SOL    HW217457   3.516   6.101   2.652
 5705SOL     OW17458   2.093   7.299   2.345
 5705SOL    HW117459   2.127   7.376   2.399
 5705SOL    HW217460   2.137   7.299   2.255
 5706SOL     OW17461   2.989   6.927   3.552
 5706SOL    HW117462   3.036   6.927   3.640
 5706SOL    HW217463   2.941   6.840   3.541
 5707SOL     OW17464   2.092   7.020   2.400
 5707SOL    HW117465   2.066   7.116   2.400
 5707SOL    HW217466   2.021   6.966   2.445
 5708SOL     OW17467   2.102   6.677   2.748
 5708SOL    HW117468   2.116   6.593   2.800
 5708SOL    HW217469   2.047   6.741   2.803
 5709SOL     OW17470   2.482   7.372   3.301
 5709SOL    HW117471   2.390   7.355   3.336
 5709SOL    HW217472   2.510   7.464   3.327
 5710SOL     OW17473   2.468   6.550   1.985
 5710SOL    HW117474   2.475   6.634   1.931
 5710SOL    HW217475   2.514   6.563   2.073
 5711SOL     OW17476   3.456   5.700   3.342
 5711SOL    HW117477   3.438   5.767   3.270
 5711SOL    HW217478   3.453   5.746   3.431
 5712SOL     OW17479   1.984   6.229   2.425
 5712SOL    HW117480   1.939   6.141   2.442
 5712SOL    HW217481   1.983   6.283   2.509
 5713SOL     OW17482   3.704   7.353   2.221
 5713SOL    HW117483   3.758   7.324   2.301
 5713SOL    HW217484   3.734   7.443   2.192
 5714SOL     OW17485   1.889   7.182   1.979
 5714SOL    HW117486   1.870   7.086   2.000
 5714SOL    HW217487   1.856   7.240   2.054
 5715SOL     OW17488   3.551   6.508   2.474
 5715SOL    HW117489   3.646   6.479   2.482
 5715SOL    HW217490   3.543   6.573   2.399
 5716SOL     OW17491   3.503   6.694   2.294
 5716SOL    HW117492   3.589   6.696   2.242
 5716SOL    HW217493   3.517   6.741   2.382
 5717SOL     OW17494   1.975   6.323   3.459
 5717SOL    HW117495   2.063   6.310   3.504
 5717SOL    HW217496   1.962   6.420   3.437
 5718SOL     OW17497   2.475   6.951   2.588
 5718SOL    HW117498   2.426   6.864   2.597
 5718SOL    HW217499   2.452   6.994   2.501
 5719SOL     OW17500   3.155   6.814   3.285
 5719SOL    HW117501   3.192   6.741   3.227
 5719SOL    HW217502   3.207   6.819   3.370
 5720SOL     OW17503   2.671   5.590   2.364
 5720SOL    HW117504   2.711   5.681   2.355
 5720SOL    HW217505   2.571   5.598   2.370
 5721SOL     OW17506   2.059   6.562   3.126
 5721SOL    HW117507   2.148   6.517   3.112
 5721SOL    HW217508   1.986   6.497   3.107
 5722SOL     OW17509   3.387   6.585   2.052
 5722SOL    HW117510   3.324   6.509   2.065
 5722SOL    HW217511   3.435   6.603   2.138
 5723SOL     OW17512   3.049   7.378   3.478
 5723SOL    HW117513   3.073   7.438   3.402
 5723SOL    HW217514   3.056   7.283   3.448
 5724SOL     OW17515   2.179   5.837   3.663
 5724SOL    HW117516   2.250   5.908   3.669
 5724SOL    HW217517   2.091   5.876   3.691
 5725SOL     OW17518   3.328   7.003   2.815
 5725SOL    HW117519   3.269   7.009   2.895
 5725SOL    HW217520   3.313   6.915   2.769
 5726SOL     OW17521   3.529   7.300   2.434
 5726SOL    HW117522   3.488   7.277   2.346
 5726SOL    HW217523   3.511   7.226   2.499
 5727SOL     OW17524   2.460   6.315   2.132
 5727SOL    HW117525   2.484   6.384   2.064
 5727SOL    HW217526   2.382   6.348   2.186
 5728SOL     OW17527   3.143   5.931   2.806
 5728SOL    HW117528   3.057   5.881   2.793
 5728SOL    HW217529   3.205   5.877   2.862
 5729SOL     OW17530   3.438   7.248   2.169
 5729SOL    HW117531   3.527   7.294   2.172
 5729SOL    HW217532   3.417   7.224   2.074
 5730SOL     OW17533   2.669   6.191   3.327
 5730SOL    HW117534   2.622   6.188   3.416
 5730SOL    HW217535   2.618   6.136   3.261
 5731SOL     OW17536   3.256   6.055   3.536
 5731SOL    HW117537   3.236   6.098   3.624
 5731SOL    HW217538   3.334   5.993   3.545
 5732SOL     OW17539   2.835   6.476   3.434
 5732SOL    HW117540   2.881   6.392   3.405
 5732SOL    HW217541   2.779   6.510   3.359
 5733SOL     OW17542   2.853   5.996   3.104
 5733SOL    HW117543   2.776   6.030   3.158
 5733SOL    HW217544   2.819   5.945   3.025
 5734SOL     OW17545   2.903   6.287   2.291
 5734SOL    HW117546   2.929   6.283   2.387
 5734SOL    HW217547   2.818   6.236   2.277
 5735SOL     OW17548   1.938   6.397   2.651
 5735SOL    HW117549   2.037   6.385   2.660
 5735SOL    HW217550   1.914   6.492   2.672
 5736SOL     OW17551   1.992   7.407   3.433
 5736SOL    HW117552   1.982   7.392   3.532
 5736SOL    HW217553   1.906   7.443   3.397
 5737SOL     OW17554   2.727   5.934   2.057
 5737SOL    HW117555   2.786   5.997   2.008
 5737SOL    HW217556   2.746   5.840   2.028
 5738SOL     OW17557   3.224   6.730   2.407
 5738SOL    HW117558   3.307   6.701   2.359
 5738SOL    HW217559   3.175   6.797   2.351
 5739SOL     OW17560   2.412   5.782   2.747
 5739SOL    HW117561   2.407   5.777   2.847
 5739SOL    HW217562   2.414   5.878   2.718
 5740SOL     OW17563   2.870   7.042   2.339
 5740SOL    HW117564   2.824   7.114   2.287
 5740SOL    HW217565   2.866   7.062   2.437
 5741SOL     OW17566   2.213   7.387   2.715
 5741SOL    HW117567   2.263   7.301   2.721
 5741SOL    HW217568   2.278   7.464   2.712
 5742SOL     OW17569   3.657   6.652   2.735
 5742SOL    HW117570   3.595   6.637   2.659
 5742SOL    HW217571   3.605   6.663   2.820
 5743SOL     OW17572   3.089   7.136   3.368
 5743SOL    HW117573   3.095   7.059   3.432
 5743SOL    HW217574   3.037   7.110   3.288
 5744SOL     OW17575   2.183   6.529   2.104
 5744SOL    HW117576   2.265   6.568   2.062
 5744SOL    HW217577   2.156   6.447   2.055
 5745SOL     OW17578   3.320   6.321   2.590
 5745SOL    HW117579   3.315   6.256   2.665
 5745SOL    HW217580   3.400   6.380   2.603
 5746SOL     OW17581   2.323   6.852   3.589
 5746SOL    HW117582   2.273   6.853   3.503
 5746SOL    HW217583   2.260   6.834   3.665
 5747SOL     OW17584   2.064   5.871   3.360
 5747SOL    HW117585   1.984   5.931   3.347
 5747SOL    HW217586   2.054   5.822   3.446
 5748SOL     OW17587   3.494   6.963   1.943
 5748SOL    HW117588   3.462   7.057   1.933
 5748SOL    HW217589   3.418   6.900   1.931
 5749SOL     OW17590   2.326   7.329   2.185
 5749SOL    HW117591   2.359   7.368   2.271
 5749SOL    HW217592   2.402   7.322   2.120
 5750SOL     OW17593   3.262   5.693   2.288
 5750SOL    HW117594   3.238   5.656   2.198
 5750SOL    HW217595   3.361   5.709   2.292
 5751SOL     OW17596   2.111   7.371   3.103
 5751SOL    HW117597   2.168   7.306   3.153
 5751SOL    HW217598   2.095   7.338   3.010
 5752SOL     OW17599   2.802   7.284   2.766
 5752SOL    HW117600   2.882   7.227   2.787
 5752SOL    HW217601   2.753   7.244   2.689
 5753SOL     OW17602   2.244   6.286   2.342
 5753SOL    HW117603   2.289   6.196   2.339
 5753SOL    HW217604   2.150   6.275   2.375
 5754SOL     OW17605   2.476   5.708   1.979
 5754SOL    HW117606   2.574   5.686   1.986
 5754SOL    HW217607   2.445   5.691   1.886
 5755SOL     OW17608   2.643   5.850   3.611
 5755SOL    HW117609   2.710   5.789   3.654
 5755SOL    HW217610   2.570   5.869   3.676
 5756SOL     OW17611   2.750   7.100   3.057
 5756SOL    HW117612   2.727   7.075   2.963
 5756SOL    HW217613   2.811   7.031   3.096
 5757SOL     OW17614   3.213   6.176   3.295
 5757SOL    HW117615   3.241   6.133   3.380
 5757SOL    HW217616   3.238   6.272   3.296
 5758SOL     OW17617   2.665   6.988   2.786
 5758SOL    HW117618   2.755   7.002   2.744
 5758SOL    HW217619   2.594   6.990   2.715
 5759SOL     OW17620   2.784   6.089   2.761
 5759SOL    HW117621   2.759   6.080   2.665
 5759SOL    HW217622   2.832   6.007   2.792
 5760SOL     OW17623   2.401   5.650   2.374
 5760SOL    HW117624   2.320   5.651   2.432
 5760SOL    HW217625   2.404   5.733   2.319
 5761SOL     OW17626   3.296   6.774   1.903
 5761SOL    HW117627   3.328   6.698   1.960
 5761SOL    HW217628   3.204   6.801   1.933
 5762SOL     OW17629   2.159   5.621   2.033
 5762SOL    HW117630   2.208   5.705   2.012
 5762SOL    HW217631   2.221   5.556   2.078
 5763SOL     OW17632   2.797   5.822   2.342
 5763SOL    HW117633   2.749   5.863   2.264
 5763SOL    HW217634   2.896   5.820   2.323
 5764SOL     OW17635   2.938   6.269   3.326
 5764SOL    HW117636   2.858   6.208   3.329
 5764SOL    HW217637   3.019   6.216   3.302
 5765SOL     OW17638   3.089   7.156   2.655
 5765SOL    HW117639   3.110   7.230   2.590
 5765SOL    HW217640   3.157   7.156   2.728
 5766SOL     OW17641   2.321   6.738   2.603
 5766SOL    HW117642   2.250   6.711   2.668
 5766SOL    HW217643   2.295   6.710   2.510
 5767SOL     OW17644   2.894   6.135   1.878
 5767SOL    HW117645   2.853   6.217   1.839
 5767SOL    HW217646   2.958   6.161   1.951
 5768SOL     OW17647   1.940   6.142   3.248
 5768SOL    HW117648   2.032   6.141   3.207
 5768SOL    HW217649   1.934   6.216   3.315
 5769SOL     OW17650   2.423   5.808   3.009
 5769SOL    HW117651   2.461   5.724   3.046
 5769SOL    HW217652   2.335   5.827   3.053
 5770SOL     OW17653   2.728   6.040   2.504
 5770SOL    HW117654   2.696   6.112   2.442
 5770SOL    HW217655   2.752   5.959   2.451
 5771SOL     OW17656   2.879   5.625   2.615
 5771SOL    HW117657   2.807   5.630   2.546
 5771SOL    HW217658   2.855   5.556   2.684
 5772SOL     OW17659   3.291   6.759   2.729
 5772SOL    HW117660   3.236   6.675   2.722
 5772SOL    HW217661   3.317   6.788   2.637
 5773SOL     OW17662   3.328   6.176   2.854
 5773SOL    HW117663   3.298   6.081   2.861
 5773SOL    HW217664   3.401   6.192   2.920
 5774SOL     OW17665   3.719   6.419   2.239
 5774SOL    HW117666   3.761   6.355   2.303
 5774SOL    HW217667   3.681   6.368   2.161
 5775SOL     OW17668   2.350   6.971   2.036
 5775SOL    HW117669   2.263   6.956   2.083
 5775SOL    HW217670   2.333   6.997   1.941
 5776SOL     OW17671   3.526   6.866   2.519
 5776SOL    HW117672   3.625   6.874   2.533
 5776SOL    HW217673   3.481   6.950   2.550
 5777SOL     OW17674   3.252   6.161   1.940
 5777SOL    HW117675   3.198   6.140   2.021
 5777SOL    HW217676   3.343   6.120   1.949
 5778SOL     OW17677   2.389   5.842   2.190
 5778SOL    HW117678   2.416   5.783   2.115
 5778SOL    HW217679   2.389   5.937   2.159
 5779SOL     OW17680   3.616   6.809   3.450
 5779SOL    HW117681   3.707   6.770   3.437
 5779SOL    HW217682   3.624   6.905   3.474
 5780SOL     OW17683   2.926   6.933   3.202
 5780SOL    HW117684   2.846   6.910   3.257
 5780SOL    HW217685   3.009   6.907   3.251
 5781SOL     OW17686   3.454   7.215   3.487
 5781SOL    HW117687   3.481   7.249   3.397
 5781SOL    HW217688   3.533   7.177   3.533
 5782SOL     OW17689   2.973   6.781   2.962
 5782SOL    HW117690   2.933   6.825   3.043
 5782SOL    HW217691   2.932   6.818   2.879
 5783SOL     OW17692   3.500   6.685   2.941
 5783SOL    HW117693   3.505   6.766   3.000
 5783SOL    HW217694   3.414   6.687   2.890
 5784SOL     OW17695   2.777   5.675   3.264
 5784SOL    HW117696   2.802   5.655   3.169
 5784SOL    HW217697   2.849   5.731   3.306
 5785SOL     OW17698   2.842   6.702   3.581
 5785SOL    HW117699   2.743   6.708   3.591
 5785SOL    HW217700   2.865   6.622   3.525
 5786SOL     OW17701   2.567   6.636   2.230
 5786SOL    HW117702   2.553   6.643   2.329
 5786SOL    HW217703   2.651   6.585   2.212
 5787SOL     OW17704   2.272   6.399   3.113
 5787SOL    HW117705   2.358   6.411   3.163
 5787SOL    HW217706   2.230   6.312   3.140
 5788SOL     OW17707   3.136   5.972   3.124
 5788SOL    HW117708   3.157   6.046   3.188
 5788SOL    HW217709   3.047   5.989   3.081
 5789SOL     OW17710   1.926   7.150   3.193
 5789SOL    HW117711   1.880   7.232   3.159
 5789SOL    HW217712   2.024   7.169   3.202
 5790SOL     OW17713   2.229   6.686   2.363
 5790SOL    HW117714   2.222   6.769   2.307
 5790SOL    HW217715   2.233   6.606   2.303
 5791SOL     OW17716   2.428   6.123   2.727
 5791SOL    HW117717   2.440   6.189   2.653
 5791SOL    HW217718   2.474   6.157   2.810
 5792SOL     OW17719   3.114   6.934   2.250
 5792SOL    HW117720   3.164   7.011   2.290
 5792SOL    HW217721   3.019   6.936   2.282
 5793SOL     OW17722   3.134   7.031   3.004
 5793SOL    HW117723   3.181   7.044   3.091
 5793SOL    HW217724   3.068   6.957   3.013
 5794SOL     OW17725   3.444   6.225   2.334
 5794SOL    HW117726   3.413   6.286   2.407
 5794SOL    HW217727   3.494   6.277   2.265
 5795SOL     OW17728   2.216   7.096   3.191
 5795SOL    HW117729   2.195   7.052   3.104
 5795SOL    HW217730   2.313   7.122   3.194
 5796SOL     OW17731   2.264   6.337   3.460
 5796SOL    HW117732   2.332   6.392   3.413
 5796SOL    HW217733   2.304   6.249   3.487
 5797SOL     OW17734   3.449   6.365   3.532
 5797SOL    HW117735   3.357   6.403   3.527
 5797SOL    HW217736   3.509   6.412   3.467
 5798SOL     OW17737   2.875   5.691   3.632
 5798SOL    HW117738   2.881   5.776   3.580
 5798SOL    HW217739   2.907   5.615   3.575
 5799SOL     OW17740   2.366   5.636   3.602
 5799SOL    HW117741   2.324   5.579   3.532
 5799SOL    HW217742   2.300   5.705   3.634
 5800SOL     OW17743   2.435   6.456   2.891
 5800SOL    HW117744   2.479   6.545   2.882
 5800SOL    HW217745   2.372   6.456   2.968
 5801SOL     OW17746   3.071   6.111   2.137
 5801SOL    HW117747   3.084   6.027   2.191
 5801SOL    HW217748   3.042   6.185   2.197
 5802SOL     OW17749   2.169   5.799   3.093
 5802SOL    HW117750   2.146   5.836   3.183
 5802SOL    HW217751   2.139   5.704   3.087
 5803SOL     OW17752   1.899   6.896   3.144
 5803SOL    HW117753   1.952   6.847   3.212
 5803SOL    HW217754   1.921   6.994   3.149
 5804SOL     OW17755   2.594   6.220   2.926
 5804SOL    HW117756   2.653   6.194   2.850
 5804SOL    HW217757   2.566   6.316   2.915
 5805SOL     OW17758   3.590   6.521   3.716
 5805SOL    HW117759   3.544   6.514   3.627
 5805SOL    HW217760   3.528   6.565   3.782
 5806SOL     OW17761   2.169   5.649   2.480
 5806SOL    HW117762   2.158   5.743   2.513
 5806SOL    HW217763   2.164   5.586   2.557
 5807SOL     OW17764   3.484   5.953   2.236
 5807SOL    HW117765   3.486   5.877   2.300
 5807SOL    HW217766   3.436   6.030   2.276
 5808SOL     OW17767   2.885   6.352   2.828
 5808SOL    HW117768   2.900   6.373   2.924
 5808SOL    HW217769   2.855   6.257   2.819
 5809SOL     OW17770   2.842   7.159   3.562
 5809SOL    HW117771   2.822   7.203   3.474
 5809SOL    HW217772   2.881   7.068   3.546
 5810SOL     OW17773   3.721   7.104   3.467
 5810SOL    HW117774   3.735   7.131   3.372
 5810SOL    HW217775   3.804   7.126   3.520
 5811SOL     OW17776   2.212   6.484   3.666
 5811SOL    HW117777   2.288   6.528   3.714
 5811SOL    HW217778   2.247   6.437   3.584
 5812SOL     OW17779   3.402   5.860   1.987
 5812SOL    HW117780   3.341   5.785   2.010
 5812SOL    HW217781   3.424   5.912   2.070
 5813SOL     OW17782   3.165   6.424   1.904
 5813SOL    HW117783   3.199   6.331   1.919
 5813SOL    HW217784   3.183   6.451   1.809
 5814SOL     OW17785   2.930   6.919   2.711
 5814SOL    HW117786   2.937   6.835   2.656
 5814SOL    HW217787   2.992   6.988   2.675
 5815SOL     OW17788   2.181   6.396   2.811
 5815SOL    HW117789   2.274   6.432   2.816
 5815SOL    HW217790   2.175   6.311   2.863
 5816SOL     OW17791   2.201   6.095   2.868
 5816SOL    HW117792   2.149   6.012   2.851
 5816SOL    HW217793   2.278   6.100   2.804
 5817SOL     OW17794   3.000   5.966   3.540
 5817SOL    HW117795   2.955   6.029   3.604
 5817SOL    HW217796   3.093   5.997   3.523
 5818SOL     OW17797   3.022   5.793   3.339
 5818SOL    HW117798   3.022   5.857   3.416
 5818SOL    HW217799   3.050   5.841   3.256
 5819SOL     OW17800   1.870   6.912   2.062
 5819SOL    HW117801   1.777   6.933   2.031
 5819SOL    HW217802   1.880   6.813   2.075
 5820SOL     OW17803   1.950   7.387   2.789
 5820SOL    HW117804   1.908   7.301   2.762
 5820SOL    HW217805   2.044   7.390   2.755
 5821SOL     OW17806   2.366   7.154   2.772
 5821SOL    HW117807   2.432   7.228   2.781
 5821SOL    HW217808   2.410   7.075   2.730
 5822SOL     OW17809   2.864   6.382   3.100
 5822SOL    HW117810   2.905   6.350   3.186
 5822SOL    HW217811   2.768   6.355   3.097
 5823SOL     OW17812   1.902   6.130   2.976
 5823SOL    HW117813   1.987   6.097   2.935
 5823SOL    HW217814   1.915   6.145   3.074
 5824SOL     OW17815   2.051   6.106   3.584
 5824SOL    HW117816   2.110   6.066   3.514
 5824SOL    HW217817   1.993   6.177   3.543
 5825SOL     OW17818   3.231   6.536   3.522
 5825SOL    HW117819   3.270   6.625   3.542
 5825SOL    HW217820   3.241   6.516   3.425
 5826SOL     OW17821   2.677   6.158   2.187
 5826SOL    HW117822   2.684   6.069   2.141
 5826SOL    HW217823   2.583   6.192   2.179
 5827SOL     OW17824   3.519   6.190   3.068
 5827SOL    HW117825   3.481   6.121   3.130
 5827SOL    HW217826   3.601   6.154   3.024
 5828SOL     OW17827   2.114   7.150   3.606
 5828SOL    HW117828   2.084   7.207   3.682
 5828SOL    HW217829   2.107   7.053   3.632
 5829SOL     OW17830   2.533   6.050   3.131
 5829SOL    HW117831   2.499   5.961   3.101
 5829SOL    HW217832   2.559   6.104   3.051
 5830SOL     OW17833   2.792   7.264   3.327
 5830SOL    HW117834   2.768   7.246   3.232
 5830SOL    HW217835   2.822   7.358   3.337
 5831SOL     OW17836   2.335   6.086   2.053
 5831SOL    HW117837   2.396   6.166   2.057
 5831SOL    HW217838   2.240   6.117   2.060
 5832SOL     OW17839   2.021   6.723   3.328
 5832SOL    HW117840   2.043   6.662   3.404
 5832SOL    HW217841   2.031   6.674   3.242
 5833SOL     OW17842   3.209   6.645   3.096
 5833SOL    HW117843   3.233   6.582   3.022
 5833SOL    HW217844   3.119   6.685   3.078
 5834SOL     OW17845   3.164   6.441   2.171
 5834SOL    HW117846   3.078   6.410   2.213
 5834SOL    HW217847   3.160   6.427   2.072
 5835SOL     OW17848   3.621   7.333   3.016
 5835SOL    HW117849   3.682   7.363   2.943
 5835SOL    HW217850   3.583   7.244   2.994
 5836SOL     OW17851   3.114   7.317   2.990
 5836SOL    HW117852   3.198   7.322   2.936
 5836SOL    HW217853   3.091   7.221   3.008
 5837SOL     OW17854   1.945   6.844   2.884
 5837SOL    HW117855   1.940   6.843   2.984
 5837SOL    HW217856   1.862   6.803   2.846
 5838SOL     OW17857   2.550   7.248   3.578
 5838SOL    HW117858   2.494   7.329   3.587
 5838SOL    HW217859   2.602   7.252   3.492
 5839SOL     OW17860   3.588   5.721   2.385
 5839SOL    HW117861   3.661   5.704   2.318
 5839SOL    HW217862   3.557   5.634   2.423
 5840SOL     OW17863   3.250   7.159   2.339
 5840SOL    HW117864   3.317   7.171   2.265
 5840SOL    HW217865   3.210   7.248   2.362
 5841SOL     OW17866   1.992   7.380   3.713
 5841SOL    HW117867   1.951   7.306   3.766
 5841SOL    HW217868   2.056   7.431   3.771
 5842SOL     OW17869   3.142   6.513   2.534
 5842SOL    HW117870   3.202   6.432   2.536
 5842SOL    HW217871   3.182   6.582   2.474
 5843SOL     OW17872   2.692   6.859   3.284
 5843SOL    HW117873   2.687   6.892   3.379
 5843SOL    HW217874   2.606   6.878   3.238
 5844SOL     OW17875   2.534   7.202   2.016
 5844SOL    HW117876   2.543   7.212   1.917
 5844SOL    HW217877   2.494   7.113   2.037
 5845SOL     OW17878   3.512   7.306   3.256
 5845SOL    HW117879   3.565   7.316   3.172
 5845SOL    HW217880   3.485   7.396   3.290
 5846SOL     OW17881   2.125   5.912   2.582
 5846SOL    HW117882   2.046   5.963   2.548
 5846SOL    HW217883   2.116   5.897   2.680
 5847SOL     OW17884   3.056   7.198   1.893
 5847SOL    HW117885   3.062   7.105   1.930
 5847SOL    HW217886   2.997   7.198   1.813
 5848SOL     OW17887   2.684   6.588   3.234
 5848SOL    HW117888   2.724   6.587   3.142
 5848SOL    HW217889   2.694   6.680   3.274
 5849SOL     OW17890   2.778   6.496   2.153
 5849SOL    HW117891   2.841   6.534   2.085
 5849SOL    HW217892   2.818   6.413   2.192
 5850SOL     OW17893   3.366   7.193   1.906
 5850SOL    HW117894   3.274   7.230   1.913
 5850SOL    HW217895   3.404   7.213   1.816
 5851SOL     OW17896   2.234   6.874   3.352
 5851SOL    HW117897   2.221   6.967   3.318
 5851SOL    HW217898   2.150   6.822   3.339
 5852SOL     OW17899   3.476   6.878   3.151
 5852SOL    HW117900   3.536   6.881   3.231
 5852SOL    HW217901   3.401   6.942   3.164
 5853SOL     OW17902   2.901   6.684   2.558
 5853SOL    HW117903   2.831   6.637   2.612
 5853SOL    HW217904   2.960   6.616   2.515
 5854SOL     OW17905   2.876   5.822   2.833
 5854SOL    HW117906   2.868   5.786   2.740
 5854SOL    HW217907   2.874   5.746   2.898
 5855SOL     OW17908   2.452   7.073   2.353
 5855SOL    HW117909   2.494   7.015   2.283
 5855SOL    HW217910   2.408   7.152   2.309
 5856SOL     OW17911   3.571   5.971   3.243
 5856SOL    HW117912   3.644   6.040   3.247
 5856SOL    HW217913   3.599   5.896   3.184
 5857SOL     OW17914   2.117   6.934   2.152
 5857SOL    HW117915   2.021   6.935   2.125
 5857SOL    HW217916   2.129   6.987   2.236
 5858SOL     OW17917   2.534   5.789   3.351
 5858SOL    HW117918   2.624   5.773   3.311
 5858SOL    HW217919   2.542   5.794   3.450
 5859SOL     OW17920   1.937   5.931   1.895
 5859SOL    HW117921   1.845   5.903   1.866
 5859SOL    HW217922   1.968   6.008   1.839
 5860SOL     OW17923   3.302   6.442   3.260
 5860SOL    HW117924   3.245   6.494   3.197
 5860SOL    HW217925   3.398   6.454   3.236
 5861SOL     OW17926   1.934   5.752   2.180
 5861SOL    HW117927   1.917   5.835   2.126
 5861SOL    HW217928   2.024   5.715   2.158
 5862SOL     OW17929   3.045   6.921   1.981
 5862SOL    HW117930   2.946   6.910   1.983
 5862SOL    HW217931   3.079   6.936   2.074
 5863SOL     OW17932   2.475   6.428   3.293
 5863SOL    HW117933   2.531   6.509   3.276
 5863SOL    HW217934   2.534   6.348   3.296
 5864SOL     OW17935   3.355   7.353   2.821
 5864SOL    HW117936   3.388   7.417   2.752
 5864SOL    HW217937   3.421   7.347   2.896
 5865SOL     OW17938   2.578   6.151   3.570
 5865SOL    HW117939   2.597   6.216   3.644
 5865SOL    HW217940   2.638   6.071   3.579
 5866SOL     OW17941   3.312   6.806   3.495
 5866SOL    HW117942   3.303   6.796   3.594
 5866SOL    HW217943   3.408   6.799   3.469
 5867SOL     OW17944   2.252   7.327   3.422
 5867SOL    HW117945   2.161   7.368   3.420
 5867SOL    HW217946   2.245   7.233   3.454
 5868SOL     OW17947   3.536   6.469   3.116
 5868SOL    HW117948   3.509   6.380   3.079
 5868SOL    HW217949   3.537   6.537   3.043
 5869SOL     OW17950   3.087   5.911   2.311
 5869SOL    HW117951   3.152   5.837   2.300
 5869SOL    HW217952   3.107   5.961   2.395
 5870SOL     OW17953   2.456   6.331   2.514
 5870SOL    HW117954   2.506   6.416   2.495
 5870SOL    HW217955   2.368   6.333   2.466
 5871SOL     OW17956   3.592   6.520   3.379
 5871SOL    HW117957   3.630   6.611   3.394
 5871SOL    HW217958   3.584   6.503   3.280
 5872SOL     OW17959   2.721   6.960   1.878
 5872SOL    HW117960   2.675   6.975   1.966
 5872SOL    HW217961   2.765   7.045   1.848
 5873SOL     OW17962   2.523   7.376   2.815
 5873SOL    HW117963   2.477   7.464   2.802
 5873SOL    HW217964   2.622   7.388   2.808
 5874SOL     OW17965   2.721   6.542   2.723
 5874SOL    HW117966   2.775   6.473   2.771
 5874SOL    HW217967   2.689   6.611   2.789
 5875SOL     OW17968   2.945   6.570   1.949
 5875SOL    HW117969   2.922   6.623   1.867
 5875SOL    HW217970   3.026   6.514   1.930
 5876SOL     OW17971   3.723   7.155   2.713
 5876SOL    HW117972   3.652   7.143   2.643
 5876SOL    HW217973   3.724   7.076   2.773
 5877SOL     OW17974   2.083   6.900   3.706
 5877SOL    HW117975   2.018   6.827   3.685
 5877SOL    HW217976   2.087   6.914   3.804
 5878SOL     OW17977   1.941   6.826   2.515
 5878SOL    HW117978   1.940   6.779   2.603
 5878SOL    HW217979   2.023   6.798   2.464
 5879SOL     OW17980   2.534   6.977   3.486
 5879SOL    HW117981   2.456   6.927   3.524
 5879SOL    HW217982   2.531   7.072   3.517
 5880SOL     OW17983   2.290   6.010   2.382
 5880SOL    HW117984   2.320   5.938   2.320
 5880SOL    HW217985   2.251   5.970   2.465
 5881SOL     OW17986   3.567   7.073   2.966
 5881SOL    HW117987   3.474   7.048   2.939
 5881SOL    HW217988   3.593   7.023   3.048
 5882SOL     OW17989   2.179   6.133   3.142
 5882SOL    HW117990   2.217   6.074   3.214
 5882SOL    HW217991   2.219   6.107   3.054
 5883SOL     OW17992   2.674   7.172   2.549
 5883SOL    HW117993   2.706   7.182   2.455
 5883SOL    HW217994   2.595   7.110   2.551
 5884SOL     OW17995   3.286   5.800   2.974
 5884SOL    HW117996   3.338   5.735   3.029
 5884SOL    HW217997   3.237   5.863   3.035
 5885SOL     OW17998   2.863   5.620   3.016
 5885SOL    HW117999   2.800   5.548   2.985
 5885SOL    HW218000   2.956   5.584   3.016
 5886SOL     OW18001   2.632   6.916   2.163
 5886SOL    HW118002   2.586   6.829   2.180
 5886SOL    HW218003   2.723   6.913   2.204
 5887SOL     OW18004   2.480   7.153   3.146
 5887SOL    HW118005   2.475   7.235   3.203
 5887SOL    HW218006   2.569   7.150   3.101
 5888SOL     OW18007   3.214   5.638   2.030
 5888SOL    HW118008   3.249   5.597   1.946
 5888SOL    HW218009   3.124   5.600   2.050
 5889SOL     OW18010   3.162   6.039   2.553
 5889SOL    HW118011   3.103   6.119   2.557
 5889SOL    HW218012   3.177   6.004   2.646
 5890SOL     OW18013   3.455   5.807   2.744
 5890SOL    HW118014   3.371   5.806   2.798
 5890SOL    HW218015   3.457   5.890   2.688
 5891SOL     OW18016   1.901   6.663   2.162
 5891SOL    HW118017   2.000   6.652   2.153
 5891SOL    HW218018   1.861   6.577   2.194
 5892SOL     OW18019   2.737   7.232   2.199
 5892SOL    HW118020   2.660   7.197   2.145
 5892SOL    HW218021   2.705   7.303   2.261
 5893SOL     OW18022   2.092   6.214   3.837
 5893SOL    HW118023   1.999   6.212   3.874
 5893SOL    HW218024   2.093   6.175   3.745
 5894SOL     OW18025   2.087   5.861   4.720
 5894SOL    HW118026   2.122   5.844   4.812
 5894SOL    HW218027   1.999   5.816   4.708
 5895SOL     OW18028   1.881   5.954   4.371
 5895SOL    HW118029   1.799   5.997   4.410
 5895SOL    HW218030   1.853   5.881   4.308
 5896SOL     OW18031   2.431   6.861   4.889
 5896SOL    HW118032   2.338   6.854   4.852
 5896SOL    HW218033   2.442   6.950   4.933
 5897SOL     OW18034   3.417   7.097   4.427
 5897SOL    HW118035   3.360   7.081   4.508
 5897SOL    HW218036   3.358   7.107   4.347
 5898SOL     OW18037   2.997   6.289   4.441
 5898SOL    HW118038   3.054   6.367   4.416
 5898SOL    HW218039   2.937   6.315   4.517
 5899SOL     OW18040   3.617   6.193   3.955
 5899SOL    HW118041   3.605   6.180   3.856
 5899SOL    HW218042   3.587   6.112   4.004
 5900SOL     OW18043   2.630   6.730   4.747
 5900SOL    HW118044   2.552   6.747   4.807
 5900SOL    HW218045   2.664   6.817   4.711
 5901SOL     OW18046   2.712   6.384   5.547
 5901SOL    HW118047   2.708   6.460   5.612
 5901SOL    HW218048   2.734   6.420   5.456
 5902SOL     OW18049   2.547   6.598   4.389
 5902SOL    HW118050   2.616   6.582   4.459
 5902SOL    HW218051   2.474   6.655   4.427
 5903SOL     OW18052   2.548   6.747   5.527
 5903SOL    HW118053   2.608   6.826   5.541
 5903SOL    HW218054   2.462   6.778   5.486
 5904SOL     OW18055   2.197   7.021   4.785
 5904SOL    HW118056   2.119   6.990   4.732
 5904SOL    HW218057   2.255   7.079   4.728
 5905SOL     OW18058   3.322   7.091   5.063
 5905SOL    HW118059   3.346   7.185   5.089
 5905SOL    HW218060   3.306   7.037   5.145
 5906SOL     OW18061   3.465   6.033   4.461
 5906SOL    HW118062   3.391   6.079   4.411
 5906SOL    HW218063   3.516   6.101   4.514
 5907SOL     OW18064   2.093   7.299   4.207
 5907SOL    HW118065   2.127   7.376   4.261
 5907SOL    HW218066   2.137   7.299   4.117
 5908SOL     OW18067   2.989   6.927   5.414
 5908SOL    HW118068   3.036   6.927   5.502
 5908SOL    HW218069   2.941   6.840   5.403
 5909SOL     OW18070   2.092   7.020   4.262
 5909SOL    HW118071   2.066   7.116   4.262
 5909SOL    HW218072   2.021   6.966   4.307
 5910SOL     OW18073   2.102   6.677   4.610
 5910SOL    HW118074   2.116   6.593   4.662
 5910SOL    HW218075   2.047   6.741   4.665
 5911SOL     OW18076   2.482   7.372   5.163
 5911SOL    HW118077   2.390   7.355   5.198
 5911SOL    HW218078   2.510   7.464   5.189
 5912SOL     OW18079   2.468   6.550   3.847
 5912SOL    HW118080   2.475   6.634   3.793
 5912SOL    HW218081   2.514   6.563   3.935
 5913SOL     OW18082   3.456   5.700   5.204
 5913SOL    HW118083   3.438   5.767   5.132
 5913SOL    HW218084   3.453   5.746   5.293
 5914SOL     OW18085   1.984   6.229   4.287
 5914SOL    HW118086   1.939   6.141   4.304
 5914SOL    HW218087   1.983   6.283   4.371
 5915SOL     OW18088   3.704   7.353   4.083
 5915SOL    HW118089   3.758   7.324   4.163
 5915SOL    HW218090   3.734   7.443   4.054
 5916SOL     OW18091   1.889   7.182   3.841
 5916SOL    HW118092   1.870   7.086   3.862
 5916SOL    HW218093   1.856   7.240   3.916
 5917SOL     OW18094   3.551   6.508   4.336
 5917SOL    HW118095   3.646   6.479   4.344
 5917SOL    HW218096   3.543   6.573   4.261
 5918SOL     OW18097   3.503   6.694   4.156
 5918SOL    HW118098   3.589   6.696   4.104
 5918SOL    HW218099   3.517   6.741   4.244
 5919SOL     OW18100   1.975   6.323   5.321
 5919SOL    HW118101   2.063   6.310   5.366
 5919SOL    HW218102   1.962   6.420   5.299
 5920SOL     OW18103   2.475   6.951   4.450
 5920SOL    HW118104   2.426   6.864   4.459
 5920SOL    HW218105   2.452   6.994   4.363
 5921SOL     OW18106   3.155   6.814   5.147
 5921SOL    HW118107   3.192   6.741   5.089
 5921SOL    HW218108   3.207   6.819   5.232
 5922SOL     OW18109   2.671   5.590   4.226
 5922SOL    HW118110   2.711   5.681   4.217
 5922SOL    HW218111   2.571   5.598   4.232
 5923SOL     OW18112   2.059   6.562   4.988
 5923SOL    HW118113   2.148   6.517   4.974
 5923SOL    HW218114   1.986   6.497   4.969
 5924SOL     OW18115   3.387   6.585   3.914
 5924SOL    HW118116   3.324   6.509   3.927
 5924SOL    HW218117   3.435   6.603   4.000
 5925SOL     OW18118   3.049   7.378   5.340
 5925SOL    HW118119   3.073   7.438   5.264
 5925SOL    HW218120   3.056   7.283   5.310
 5926SOL     OW18121   2.179   5.837   5.525
 5926SOL    HW118122   2.250   5.908   5.531
 5926SOL    HW218123   2.091   5.876   5.553
 5927SOL     OW18124   3.328   7.003   4.677
 5927SOL    HW118125   3.269   7.009   4.757
 5927SOL    HW218126   3.313   6.915   4.631
 5928SOL     OW18127   3.529   7.300   4.296
 5928SOL    HW118128   3.488   7.277   4.208
 5928SOL    HW218129   3.511   7.226   4.361
 5929SOL     OW18130   2.460   6.315   3.994
 5929SOL    HW118131   2.484   6.384   3.926
 5929SOL    HW218132   2.382   6.348   4.048
 5930SOL     OW18133   3.438   7.248   4.031
 5930SOL    HW118134   3.527   7.294   4.034
 5930SOL    HW218135   3.417   7.224   3.936
 5931SOL     OW18136   2.669   6.191   5.189
 5931SOL    HW118137   2.622   6.188   5.278
 5931SOL    HW218138   2.618   6.136   5.123
 5932SOL     OW18139   3.256   6.055   5.398
 5932SOL    HW118140   3.236   6.098   5.486
 5932SOL    HW218141   3.334   5.993   5.407
 5933SOL     OW18142   2.835   6.476   5.296
 5933SOL    HW118143   2.881   6.392   5.267
 5933SOL    HW218144   2.779   6.510   5.221
 5934SOL     OW18145   2.903   6.287   4.153
 5934SOL    HW118146   2.929   6.283   4.249
 5934SOL    HW218147   2.818   6.236   4.139
 5935SOL     OW18148   1.938   6.397   4.513
 5935SOL    HW118149   2.037   6.385   4.522
 5935SOL    HW218150   1.914   6.492   4.534
 5936SOL     OW18151   1.992   7.407   5.295
 5936SOL    HW118152   1.982   7.392   5.394
 5936SOL    HW218153   1.906   7.443   5.259
 5937SOL     OW18154   2.727   5.934   3.919
 5937SOL    HW118155   2.786   5.997   3.870
 5937SOL    HW218156   2.746   5.840   3.890
 5938SOL     OW18157   3.581   6.171   5.555
 5938SOL    HW118158   3.555   6.260   5.519
 5938SOL    HW218159   3.579   6.103   5.482
 5939SOL     OW18160   3.224   6.730   4.269
 5939SOL    HW118161   3.307   6.701   4.221
 5939SOL    HW218162   3.175   6.797   4.213
 5940SOL     OW18163   2.870   7.042   4.201
 5940SOL    HW118164   2.824   7.114   4.149
 5940SOL    HW218165   2.866   7.062   4.299
 5941SOL     OW18166   2.213   7.387   4.577
 5941SOL    HW118167   2.263   7.301   4.583
 5941SOL    HW218168   2.278   7.464   4.574
 5942SOL     OW18169   3.657   6.652   4.597
 5942SOL    HW118170   3.595   6.637   4.521
 5942SOL    HW218171   3.605   6.663   4.682
 5943SOL     OW18172   3.089   7.136   5.230
 5943SOL    HW118173   3.095   7.059   5.294
 5943SOL    HW218174   3.037   7.110   5.150
 5944SOL     OW18175   2.183   6.529   3.966
 5944SOL    HW118176   2.265   6.568   3.924
 5944SOL    HW218177   2.156   6.447   3.917
 5945SOL     OW18178   3.320   6.321   4.452
 5945SOL    HW118179   3.315   6.256   4.527
 5945SOL    HW218180   3.400   6.380   4.465
 5946SOL     OW18181   2.323   6.852   5.451
 5946SOL    HW118182   2.273   6.853   5.365
 5946SOL    HW218183   2.260   6.834   5.527
 5947SOL     OW18184   2.064   5.871   5.222
 5947SOL    HW118185   1.984   5.931   5.209
 5947SOL    HW218186   2.054   5.822   5.308
 5948SOL     OW18187   3.494   6.963   3.805
 5948SOL    HW118188   3.462   7.057   3.795
 5948SOL    HW218189   3.418   6.900   3.793
 5949SOL     OW18190   2.326   7.329   4.047
 5949SOL    HW118191   2.359   7.368   4.133
 5949SOL    HW218192   2.402   7.322   3.982
 5950SOL     OW18193   2.111   7.371   4.965
 5950SOL    HW118194   2.168   7.306   5.015
 5950SOL    HW218195   2.095   7.338   4.872
 5951SOL     OW18196   2.802   7.284   4.628
 5951SOL    HW118197   2.882   7.227   4.649
 5951SOL    HW218198   2.753   7.244   4.551
 5952SOL     OW18199   2.244   6.286   4.204
 5952SOL    HW118200   2.289   6.196   4.201
 5952SOL    HW218201   2.150   6.275   4.237
 5953SOL     OW18202   3.409   5.808   5.453
 5953SOL    HW118203   3.404   5.845   5.545
 5953SOL    HW218204   3.337   5.739   5.441
 5954SOL     OW18205   2.476   5.708   3.841
 5954SOL    HW118206   2.574   5.686   3.848
 5954SOL    HW218207   2.445   5.691   3.748
 5955SOL     OW18208   2.643   5.850   5.473
 5955SOL    HW118209   2.710   5.789   5.516
 5955SOL    HW218210   2.570   5.869   5.538
 5956SOL     OW18211   2.750   7.100   4.919
 5956SOL    HW118212   2.727   7.075   4.825
 5956SOL    HW218213   2.811   7.031   4.958
 5957SOL     OW18214   2.665   6.988   4.648
 5957SOL    HW118215   2.755   7.002   4.606
 5957SOL    HW218216   2.594   6.990   4.577
 5958SOL     OW18217   2.401   5.650   4.236
 5958SOL    HW118218   2.320   5.651   4.294
 5958SOL    HW218219   2.404   5.733   4.181
 5959SOL     OW18220   3.296   6.774   3.765
 5959SOL    HW118221   3.328   6.698   3.822
 5959SOL    HW218222   3.204   6.801   3.795
 5960SOL     OW18223   2.159   5.621   3.895
 5960SOL    HW118224   2.208   5.705   3.874
 5960SOL    HW218225   2.221   5.556   3.940
 5961SOL     OW18226   2.938   6.269   5.188
 5961SOL    HW118227   2.858   6.208   5.191
 5961SOL    HW218228   3.019   6.216   5.164
 5962SOL     OW18229   3.089   7.156   4.517
 5962SOL    HW118230   3.110   7.230   4.452
 5962SOL    HW218231   3.157   7.156   4.590
 5963SOL     OW18232   2.321   6.738   4.465
 5963SOL    HW118233   2.250   6.711   4.530
 5963SOL    HW218234   2.295   6.710   4.372
 5964SOL     OW18235   2.894   6.135   3.740
 5964SOL    HW118236   2.853   6.217   3.701
 5964SOL    HW218237   2.958   6.161   3.813
 5965SOL     OW18238   2.728   6.040   4.366
 5965SOL    HW118239   2.696   6.112   4.304
 5965SOL    HW218240   2.752   5.959   4.313
 5966SOL     OW18241   3.291   6.759   4.591
 5966SOL    HW118242   3.236   6.675   4.584
 5966SOL    HW218243   3.317   6.788   4.499
 5967SOL     OW18244   3.719   6.419   4.101
 5967SOL    HW118245   3.761   6.355   4.165
 5967SOL    HW218246   3.681   6.368   4.023
 5968SOL     OW18247   2.350   6.971   3.898
 5968SOL    HW118248   2.263   6.956   3.945
 5968SOL    HW218249   2.333   6.997   3.803
 5969SOL     OW18250   3.526   6.866   4.381
 5969SOL    HW118251   3.625   6.874   4.395
 5969SOL    HW218252   3.481   6.950   4.412
 5970SOL     OW18253   2.389   5.842   4.052
 5970SOL    HW118254   2.416   5.783   3.977
 5970SOL    HW218255   2.389   5.937   4.021
 5971SOL     OW18256   3.616   6.809   5.312
 5971SOL    HW118257   3.707   6.770   5.299
 5971SOL    HW218258   3.624   6.905   5.336
 5972SOL     OW18259   2.926   6.933   5.064
 5972SOL    HW118260   2.846   6.910   5.119
 5972SOL    HW218261   3.009   6.907   5.113
 5973SOL     OW18262   3.454   7.215   5.349
 5973SOL    HW118263   3.481   7.249   5.259
 5973SOL    HW218264   3.533   7.177   5.395
 5974SOL     OW18265   2.973   6.781   4.824
 5974SOL    HW118266   2.933   6.825   4.905
 5974SOL    HW218267   2.932   6.818   4.741
 5975SOL     OW18268   3.500   6.685   4.803
 5975SOL    HW118269   3.505   6.766   4.862
 5975SOL    HW218270   3.414   6.687   4.752
 5976SOL     OW18271   2.777   5.675   5.126
 5976SOL    HW118272   2.802   5.655   5.031
 5976SOL    HW218273   2.849   5.731   5.168
 5977SOL     OW18274   2.842   6.702   5.443
 5977SOL    HW118275   2.743   6.708   5.453
 5977SOL    HW218276   2.865   6.622   5.387
 5978SOL     OW18277   2.567   6.636   4.092
 5978SOL    HW118278   2.553   6.643   4.191
 5978SOL    HW218279   2.651   6.585   4.074
 5979SOL     OW18280   2.272   6.399   4.975
 5979SOL    HW118281   2.358   6.411   5.025
 5979SOL    HW218282   2.230   6.312   5.002
 5980SOL     OW18283   1.926   7.150   5.055
 5980SOL    HW118284   1.880   7.232   5.021
 5980SOL    HW218285   2.024   7.169   5.064
 5981SOL     OW18286   2.229   6.686   4.225
 5981SOL    HW118287   2.222   6.769   4.169
 5981SOL    HW218288   2.233   6.606   4.165
 5982SOL     OW18289   2.428   6.123   4.589
 5982SOL    HW118290   2.440   6.189   4.515
 5982SOL    HW218291   2.474   6.157   4.672
 5983SOL     OW18292   3.114   6.934   4.112
 5983SOL    HW118293   3.164   7.011   4.152
 5983SOL    HW218294   3.019   6.936   4.144
 5984SOL     OW18295   3.134   7.031   4.866
 5984SOL    HW118296   3.181   7.044   4.953
 5984SOL    HW218297   3.068   6.957   4.875
 5985SOL     OW18298   3.444   6.225   4.196
 5985SOL    HW118299   3.413   6.286   4.269
 5985SOL    HW218300   3.494   6.277   4.127
 5986SOL     OW18301   2.216   7.096   5.053
 5986SOL    HW118302   2.195   7.052   4.966
 5986SOL    HW218303   2.313   7.122   5.056
 5987SOL     OW18304   2.264   6.337   5.322
 5987SOL    HW118305   2.332   6.392   5.275
 5987SOL    HW218306   2.304   6.249   5.349
 5988SOL     OW18307   3.449   6.365   5.394
 5988SOL    HW118308   3.357   6.403   5.389
 5988SOL    HW218309   3.509   6.412   5.329
 5989SOL     OW18310   2.875   5.691   5.494
 5989SOL    HW118311   2.881   5.776   5.442
 5989SOL    HW218312   2.907   5.615   5.437
 5990SOL     OW18313   2.366   5.636   5.464
 5990SOL    HW118314   2.324   5.579   5.394
 5990SOL    HW218315   2.300   5.705   5.496
 5991SOL     OW18316   2.435   6.456   4.753
 5991SOL    HW118317   2.479   6.545   4.744
 5991SOL    HW218318   2.372   6.456   4.830
 5992SOL     OW18319   3.071   6.111   3.999
 5992SOL    HW118320   3.084   6.027   4.053
 5992SOL    HW218321   3.042   6.185   4.059
 5993SOL     OW18322   1.899   6.896   5.006
 5993SOL    HW118323   1.952   6.847   5.074
 5993SOL    HW218324   1.921   6.994   5.011
 5994SOL     OW18325   2.594   6.220   4.788
 5994SOL    HW118326   2.653   6.194   4.712
 5994SOL    HW218327   2.566   6.316   4.777
 5995SOL     OW18328   3.590   6.521   5.578
 5995SOL    HW118329   3.544   6.514   5.489
 5995SOL    HW218330   3.528   6.565   5.644
 5996SOL     OW18331   2.169   5.649   4.342
 5996SOL    HW118332   2.158   5.743   4.375
 5996SOL    HW218333   2.164   5.586   4.419
 5997SOL     OW18334   2.885   6.352   4.690
 5997SOL    HW118335   2.900   6.373   4.786
 5997SOL    HW218336   2.855   6.257   4.681
 5998SOL     OW18337   2.842   7.159   5.424
 5998SOL    HW118338   2.822   7.203   5.336
 5998SOL    HW218339   2.881   7.068   5.408
 5999SOL     OW18340   3.721   7.104   5.329
 5999SOL    HW118341   3.735   7.131   5.234
 5999SOL    HW218342   3.804   7.126   5.382
 6000SOL     OW18343   2.212   6.484   5.528
 6000SOL    HW118344   2.288   6.528   5.576
 6000SOL    HW218345   2.247   6.437   5.446
 6001SOL     OW18346   3.165   6.424   3.766
 6001SOL    HW118347   3.199   6.331   3.781
 6001SOL    HW218348   3.183   6.451   3.671
 6002SOL     OW18349   2.930   6.919   4.573
 6002SOL    HW118350   2.937   6.835   4.518
 6002SOL    HW218351   2.992   6.988   4.537
 6003SOL     OW18352   2.181   6.396   4.673
 6003SOL    HW118353   2.274   6.432   4.678
 6003SOL    HW218354   2.175   6.311   4.725
 6004SOL     OW18355   3.000   5.966   5.402
 6004SOL    HW118356   2.955   6.029   5.466
 6004SOL    HW218357   3.093   5.997   5.385
 6005SOL     OW18358   3.022   5.793   5.201
 6005SOL    HW118359   3.022   5.857   5.278
 6005SOL    HW218360   3.050   5.841   5.118
 6006SOL     OW18361   1.870   6.912   3.924
 6006SOL    HW118362   1.777   6.933   3.893
 6006SOL    HW218363   1.880   6.813   3.937
 6007SOL     OW18364   1.950   7.387   4.651
 6007SOL    HW118365   1.908   7.301   4.624
 6007SOL    HW218366   2.044   7.390   4.617
 6008SOL     OW18367   2.366   7.154   4.634
 6008SOL    HW118368   2.432   7.228   4.643
 6008SOL    HW218369   2.410   7.075   4.592
 6009SOL     OW18370   2.864   6.382   4.962
 6009SOL    HW118371   2.905   6.350   5.048
 6009SOL    HW218372   2.768   6.355   4.959
 6010SOL     OW18373   2.051   6.106   5.446
 6010SOL    HW118374   2.110   6.066   5.376
 6010SOL    HW218375   1.993   6.177   5.405
 6011SOL     OW18376   2.677   6.158   4.049
 6011SOL    HW118377   2.684   6.069   4.003
 6011SOL    HW218378   2.583   6.192   4.041
 6012SOL     OW18379   3.519   6.190   4.930
 6012SOL    HW118380   3.481   6.121   4.992
 6012SOL    HW218381   3.601   6.154   4.886
 6013SOL     OW18382   2.114   7.150   5.468
 6013SOL    HW118383   2.084   7.207   5.544
 6013SOL    HW218384   2.107   7.053   5.494
 6014SOL     OW18385   2.792   7.264   5.189
 6014SOL    HW118386   2.768   7.246   5.094
 6014SOL    HW218387   2.822   7.358   5.199
 6015SOL     OW18388   2.335   6.086   3.915
 6015SOL    HW118389   2.396   6.166   3.919
 6015SOL    HW218390   2.240   6.117   3.922
 6016SOL     OW18391   2.021   6.723   5.190
 6016SOL    HW118392   2.043   6.662   5.266
 6016SOL    HW218393   2.031   6.674   5.104
 6017SOL     OW18394   3.209   6.645   4.958
 6017SOL    HW118395   3.233   6.582   4.884
 6017SOL    HW218396   3.119   6.685   4.940
 6018SOL     OW18397   3.164   6.441   4.033
 6018SOL    HW118398   3.078   6.410   4.075
 6018SOL    HW218399   3.160   6.427   3.934
 6019SOL     OW18400   3.621   7.333   4.878
 6019SOL    HW118401   3.682   7.363   4.805
 6019SOL    HW218402   3.583   7.244   4.856
 6020SOL     OW18403   3.114   7.317   4.852
 6020SOL    HW118404   3.198   7.322   4.798
 6020SOL    HW218405   3.091   7.221   4.870
 6021SOL     OW18406   1.945   6.844   4.746
 6021SOL    HW118407   1.940   6.843   4.846
 6021SOL    HW218408   1.862   6.803   4.708
 6022SOL     OW18409   2.550   7.248   5.440
 6022SOL    HW118410   2.494   7.329   5.449
 6022SOL    HW218411   2.602   7.252   5.354
 6023SOL     OW18412   3.250   7.159   4.201
 6023SOL    HW118413   3.317   7.171   4.127
 6023SOL    HW218414   3.210   7.248   4.224
 6024SOL     OW18415   1.992   7.380   5.575
 6024SOL    HW118416   1.951   7.306   5.628
 6024SOL    HW218417   2.056   7.431   5.633
 6025SOL     OW18418   3.142   6.513   4.396
 6025SOL    HW118419   3.202   6.432   4.398
 6025SOL    HW218420   3.182   6.582   4.336
 6026SOL     OW18421   2.692   6.859   5.146
 6026SOL    HW118422   2.687   6.892   5.241
 6026SOL    HW218423   2.606   6.878   5.100
 6027SOL     OW18424   2.534   7.202   3.878
 6027SOL    HW118425   2.543   7.212   3.779
 6027SOL    HW218426   2.494   7.113   3.899
 6028SOL     OW18427   3.512   7.306   5.118
 6028SOL    HW118428   3.565   7.316   5.034
 6028SOL    HW218429   3.485   7.396   5.152
 6029SOL     OW18430   3.703   5.761   4.687
 6029SOL    HW118431   3.742   5.676   4.651
 6029SOL    HW218432   3.605   5.763   4.668
 6030SOL     OW18433   2.125   5.912   4.444
 6030SOL    HW118434   2.046   5.963   4.410
 6030SOL    HW218435   2.116   5.897   4.542
 6031SOL     OW18436   3.056   7.198   3.755
 6031SOL    HW118437   3.062   7.105   3.792
 6031SOL    HW218438   2.997   7.198   3.675
 6032SOL     OW18439   2.684   6.588   5.096
 6032SOL    HW118440   2.724   6.587   5.004
 6032SOL    HW218441   2.694   6.680   5.136
 6033SOL     OW18442   2.778   6.496   4.015
 6033SOL    HW118443   2.841   6.534   3.947
 6033SOL    HW218444   2.818   6.413   4.054
 6034SOL     OW18445   3.366   7.193   3.768
 6034SOL    HW118446   3.274   7.230   3.775
 6034SOL    HW218447   3.404   7.213   3.678
 6035SOL     OW18448   2.234   6.874   5.214
 6035SOL    HW118449   2.221   6.967   5.180
 6035SOL    HW218450   2.150   6.822   5.201
 6036SOL     OW18451   3.476   6.878   5.013
 6036SOL    HW118452   3.536   6.881   5.093
 6036SOL    HW218453   3.401   6.942   5.026
 6037SOL     OW18454   2.901   6.684   4.420
 6037SOL    HW118455   2.831   6.637   4.474
 6037SOL    HW218456   2.960   6.616   4.377
 6038SOL     OW18457   2.452   7.073   4.215
 6038SOL    HW118458   2.494   7.015   4.145
 6038SOL    HW218459   2.408   7.152   4.171
 6039SOL     OW18460   3.571   5.971   5.105
 6039SOL    HW118461   3.644   6.040   5.109
 6039SOL    HW218462   3.599   5.896   5.046
 6040SOL     OW18463   2.117   6.934   4.014
 6040SOL    HW118464   2.021   6.935   3.987
 6040SOL    HW218465   2.129   6.987   4.098
 6041SOL     OW18466   1.967   6.599   5.450
 6041SOL    HW118467   1.890   6.566   5.504
 6041SOL    HW218468   2.052   6.569   5.492
 6042SOL     OW18469   1.937   5.931   3.757
 6042SOL    HW118470   1.845   5.903   3.728
 6042SOL    HW218471   1.968   6.008   3.701
 6043SOL     OW18472   1.934   5.752   4.042
 6043SOL    HW118473   1.917   5.835   3.988
 6043SOL    HW218474   2.024   5.715   4.020
 6044SOL     OW18475   3.045   6.921   3.843
 6044SOL    HW118476   2.946   6.910   3.845
 6044SOL    HW218477   3.079   6.936   3.936
 6045SOL     OW18478   2.475   6.428   5.155
 6045SOL    HW118479   2.531   6.509   5.138
 6045SOL    HW218480   2.534   6.348   5.158
 6046SOL     OW18481   3.355   7.353   4.683
 6046SOL    HW118482   3.388   7.417   4.614
 6046SOL    HW218483   3.421   7.347   4.758
 6047SOL     OW18484   2.578   6.151   5.432
 6047SOL    HW118485   2.597   6.216   5.506
 6047SOL    HW218486   2.638   6.071   5.441
 6048SOL     OW18487   3.312   6.806   5.357
 6048SOL    HW118488   3.303   6.796   5.456
 6048SOL    HW218489   3.408   6.799   5.331
 6049SOL     OW18490   2.252   7.327   5.284
 6049SOL    HW118491   2.161   7.368   5.282
 6049SOL    HW218492   2.245   7.233   5.316
 6050SOL     OW18493   2.456   6.331   4.376
 6050SOL    HW118494   2.506   6.416   4.357
 6050SOL    HW218495   2.368   6.333   4.328
 6051SOL     OW18496   3.639   5.928   5.366
 6051SOL    HW118497   3.622   5.959   5.272
 6051SOL    HW218498   3.555   5.891   5.404
 6052SOL     OW18499   3.592   6.520   5.241
 6052SOL    HW118500   3.630   6.611   5.256
 6052SOL    HW218501   3.584   6.503   5.142
 6053SOL     OW18502   2.721   6.960   3.740
 6053SOL    HW118503   2.675   6.975   3.828
 6053SOL    HW218504   2.765   7.045   3.710
 6054SOL     OW18505   2.523   7.376   4.677
 6054SOL    HW118506   2.477   7.464   4.664
 6054SOL    HW218507   2.622   7.388   4.670
 6055SOL     OW18508   2.721   6.542   4.585
 6055SOL    HW118509   2.775   6.473   4.633
 6055SOL    HW218510   2.689   6.611   4.651
 6056SOL     OW18511   2.945   6.570   3.811
 6056SOL    HW118512   2.922   6.623   3.729
 6056SOL    HW218513   3.026   6.514   3.792
 6057SOL     OW18514   3.723   7.155   4.575
 6057SOL    HW118515   3.652   7.143   4.505
 6057SOL    HW218516   3.724   7.076   4.635
 6058SOL     OW18517   2.083   6.900   5.568
 6058SOL    HW118518   2.018   6.827   5.547
 6058SOL    HW218519   2.087   6.914   5.666
 6059SOL     OW18520   1.941   6.826   4.377
 6059SOL    HW118521   1.940   6.779   4.465
 6059SOL    HW218522   2.023   6.798   4.326
 6060SOL     OW18523   2.534   6.977   5.348
 6060SOL    HW118524   2.456   6.927   5.386
 6060SOL    HW218525   2.531   7.072   5.379
 6061SOL     OW18526   3.686   5.778   4.951
 6061SOL    HW118527   3.682   5.688   4.995
 6061SOL    HW218528   3.689   5.767   4.852
 6062SOL     OW18529   2.290   6.010   4.244
 6062SOL    HW118530   2.320   5.938   4.182
 6062SOL    HW218531   2.251   5.970   4.327
 6063SOL     OW18532   3.567   7.073   4.828
 6063SOL    HW118533   3.474   7.048   4.801
 6063SOL    HW218534   3.593   7.023   4.910
 6064SOL     OW18535   2.674   7.172   4.411
 6064SOL    HW118536   2.706   7.182   4.317
 6064SOL    HW218537   2.595   7.110   4.413
 6065SOL     OW18538   2.863   5.620   4.878
 6065SOL    HW118539   2.800   5.548   4.847
 6065SOL    HW218540   2.956   5.584   4.878
 6066SOL     OW18541   2.632   6.916   4.025
 6066SOL    HW118542   2.586   6.829   4.042
 6066SOL    HW218543   2.723   6.913   4.066
 6067SOL     OW18544   2.480   7.153   5.008
 6067SOL    HW118545   2.475   7.235   5.065
 6067SOL    HW218546   2.569   7.150   4.963
 6068SOL     OW18547   3.214   5.638   3.892
 6068SOL    HW118548   3.249   5.597   3.808
 6068SOL    HW218549   3.124   5.600   3.912
 6069SOL     OW18550   3.162   6.039   4.415
 6069SOL    HW118551   3.103   6.119   4.419
 6069SOL    HW218552   3.177   6.004   4.508
 6070SOL     OW18553   3.455   5.807   4.606
 6070SOL    HW118554   3.371   5.806   4.660
 6070SOL    HW218555   3.457   5.890   4.550
 6071SOL     OW18556   1.901   6.663   4.024
 6071SOL    HW118557   2.000   6.652   4.015
 6071SOL    HW218558   1.861   6.577   4.056
 6072SOL     OW18559   2.737   7.232   4.061
 6072SOL    HW118560   2.660   7.197   4.007
 6072SOL    HW218561   2.705   7.303   4.123
 6073SOL     OW18562   2.092   6.214   5.699
 6073SOL    HW118563   1.999   6.212   5.736
 6073SOL    HW218564   2.093   6.175   5.607
 6074SOL     OW18565   2.087   5.861   6.582
 6074SOL    HW118566   2.122   5.844   6.674
 6074SOL    HW218567   1.999   5.816   6.570
 6075SOL     OW18568   1.881   5.954   6.233
 6075SOL    HW118569   1.799   5.997   6.272
 6075SOL    HW218570   1.853   5.881   6.170
 6076SOL     OW18571   2.431   6.861   6.751
 6076SOL    HW118572   2.338   6.854   6.714
 6076SOL    HW218573   2.442   6.950   6.795
 6077SOL     OW18574   3.417   7.097   6.289
 6077SOL    HW118575   3.360   7.081   6.370
 6077SOL    HW218576   3.358   7.107   6.209
 6078SOL     OW18577   2.997   6.289   6.303
 6078SOL    HW118578   3.054   6.367   6.278
 6078SOL    HW218579   2.937   6.315   6.379
 6079SOL     OW18580   3.617   6.193   5.817
 6079SOL    HW118581   3.605   6.180   5.718
 6079SOL    HW218582   3.587   6.112   5.866
 6080SOL     OW18583   2.630   6.730   6.609
 6080SOL    HW118584   2.552   6.747   6.669
 6080SOL    HW218585   2.664   6.817   6.573
 6081SOL     OW18586   2.547   6.598   6.251
 6081SOL    HW118587   2.616   6.582   6.321
 6081SOL    HW218588   2.474   6.655   6.289
 6082SOL     OW18589   2.197   7.021   6.647
 6082SOL    HW118590   2.119   6.990   6.594
 6082SOL    HW218591   2.255   7.079   6.590
 6083SOL     OW18592   3.465   6.033   6.323
 6083SOL    HW118593   3.391   6.079   6.273
 6083SOL    HW218594   3.516   6.101   6.376
 6084SOL     OW18595   2.093   7.299   6.069
 6084SOL    HW118596   2.127   7.376   6.123
 6084SOL    HW218597   2.137   7.299   5.979
 6085SOL     OW18598   2.092   7.020   6.124
 6085SOL    HW118599   2.066   7.116   6.124
 6085SOL    HW218600   2.021   6.966   6.169
 6086SOL     OW18601   2.102   6.677   6.472
 6086SOL    HW118602   2.116   6.593   6.524
 6086SOL    HW218603   2.047   6.741   6.527
 6087SOL     OW18604   2.468   6.550   5.709
 6087SOL    HW118605   2.475   6.634   5.655
 6087SOL    HW218606   2.514   6.563   5.797
 6088SOL     OW18607   1.984   6.229   6.149
 6088SOL    HW118608   1.939   6.141   6.166
 6088SOL    HW218609   1.983   6.283   6.233
 6089SOL     OW18610   3.704   7.353   5.945
 6089SOL    HW118611   3.758   7.324   6.025
 6089SOL    HW218612   3.734   7.443   5.916
 6090SOL     OW18613   1.889   7.182   5.703
 6090SOL    HW118614   1.870   7.086   5.724
 6090SOL    HW218615   1.856   7.240   5.778
 6091SOL     OW18616   3.551   6.508   6.198
 6091SOL    HW118617   3.646   6.479   6.206
 6091SOL    HW218618   3.543   6.573   6.123
 6092SOL     OW18619   3.503   6.694   6.018
 6092SOL    HW118620   3.589   6.696   5.966
 6092SOL    HW218621   3.517   6.741   6.106
 6093SOL     OW18622   2.475   6.951   6.312
 6093SOL    HW118623   2.426   6.864   6.321
 6093SOL    HW218624   2.452   6.994   6.225
 6094SOL     OW18625   2.671   5.590   6.088
 6094SOL    HW118626   2.711   5.681   6.079
 6094SOL    HW218627   2.571   5.598   6.094
 6095SOL     OW18628   3.387   6.585   5.776
 6095SOL    HW118629   3.324   6.509   5.789
 6095SOL    HW218630   3.435   6.603   5.862
 6096SOL     OW18631   3.328   7.003   6.539
 6096SOL    HW118632   3.269   7.009   6.619
 6096SOL    HW218633   3.313   6.915   6.493
 6097SOL     OW18634   3.529   7.300   6.158
 6097SOL    HW118635   3.488   7.277   6.070
 6097SOL    HW218636   3.511   7.226   6.223
 6098SOL     OW18637   2.460   6.315   5.856
 6098SOL    HW118638   2.484   6.384   5.788
 6098SOL    HW218639   2.382   6.348   5.910
 6099SOL     OW18640   3.143   5.931   6.530
 6099SOL    HW118641   3.057   5.881   6.517
 6099SOL    HW218642   3.205   5.877   6.586
 6100SOL     OW18643   3.438   7.248   5.893
 6100SOL    HW118644   3.527   7.294   5.896
 6100SOL    HW218645   3.417   7.224   5.798
 6101SOL     OW18646   2.853   5.996   6.828
 6101SOL    HW118647   2.776   6.030   6.882
 6101SOL    HW218648   2.819   5.945   6.749
 6102SOL     OW18649   2.903   6.287   6.015
 6102SOL    HW118650   2.929   6.283   6.111
 6102SOL    HW218651   2.818   6.236   6.001
 6103SOL     OW18652   1.938   6.397   6.375
 6103SOL    HW118653   2.037   6.385   6.384
 6103SOL    HW218654   1.914   6.492   6.396
 6104SOL     OW18655   2.727   5.934   5.781
 6104SOL    HW118656   2.786   5.997   5.732
 6104SOL    HW218657   2.746   5.840   5.752
 6105SOL     OW18658   3.224   6.730   6.131
 6105SOL    HW118659   3.307   6.701   6.083
 6105SOL    HW218660   3.175   6.797   6.075
 6106SOL     OW18661   2.412   5.782   6.471
 6106SOL    HW118662   2.407   5.777   6.571
 6106SOL    HW218663   2.414   5.878   6.442
 6107SOL     OW18664   2.870   7.042   6.063
 6107SOL    HW118665   2.824   7.114   6.011
 6107SOL    HW218666   2.866   7.062   6.161
 6108SOL     OW18667   2.213   7.387   6.439
 6108SOL    HW118668   2.263   7.301   6.445
 6108SOL    HW218669   2.278   7.464   6.436
 6109SOL     OW18670   3.657   6.652   6.459
 6109SOL    HW118671   3.595   6.637   6.383
 6109SOL    HW218672   3.605   6.663   6.544
 6110SOL     OW18673   2.183   6.529   5.828
 6110SOL    HW118674   2.265   6.568   5.786
 6110SOL    HW218675   2.156   6.447   5.779
 6111SOL     OW18676   3.320   6.321   6.314
 6111SOL    HW118677   3.315   6.256   6.389
 6111SOL    HW218678   3.400   6.380   6.327
 6112SOL     OW18679   3.494   6.963   5.667
 6112SOL    HW118680   3.462   7.057   5.657
 6112SOL    HW218681   3.418   6.900   5.655
 6113SOL     OW18682   2.326   7.329   5.909
 6113SOL    HW118683   2.359   7.368   5.995
 6113SOL    HW218684   2.402   7.322   5.844
 6114SOL     OW18685   3.262   5.693   6.012
 6114SOL    HW118686   3.238   5.656   5.922
 6114SOL    HW218687   3.361   5.709   6.016
 6115SOL     OW18688   2.111   7.371   6.827
 6115SOL    HW118689   2.168   7.306   6.877
 6115SOL    HW218690   2.095   7.338   6.734
 6116SOL     OW18691   2.802   7.284   6.490
 6116SOL    HW118692   2.882   7.227   6.511
 6116SOL    HW218693   2.753   7.244   6.413
 6117SOL     OW18694   2.244   6.286   6.066
 6117SOL    HW118695   2.289   6.196   6.063
 6117SOL    HW218696   2.150   6.275   6.099
 6118SOL     OW18697   2.476   5.708   5.703
 6118SOL    HW118698   2.574   5.686   5.710
 6118SOL    HW218699   2.445   5.691   5.610
 6119SOL     OW18700   2.750   7.100   6.781
 6119SOL    HW118701   2.727   7.075   6.687
 6119SOL    HW218702   2.811   7.031   6.820
 6120SOL     OW18703   2.665   6.988   6.510
 6120SOL    HW118704   2.755   7.002   6.468
 6120SOL    HW218705   2.594   6.990   6.439
 6121SOL     OW18706   2.784   6.089   6.485
 6121SOL    HW118707   2.759   6.080   6.389
 6121SOL    HW218708   2.832   6.007   6.516
 6122SOL     OW18709   2.401   5.650   6.098
 6122SOL    HW118710   2.320   5.651   6.156
 6122SOL    HW218711   2.404   5.733   6.043
 6123SOL     OW18712   3.296   6.774   5.627
 6123SOL    HW118713   3.328   6.698   5.684
 6123SOL    HW218714   3.204   6.801   5.657
 6124SOL     OW18715   2.159   5.621   5.757
 6124SOL    HW118716   2.208   5.705   5.736
 6124SOL    HW218717   2.221   5.556   5.802
 6125SOL     OW18718   2.797   5.822   6.066
 6125SOL    HW118719   2.749   5.863   5.988
 6125SOL    HW218720   2.896   5.820   6.047
 6126SOL     OW18721   3.089   7.156   6.379
 6126SOL    HW118722   3.110   7.230   6.314
 6126SOL    HW218723   3.157   7.156   6.452
 6127SOL     OW18724   2.321   6.738   6.327
 6127SOL    HW118725   2.250   6.711   6.392
 6127SOL    HW218726   2.295   6.710   6.234
 6128SOL     OW18727   2.894   6.135   5.602
 6128SOL    HW118728   2.853   6.217   5.563
 6128SOL    HW218729   2.958   6.161   5.675
 6129SOL     OW18730   2.423   5.808   6.733
 6129SOL    HW118731   2.461   5.724   6.770
 6129SOL    HW218732   2.335   5.827   6.777
 6130SOL     OW18733   2.728   6.040   6.228
 6130SOL    HW118734   2.696   6.112   6.166
 6130SOL    HW218735   2.752   5.959   6.175
 6131SOL     OW18736   2.879   5.625   6.339
 6131SOL    HW118737   2.807   5.630   6.270
 6131SOL    HW218738   2.855   5.556   6.408
 6132SOL     OW18739   3.291   6.759   6.453
 6132SOL    HW118740   3.236   6.675   6.446
 6132SOL    HW218741   3.317   6.788   6.361
 6133SOL     OW18742   3.328   6.176   6.578
 6133SOL    HW118743   3.298   6.081   6.585
 6133SOL    HW218744   3.401   6.192   6.644
 6134SOL     OW18745   3.719   6.419   5.963
 6134SOL    HW118746   3.761   6.355   6.027
 6134SOL    HW218747   3.681   6.368   5.885
 6135SOL     OW18748   2.350   6.971   5.760
 6135SOL    HW118749   2.263   6.956   5.807
 6135SOL    HW218750   2.333   6.997   5.665
 6136SOL     OW18751   3.526   6.866   6.243
 6136SOL    HW118752   3.625   6.874   6.257
 6136SOL    HW218753   3.481   6.950   6.274
 6137SOL     OW18754   3.252   6.161   5.664
 6137SOL    HW118755   3.198   6.140   5.745
 6137SOL    HW218756   3.343   6.120   5.673
 6138SOL     OW18757   2.389   5.842   5.914
 6138SOL    HW118758   2.416   5.783   5.839
 6138SOL    HW218759   2.389   5.937   5.883
 6139SOL     OW18760   2.973   6.781   6.686
 6139SOL    HW118761   2.933   6.825   6.767
 6139SOL    HW218762   2.932   6.818   6.603
 6140SOL     OW18763   3.500   6.685   6.665
 6140SOL    HW118764   3.505   6.766   6.724
 6140SOL    HW218765   3.414   6.687   6.614
 6141SOL     OW18766   2.567   6.636   5.954
 6141SOL    HW118767   2.553   6.643   6.053
 6141SOL    HW218768   2.651   6.585   5.936
 6142SOL     OW18769   2.229   6.686   6.087
 6142SOL    HW118770   2.222   6.769   6.031
 6142SOL    HW218771   2.233   6.606   6.027
 6143SOL     OW18772   2.428   6.123   6.451
 6143SOL    HW118773   2.440   6.189   6.377
 6143SOL    HW218774   2.474   6.157   6.534
 6144SOL     OW18775   3.114   6.934   5.974
 6144SOL    HW118776   3.164   7.011   6.014
 6144SOL    HW218777   3.019   6.936   6.006
 6145SOL     OW18778   3.134   7.031   6.728
 6145SOL    HW118779   3.181   7.044   6.815
 6145SOL    HW218780   3.068   6.957   6.737
 6146SOL     OW18781   3.444   6.225   6.058
 6146SOL    HW118782   3.413   6.286   6.131
 6146SOL    HW218783   3.494   6.277   5.989
 6147SOL     OW18784   2.435   6.456   6.615
 6147SOL    HW118785   2.479   6.545   6.606
 6147SOL    HW218786   2.372   6.456   6.692
 6148SOL     OW18787   3.222   6.448   6.631
 6148SOL    HW118788   3.147   6.448   6.565
 6148SOL    HW218789   3.259   6.356   6.640
 6149SOL     OW18790   3.071   6.111   5.861
 6149SOL    HW118791   3.084   6.027   5.915
 6149SOL    HW218792   3.042   6.185   5.921
 6150SOL     OW18793   2.594   6.220   6.650
 6150SOL    HW118794   2.653   6.194   6.574
 6150SOL    HW218795   2.566   6.316   6.639
 6151SOL     OW18796   2.169   5.649   6.204
 6151SOL    HW118797   2.158   5.743   6.237
 6151SOL    HW218798   2.164   5.586   6.281
 6152SOL     OW18799   3.484   5.953   5.960
 6152SOL    HW118800   3.486   5.877   6.024
 6152SOL    HW218801   3.436   6.030   6.000
 6153SOL     OW18802   2.885   6.352   6.552
 6153SOL    HW118803   2.900   6.373   6.648
 6153SOL    HW218804   2.855   6.257   6.543
 6154SOL     OW18805   3.402   5.860   5.711
 6154SOL    HW118806   3.341   5.785   5.734
 6154SOL    HW218807   3.424   5.912   5.794
 6155SOL     OW18808   3.165   6.424   5.628
 6155SOL    HW118809   3.199   6.331   5.643
 6155SOL    HW218810   3.183   6.451   5.533
 6156SOL     OW18811   2.930   6.919   6.435
 6156SOL    HW118812   2.937   6.835   6.380
 6156SOL    HW218813   2.992   6.988   6.399
 6157SOL     OW18814   2.181   6.396   6.535
 6157SOL    HW118815   2.274   6.432   6.540
 6157SOL    HW218816   2.175   6.311   6.587
 6158SOL     OW18817   2.201   6.095   6.592
 6158SOL    HW118818   2.149   6.012   6.575
 6158SOL    HW218819   2.278   6.100   6.528
 6159SOL     OW18820   1.870   6.912   5.786
 6159SOL    HW118821   1.777   6.933   5.755
 6159SOL    HW218822   1.880   6.813   5.799
 6160SOL     OW18823   1.950   7.387   6.513
 6160SOL    HW118824   1.908   7.301   6.486
 6160SOL    HW218825   2.044   7.390   6.479
 6161SOL     OW18826   2.366   7.154   6.496
 6161SOL    HW118827   2.432   7.228   6.505
 6161SOL    HW218828   2.410   7.075   6.454
 6162SOL     OW18829   1.902   6.130   6.700
 6162SOL    HW118830   1.987   6.097   6.659
 6162SOL    HW218831   1.915   6.145   6.798
 6163SOL     OW18832   2.677   6.158   5.911
 6163SOL    HW118833   2.684   6.069   5.865
 6163SOL    HW218834   2.583   6.192   5.903
 6164SOL     OW18835   3.519   6.190   6.792
 6164SOL    HW118836   3.481   6.121   6.854
 6164SOL    HW218837   3.601   6.154   6.748
 6165SOL     OW18838   2.533   6.050   6.855
 6165SOL    HW118839   2.499   5.961   6.825
 6165SOL    HW218840   2.559   6.104   6.775
 6166SOL     OW18841   2.335   6.086   5.777
 6166SOL    HW118842   2.396   6.166   5.781
 6166SOL    HW218843   2.240   6.117   5.784
 6167SOL     OW18844   3.209   6.645   6.820
 6167SOL    HW118845   3.233   6.582   6.746
 6167SOL    HW218846   3.119   6.685   6.802
 6168SOL     OW18847   3.164   6.441   5.895
 6168SOL    HW118848   3.078   6.410   5.937
 6168SOL    HW218849   3.160   6.427   5.796
 6169SOL     OW18850   3.621   7.333   6.740
 6169SOL    HW118851   3.682   7.363   6.667
 6169SOL    HW218852   3.583   7.244   6.718
 6170SOL     OW18853   3.114   7.317   6.714
 6170SOL    HW118854   3.198   7.322   6.660
 6170SOL    HW218855   3.091   7.221   6.732
 6171SOL     OW18856   1.945   6.844   6.608
 6171SOL    HW118857   1.940   6.843   6.708
 6171SOL    HW218858   1.862   6.803   6.570
 6172SOL     OW18859   3.588   5.721   6.109
 6172SOL    HW118860   3.661   5.704   6.042
 6172SOL    HW218861   3.557   5.634   6.147
 6173SOL     OW18862   3.250   7.159   6.063
 6173SOL    HW118863   3.317   7.171   5.989
 6173SOL    HW218864   3.210   7.248   6.086
 6174SOL     OW18865   3.142   6.513   6.258
 6174SOL    HW118866   3.202   6.432   6.260
 6174SOL    HW218867   3.182   6.582   6.198
 6175SOL     OW18868   2.534   7.202   5.740
 6175SOL    HW118869   2.543   7.212   5.641
 6175SOL    HW218870   2.494   7.113   5.761
 6176SOL     OW18871   3.703   5.761   6.549
 6176SOL    HW118872   3.742   5.676   6.513
 6176SOL    HW218873   3.605   5.763   6.530
 6177SOL     OW18874   2.125   5.912   6.306
 6177SOL    HW118875   2.046   5.963   6.272
 6177SOL    HW218876   2.116   5.897   6.404
 6178SOL     OW18877   3.056   7.198   5.617
 6178SOL    HW118878   3.062   7.105   5.654
 6178SOL    HW218879   2.997   7.198   5.537
 6179SOL     OW18880   2.778   6.496   5.877
 6179SOL    HW118881   2.841   6.534   5.809
 6179SOL    HW218882   2.818   6.413   5.916
 6180SOL     OW18883   3.366   7.193   5.630
 6180SOL    HW118884   3.274   7.230   5.637
 6180SOL    HW218885   3.404   7.213   5.540
 6181SOL     OW18886   2.901   6.684   6.282
 6181SOL    HW118887   2.831   6.637   6.336
 6181SOL    HW218888   2.960   6.616   6.239
 6182SOL     OW18889   2.876   5.822   6.557
 6182SOL    HW118890   2.868   5.786   6.464
 6182SOL    HW218891   2.874   5.746   6.622
 6183SOL     OW18892   2.452   7.073   6.077
 6183SOL    HW118893   2.494   7.015   6.007
 6183SOL    HW218894   2.408   7.152   6.033
 6184SOL     OW18895   2.117   6.934   5.876
 6184SOL    HW118896   2.021   6.935   5.849
 6184SOL    HW218897   2.129   6.987   5.960
 6185SOL     OW18898   1.937   5.931   5.619
 6185SOL    HW118899   1.845   5.903   5.590
 6185SOL    HW218900   1.968   6.008   5.563
 6186SOL     OW18901   1.934   5.752   5.904
 6186SOL    HW118902   1.917   5.835   5.850
 6186SOL    HW218903   2.024   5.715   5.882
 6187SOL     OW18904   3.045   6.921   5.705
 6187SOL    HW118905   2.946   6.910   5.707
 6187SOL    HW218906   3.079   6.936   5.798
 6188SOL     OW18907   3.355   7.353   6.545
 6188SOL    HW118908   3.388   7.417   6.476
 6188SOL    HW218909   3.421   7.347   6.620
 6189SOL     OW18910   3.536   6.469   6.840
 6189SOL    HW118911   3.509   6.380   6.803
 6189SOL    HW218912   3.537   6.537   6.767
 6190SOL     OW18913   3.087   5.911   6.035
 6190SOL    HW118914   3.152   5.837   6.024
 6190SOL    HW218915   3.107   5.961   6.119
 6191SOL     OW18916   2.456   6.331   6.238
 6191SOL    HW118917   2.506   6.416   6.219
 6191SOL    HW218918   2.368   6.333   6.190
 6192SOL     OW18919   2.721   6.960   5.602
 6192SOL    HW118920   2.675   6.975   5.690
 6192SOL    HW218921   2.765   7.045   5.572
 6193SOL     OW18922   2.523   7.376   6.539
 6193SOL    HW118923   2.477   7.464   6.526
 6193SOL    HW218924   2.622   7.388   6.532
 6194SOL     OW18925   2.721   6.542   6.447
 6194SOL    HW118926   2.775   6.473   6.495
 6194SOL    HW218927   2.689   6.611   6.513
 6195SOL     OW18928   2.945   6.570   5.673
 6195SOL    HW118929   2.922   6.623   5.591
 6195SOL    HW218930   3.026   6.514   5.654
 6196SOL     OW18931   1.941   6.826   6.239
 6196SOL    HW118932   1.940   6.779   6.327
 6196SOL    HW218933   2.023   6.798   6.188
 6197SOL     OW18934   3.686   5.778   6.813
 6197SOL    HW118935   3.682   5.688   6.857
 6197SOL    HW218936   3.689   5.767   6.714
 6198SOL     OW18937   2.290   6.010   6.106
 6198SOL    HW118938   2.320   5.938   6.044
 6198SOL    HW218939   2.251   5.970   6.189
 6199SOL     OW18940   3.567   7.073   6.690
 6199SOL    HW118941   3.474   7.048   6.663
 6199SOL    HW218942   3.593   7.023   6.772
 6200SOL     OW18943   2.179   6.133   6.866
 6200SOL    HW118944   2.217   6.074   6.938
 6200SOL    HW218945   2.219   6.107   6.778
 6201SOL     OW18946   2.674   7.172   6.273
 6201SOL    HW118947   2.706   7.182   6.179
 6201SOL    HW218948   2.595   7.110   6.275
 6202SOL     OW18949   3.286   5.800   6.698
 6202SOL    HW118950   3.338   5.735   6.753
 6202SOL    HW218951   3.237   5.863   6.759
 6203SOL     OW18952   2.863   5.620   6.740
 6203SOL    HW118953   2.800   5.548   6.709
 6203SOL    HW218954   2.956   5.584   6.740
 6204SOL     OW18955   2.632   6.916   5.887
 6204SOL    HW118956   2.586   6.829   5.904
 6204SOL    HW218957   2.723   6.913   5.928
 6205SOL     OW18958   3.214   5.638   5.754
 6205SOL    HW118959   3.249   5.597   5.670
 6205SOL    HW218960   3.124   5.600   5.774
 6206SOL     OW18961   3.162   6.039   6.277
 6206SOL    HW118962   3.103   6.119   6.281
 6206SOL    HW218963   3.177   6.004   6.370
 6207SOL     OW18964   3.455   5.807   6.468
 6207SOL    HW118965   3.371   5.806   6.522
 6207SOL    HW218966   3.457   5.890   6.412
 6208SOL     OW18967   1.901   6.663   5.886
 6208SOL    HW118968   2.000   6.652   5.877
 6208SOL    HW218969   1.861   6.577   5.918
 6209SOL     OW18970   2.737   7.232   5.923
 6209SOL    HW118971   2.660   7.197   5.869
 6209SOL    HW218972   2.705   7.303   5.985
 6210SOL     OW18973   2.087   7.723   0.996
 6210SOL    HW118974   2.122   7.706   1.088
 6210SOL    HW218975   1.999   7.678   0.984
 6211SOL     OW18976   1.881   7.816   0.647
 6211SOL    HW118977   1.799   7.859   0.686
 6211SOL    HW218978   1.853   7.743   0.584
 6212SOL     OW18979   2.300   7.840   1.499
 6212SOL    HW118980   2.382   7.784   1.508
 6212SOL    HW218981   2.219   7.782   1.503
 6213SOL     OW18982   2.671   7.452   0.502
 6213SOL    HW118983   2.711   7.543   0.493
 6213SOL    HW218984   2.571   7.460   0.508
 6214SOL     OW18985   2.179   7.699   1.801
 6214SOL    HW118986   2.250   7.770   1.807
 6214SOL    HW218987   2.091   7.738   1.829
 6215SOL     OW18988   2.412   7.644   0.885
 6215SOL    HW118989   2.407   7.639   0.985
 6215SOL    HW218990   2.414   7.740   0.856
 6216SOL     OW18991   2.064   7.733   1.498
 6216SOL    HW118992   1.984   7.793   1.485
 6216SOL    HW218993   2.054   7.684   1.584
 6217SOL     OW18994   2.476   7.570   0.117
 6217SOL    HW118995   2.574   7.548   0.124
 6217SOL    HW218996   2.445   7.553   0.024
 6218SOL     OW18997   2.643   7.712   1.749
 6218SOL    HW118998   2.710   7.651   1.792
 6218SOL    HW218999   2.570   7.731   1.814
 6219SOL     OW19000   2.401   7.512   0.512
 6219SOL    HW119001   2.320   7.513   0.570
 6219SOL    HW219002   2.404   7.595   0.457
 6220SOL     OW19003   2.159   7.483   0.171
 6220SOL    HW119004   2.208   7.567   0.150
 6220SOL    HW219005   2.221   7.418   0.216
 6221SOL     OW19006   2.423   7.670   1.147
 6221SOL    HW119007   2.461   7.586   1.184
 6221SOL    HW219008   2.335   7.689   1.191
 6222SOL     OW19009   2.389   7.704   0.328
 6222SOL    HW119010   2.416   7.645   0.253
 6222SOL    HW219011   2.389   7.799   0.297
 6223SOL     OW19012   2.777   7.537   1.402
 6223SOL    HW119013   2.802   7.517   1.307
 6223SOL    HW219014   2.849   7.593   1.444
 6224SOL     OW19015   2.875   7.553   1.770
 6224SOL    HW119016   2.881   7.638   1.718
 6224SOL    HW219017   2.907   7.477   1.713
 6225SOL     OW19018   2.366   7.498   1.740
 6225SOL    HW119019   2.324   7.441   1.670
 6225SOL    HW219020   2.300   7.567   1.772
 6226SOL     OW19021   2.169   7.661   1.231
 6226SOL    HW119022   2.146   7.698   1.321
 6226SOL    HW219023   2.139   7.566   1.225
 6227SOL     OW19024   2.169   7.511   0.618
 6227SOL    HW119025   2.158   7.605   0.651
 6227SOL    HW219026   2.164   7.448   0.695
 6228SOL     OW19027   3.022   7.655   1.477
 6228SOL    HW119028   3.022   7.719   1.554
 6228SOL    HW219029   3.050   7.703   1.394
 6229SOL     OW19030   2.765   7.534   0.133
 6229SOL    HW119031   2.816   7.535   0.047
 6229SOL    HW219032   2.821   7.492   0.204
 6230SOL     OW19033   2.125   7.774   0.720
 6230SOL    HW119034   2.046   7.825   0.686
 6230SOL    HW219035   2.116   7.759   0.818
 6231SOL     OW19036   2.534   7.651   1.489
 6231SOL    HW119037   2.624   7.635   1.449
 6231SOL    HW219038   2.542   7.656   1.588
 6232SOL     OW19039   1.937   7.793   0.033
 6232SOL    HW119040   1.845   7.765   0.004
 6232SOL    HW219041   1.968   7.870  -0.023
 6233SOL     OW19042   1.934   7.614   0.318
 6233SOL    HW119043   1.917   7.697   0.264
 6233SOL    HW219044   2.024   7.577   0.296
 6234SOL     OW19045   2.863   7.482   1.154
 6234SOL    HW119046   2.800   7.410   1.123
 6234SOL    HW219047   2.956   7.446   1.154
 6235SOL     OW19048   3.455   7.669   0.882
 6235SOL    HW119049   3.371   7.668   0.936
 6235SOL    HW219050   3.457   7.752   0.826
 6236SOL     OW19051   2.087   7.723   2.858
 6236SOL    HW119052   2.122   7.706   2.950
 6236SOL    HW219053   1.999   7.678   2.846
 6237SOL     OW19054   1.881   7.816   2.509
 6237SOL    HW119055   1.799   7.859   2.548
 6237SOL    HW219056   1.853   7.743   2.446
 6238SOL     OW19057   2.300   7.840   3.361
 6238SOL    HW119058   2.382   7.784   3.370
 6238SOL    HW219059   2.219   7.782   3.365
 6239SOL     OW19060   2.671   7.452   2.364
 6239SOL    HW119061   2.711   7.543   2.355
 6239SOL    HW219062   2.571   7.460   2.370
 6240SOL     OW19063   2.179   7.699   3.663
 6240SOL    HW119064   2.250   7.770   3.669
 6240SOL    HW219065   2.091   7.738   3.691
 6241SOL     OW19066   2.412   7.644   2.747
 6241SOL    HW119067   2.407   7.639   2.847
 6241SOL    HW219068   2.414   7.740   2.718
 6242SOL     OW19069   2.064   7.733   3.360
 6242SOL    HW119070   1.984   7.793   3.347
 6242SOL    HW219071   2.054   7.684   3.446
 6243SOL     OW19072   2.476   7.570   1.979
 6243SOL    HW119073   2.574   7.548   1.986
 6243SOL    HW219074   2.445   7.553   1.886
 6244SOL     OW19075   2.643   7.712   3.611
 6244SOL    HW119076   2.710   7.651   3.654
 6244SOL    HW219077   2.570   7.731   3.676
 6245SOL     OW19078   2.401   7.512   2.374
 6245SOL    HW119079   2.320   7.513   2.432
 6245SOL    HW219080   2.404   7.595   2.319
 6246SOL     OW19081   2.159   7.483   2.033
 6246SOL    HW119082   2.208   7.567   2.012
 6246SOL    HW219083   2.221   7.418   2.078
 6247SOL     OW19084   2.423   7.670   3.009
 6247SOL    HW119085   2.461   7.586   3.046
 6247SOL    HW219086   2.335   7.689   3.053
 6248SOL     OW19087   2.389   7.704   2.190
 6248SOL    HW119088   2.416   7.645   2.115
 6248SOL    HW219089   2.389   7.799   2.159
 6249SOL     OW19090   2.777   7.537   3.264
 6249SOL    HW119091   2.802   7.517   3.169
 6249SOL    HW219092   2.849   7.593   3.306
 6250SOL     OW19093   2.875   7.553   3.632
 6250SOL    HW119094   2.881   7.638   3.580
 6250SOL    HW219095   2.907   7.477   3.575
 6251SOL     OW19096   2.366   7.498   3.602
 6251SOL    HW119097   2.324   7.441   3.532
 6251SOL    HW219098   2.300   7.567   3.634
 6252SOL     OW19099   2.169   7.661   3.093
 6252SOL    HW119100   2.146   7.698   3.183
 6252SOL    HW219101   2.139   7.566   3.087
 6253SOL     OW19102   2.169   7.511   2.480
 6253SOL    HW119103   2.158   7.605   2.513
 6253SOL    HW219104   2.164   7.448   2.557
 6254SOL     OW19105   3.022   7.655   3.339
 6254SOL    HW119106   3.022   7.719   3.416
 6254SOL    HW219107   3.050   7.703   3.256
 6255SOL     OW19108   2.125   7.774   2.582
 6255SOL    HW119109   2.046   7.825   2.548
 6255SOL    HW219110   2.116   7.759   2.680
 6256SOL     OW19111   2.534   7.651   3.351
 6256SOL    HW119112   2.624   7.635   3.311
 6256SOL    HW219113   2.542   7.656   3.450
 6257SOL     OW19114   1.937   7.793   1.895
 6257SOL    HW119115   1.845   7.765   1.866
 6257SOL    HW219116   1.968   7.870   1.839
 6258SOL     OW19117   1.934   7.614   2.180
 6258SOL    HW119118   1.917   7.697   2.126
 6258SOL    HW219119   2.024   7.577   2.158
 6259SOL     OW19120   2.863   7.482   3.016
 6259SOL    HW119121   2.800   7.410   2.985
 6259SOL    HW219122   2.956   7.446   3.016
 6260SOL     OW19123   3.455   7.669   2.744
 6260SOL    HW119124   3.371   7.668   2.798
 6260SOL    HW219125   3.457   7.752   2.688
 6261SOL     OW19126   2.087   7.723   4.720
 6261SOL    HW119127   2.122   7.706   4.812
 6261SOL    HW219128   1.999   7.678   4.708
 6262SOL     OW19129   1.881   7.816   4.371
 6262SOL    HW119130   1.799   7.859   4.410
 6262SOL    HW219131   1.853   7.743   4.308
 6263SOL     OW19132   2.300   7.840   5.223
 6263SOL    HW119133   2.382   7.784   5.232
 6263SOL    HW219134   2.219   7.782   5.227
 6264SOL     OW19135   2.671   7.452   4.226
 6264SOL    HW119136   2.711   7.543   4.217
 6264SOL    HW219137   2.571   7.460   4.232
 6265SOL     OW19138   2.179   7.699   5.525
 6265SOL    HW119139   2.250   7.770   5.531
 6265SOL    HW219140   2.091   7.738   5.553
 6266SOL     OW19141   2.412   7.644   4.609
 6266SOL    HW119142   2.407   7.639   4.709
 6266SOL    HW219143   2.414   7.740   4.580
 6267SOL     OW19144   2.064   7.733   5.222
 6267SOL    HW119145   1.984   7.793   5.209
 6267SOL    HW219146   2.054   7.684   5.308
 6268SOL     OW19147   2.643   7.712   5.473
 6268SOL    HW119148   2.710   7.651   5.516
 6268SOL    HW219149   2.570   7.731   5.538
 6269SOL     OW19150   2.401   7.512   4.236
 6269SOL    HW119151   2.320   7.513   4.294
 6269SOL    HW219152   2.404   7.595   4.181
 6270SOL     OW19153   2.159   7.483   3.895
 6270SOL    HW119154   2.208   7.567   3.874
 6270SOL    HW219155   2.221   7.418   3.940
 6271SOL     OW19156   2.423   7.670   4.871
 6271SOL    HW119157   2.461   7.586   4.908
 6271SOL    HW219158   2.335   7.689   4.915
 6272SOL     OW19159   2.389   7.704   4.052
 6272SOL    HW119160   2.416   7.645   3.977
 6272SOL    HW219161   2.389   7.799   4.021
 6273SOL     OW19162   2.777   7.537   5.126
 6273SOL    HW119163   2.802   7.517   5.031
 6273SOL    HW219164   2.849   7.593   5.168
 6274SOL     OW19165   2.875   7.553   5.494
 6274SOL    HW119166   2.881   7.638   5.442
 6274SOL    HW219167   2.907   7.477   5.437
 6275SOL     OW19168   2.366   7.498   5.464
 6275SOL    HW119169   2.324   7.441   5.394
 6275SOL    HW219170   2.300   7.567   5.496
 6276SOL     OW19171   2.169   7.661   4.955
 6276SOL    HW119172   2.146   7.698   5.045
 6276SOL    HW219173   2.139   7.566   4.949
 6277SOL     OW19174   2.169   7.511   4.342
 6277SOL    HW119175   2.158   7.605   4.375
 6277SOL    HW219176   2.164   7.448   4.419
 6278SOL     OW19177   3.022   7.655   5.201
 6278SOL    HW119178   3.022   7.719   5.278
 6278SOL    HW219179   3.050   7.703   5.118
 6279SOL     OW19180   2.125   7.774   4.444
 6279SOL    HW119181   2.046   7.825   4.410
 6279SOL    HW219182   2.116   7.759   4.542
 6280SOL     OW19183   2.534   7.651   5.213
 6280SOL    HW119184   2.624   7.635   5.173
 6280SOL    HW219185   2.542   7.656   5.312
 6281SOL     OW19186   1.937   7.793   3.757
 6281SOL    HW119187   1.845   7.765   3.728
 6281SOL    HW219188   1.968   7.870   3.701
 6282SOL     OW19189   1.934   7.614   4.042
 6282SOL    HW119190   1.917   7.697   3.988
 6282SOL    HW219191   2.024   7.577   4.020
 6283SOL     OW19192   2.863   7.482   4.878
 6283SOL    HW119193   2.800   7.410   4.847
 6283SOL    HW219194   2.956   7.446   4.878
 6284SOL     OW19195   3.455   7.669   4.606
 6284SOL    HW119196   3.371   7.668   4.660
 6284SOL    HW219197   3.457   7.752   4.550
 6285SOL     OW19198   2.087   7.723   6.582
 6285SOL    HW119199   2.122   7.706   6.674
 6285SOL    HW219200   1.999   7.678   6.570
 6286SOL     OW19201   1.881   7.816   6.233
 6286SOL    HW119202   1.799   7.859   6.272
 6286SOL    HW219203   1.853   7.743   6.170
 6287SOL     OW19204   2.671   7.452   6.088
 6287SOL    HW119205   2.711   7.543   6.079
 6287SOL    HW219206   2.571   7.460   6.094
 6288SOL     OW19207   2.412   7.644   6.471
 6288SOL    HW119208   2.407   7.639   6.571
 6288SOL    HW219209   2.414   7.740   6.442
 6289SOL     OW19210   2.476   7.570   5.703
 6289SOL    HW119211   2.574   7.548   5.710
 6289SOL    HW219212   2.445   7.553   5.610
 6290SOL     OW19213   2.401   7.512   6.098
 6290SOL    HW119214   2.320   7.513   6.156
 6290SOL    HW219215   2.404   7.595   6.043
 6291SOL     OW19216   2.159   7.483   5.757
 6291SOL    HW119217   2.208   7.567   5.736
 6291SOL    HW219218   2.221   7.418   5.802
 6292SOL     OW19219   2.423   7.670   6.733
 6292SOL    HW119220   2.461   7.586   6.770
 6292SOL    HW219221   2.335   7.689   6.777
 6293SOL     OW19222   2.389   7.704   5.914
 6293SOL    HW119223   2.416   7.645   5.839
 6293SOL    HW219224   2.389   7.799   5.883
 6294SOL     OW19225   2.169   7.511   6.204
 6294SOL    HW119226   2.158   7.605   6.237
 6294SOL    HW219227   2.164   7.448   6.281
 6295SOL     OW19228   2.125   7.774   6.306
 6295SOL    HW119229   2.046   7.825   6.272
 6295SOL    HW219230   2.116   7.759   6.404
 6296SOL     OW19231   1.937   7.793   5.619
 6296SOL    HW119232   1.845   7.765   5.590
 6296SOL    HW219233   1.968   7.870   5.563
 6297SOL     OW19234   1.934   7.614   5.904
 6297SOL    HW119235   1.917   7.697   5.850
 6297SOL    HW219236   2.024   7.577   5.882
 6298SOL     OW19237   2.863   7.482   6.740
 6298SOL    HW119238   2.800   7.410   6.709
 6298SOL    HW219239   2.956   7.446   6.740
 6299SOL     OW19240   3.455   7.669   6.468
 6299SOL    HW119241   3.371   7.668   6.522
 6299SOL    HW219242   3.457   7.752   6.412
 6300SOL     OW19243   3.949   0.275   0.996
 6300SOL    HW119244   3.984   0.258   1.088
 6300SOL    HW219245   3.861   0.230   0.984
 6301SOL     OW19246   3.743   0.368   0.647
 6301SOL    HW119247   3.661   0.411   0.686
 6301SOL    HW219248   3.715   0.295   0.584
 6302SOL     OW19249   4.293   1.275   1.165
 6302SOL    HW119250   4.200   1.268   1.128
 6302SOL    HW219251   4.304   1.364   1.209
 6303SOL     OW19252   5.279   1.511   0.703
 6303SOL    HW119253   5.222   1.495   0.784
 6303SOL    HW219254   5.220   1.521   0.623
 6304SOL     OW19255   5.467   0.618   0.856
 6304SOL    HW119256   5.500   0.712   0.856
 6304SOL    HW219257   5.518   0.564   0.922
 6305SOL     OW19258   4.859   0.703   0.717
 6305SOL    HW119259   4.916   0.781   0.692
 6305SOL    HW219260   4.799   0.729   0.793
 6306SOL     OW19261   4.492   1.144   1.023
 6306SOL    HW119262   4.414   1.161   1.083
 6306SOL    HW219263   4.526   1.231   0.987
 6307SOL     OW19264   4.574   0.798   1.823
 6307SOL    HW119265   4.570   0.874   1.888
 6307SOL    HW219266   4.596   0.834   1.732
 6308SOL     OW19267   4.409   1.012   0.665
 6308SOL    HW119268   4.478   0.996   0.735
 6308SOL    HW219269   4.336   1.069   0.703
 6309SOL     OW19270   4.410   1.161   1.803
 6309SOL    HW119271   4.470   1.240   1.817
 6309SOL    HW219272   4.324   1.192   1.762
 6310SOL     OW19273   4.059   1.435   1.061
 6310SOL    HW119274   3.981   1.404   1.008
 6310SOL    HW219275   4.117   1.493   1.004
 6311SOL     OW19276   5.184   1.505   1.339
 6311SOL    HW119277   5.208   1.599   1.365
 6311SOL    HW219278   5.168   1.451   1.421
 6312SOL     OW19279   4.162   0.392   1.499
 6312SOL    HW119280   4.244   0.336   1.508
 6312SOL    HW219281   4.081   0.334   1.503
 6313SOL     OW19282   3.955   1.713   0.483
 6313SOL    HW119283   3.989   1.790   0.537
 6313SOL    HW219284   3.999   1.713   0.393
 6314SOL     OW19285   4.851   1.341   1.690
 6314SOL    HW119286   4.898   1.341   1.778
 6314SOL    HW219287   4.803   1.254   1.679
 6315SOL     OW19288   3.954   1.434   0.538
 6315SOL    HW119289   3.928   1.530   0.538
 6315SOL    HW219290   3.883   1.380   0.583
 6316SOL     OW19291   3.964   1.091   0.886
 6316SOL    HW119292   3.978   1.007   0.938
 6316SOL    HW219293   3.909   1.155   0.941
 6317SOL     OW19294   4.344   1.786   1.439
 6317SOL    HW119295   4.252   1.769   1.474
 6317SOL    HW219296   4.372   1.878   1.465
 6318SOL     OW19297   5.318   0.114   1.480
 6318SOL    HW119298   5.300   0.181   1.408
 6318SOL    HW219299   5.315   0.160   1.569
 6319SOL     OW19300   3.846   0.643   0.563
 6319SOL    HW119301   3.801   0.555   0.580
 6319SOL    HW219302   3.845   0.697   0.647
 6320SOL     OW19303   5.365   1.108   0.432
 6320SOL    HW119304   5.451   1.110   0.380
 6320SOL    HW219305   5.379   1.155   0.520
 6321SOL     OW19306   3.837   0.737   1.597
 6321SOL    HW119307   3.925   0.724   1.642
 6321SOL    HW219308   3.824   0.834   1.575
 6322SOL     OW19309   4.337   1.365   0.726
 6322SOL    HW119310   4.288   1.278   0.735
 6322SOL    HW219311   4.314   1.408   0.639
 6323SOL     OW19312   5.017   1.228   1.423
 6323SOL    HW119313   5.054   1.155   1.365
 6323SOL    HW219314   5.069   1.233   1.508
 6324SOL     OW19315   4.533   0.004   0.502
 6324SOL    HW119316   4.573   0.095   0.493
 6324SOL    HW219317   4.433   0.012   0.508
 6325SOL     OW19318   3.921   0.976   1.264
 6325SOL    HW119319   4.010   0.931   1.250
 6325SOL    HW219320   3.848   0.911   1.245
 6326SOL     OW19321   4.911   1.792   1.616
 6326SOL    HW119322   4.935   1.852   1.540
 6326SOL    HW219323   4.918   1.697   1.586
 6327SOL     OW19324   4.041   0.251   1.801
 6327SOL    HW119325   4.112   0.322   1.807
 6327SOL    HW219326   3.953   0.290   1.829
 6328SOL     OW19327   5.190   1.417   0.953
 6328SOL    HW119328   5.131   1.423   1.033
 6328SOL    HW219329   5.175   1.329   0.907
 6329SOL     OW19330   5.391   1.714   0.572
 6329SOL    HW119331   5.350   1.691   0.484
 6329SOL    HW219332   5.373   1.640   0.637
 6330SOL     OW19333   5.005   0.345   0.944
 6330SOL    HW119334   4.919   0.295   0.931
 6330SOL    HW219335   5.067   0.291   1.000
 6331SOL     OW19336   5.300   1.662   0.307
 6331SOL    HW119337   5.389   1.708   0.310
 6331SOL    HW219338   5.279   1.638   0.212
 6332SOL     OW19339   4.531   0.605   1.465
 6332SOL    HW119340   4.484   0.602   1.554
 6332SOL    HW219341   4.480   0.550   1.399
 6333SOL     OW19342   5.118   0.469   1.674
 6333SOL    HW119343   5.098   0.512   1.762
 6333SOL    HW219344   5.196   0.407   1.683
 6334SOL     OW19345   4.697   0.890   1.572
 6334SOL    HW119346   4.743   0.806   1.543
 6334SOL    HW219347   4.641   0.924   1.497
 6335SOL     OW19348   4.715   0.410   1.242
 6335SOL    HW119349   4.638   0.444   1.296
 6335SOL    HW219350   4.681   0.359   1.163
 6336SOL     OW19351   4.765   0.701   0.429
 6336SOL    HW119352   4.791   0.697   0.525
 6336SOL    HW219353   4.680   0.650   0.415
 6337SOL     OW19354   3.800   0.811   0.789
 6337SOL    HW119355   3.899   0.799   0.798
 6337SOL    HW219356   3.776   0.906   0.810
 6338SOL     OW19357   3.854   1.821   1.571
 6338SOL    HW119358   3.844   1.806   1.670
 6338SOL    HW219359   3.768   1.857   1.535
 6339SOL     OW19360   5.443   0.585   1.831
 6339SOL    HW119361   5.417   0.674   1.795
 6339SOL    HW219362   5.441   0.517   1.758
 6340SOL     OW19363   5.086   1.144   0.545
 6340SOL    HW119364   5.169   1.115   0.497
 6340SOL    HW219365   5.037   1.211   0.489
 6341SOL     OW19366   4.274   0.196   0.885
 6341SOL    HW119367   4.269   0.191   0.985
 6341SOL    HW219368   4.276   0.292   0.856
 6342SOL     OW19369   4.732   1.456   0.477
 6342SOL    HW119370   4.686   1.528   0.425
 6342SOL    HW219371   4.728   1.476   0.575
 6343SOL     OW19372   4.075   1.801   0.853
 6343SOL    HW119373   4.125   1.715   0.859
 6343SOL    HW219374   4.140   1.878   0.850
 6344SOL     OW19375   5.519   1.066   0.873
 6344SOL    HW119376   5.457   1.051   0.797
 6344SOL    HW219377   5.467   1.077   0.958
 6345SOL     OW19378   4.951   1.550   1.506
 6345SOL    HW119379   4.957   1.473   1.570
 6345SOL    HW219380   4.899   1.524   1.426
 6346SOL     OW19381   5.182   0.735   0.728
 6346SOL    HW119382   5.177   0.670   0.803
 6346SOL    HW219383   5.262   0.794   0.741
 6347SOL     OW19384   4.185   1.266   1.727
 6347SOL    HW119385   4.135   1.267   1.641
 6347SOL    HW219386   4.122   1.248   1.803
 6348SOL     OW19387   3.926   0.285   1.498
 6348SOL    HW119388   3.846   0.345   1.485
 6348SOL    HW219389   3.916   0.236   1.584
 6349SOL     OW19390   4.188   1.743   0.323
 6349SOL    HW119391   4.221   1.782   0.409
 6349SOL    HW219392   4.264   1.736   0.258
 6350SOL     OW19393   3.973   1.785   1.241
 6350SOL    HW119394   4.030   1.720   1.291
 6350SOL    HW219395   3.957   1.752   1.148
 6351SOL     OW19396   4.664   1.698   0.904
 6351SOL    HW119397   4.744   1.641   0.925
 6351SOL    HW219398   4.615   1.658   0.827
 6352SOL     OW19399   4.106   0.700   0.480
 6352SOL    HW119400   4.151   0.610   0.477
 6352SOL    HW219401   4.012   0.689   0.513
 6353SOL     OW19402   4.505   0.264   1.749
 6353SOL    HW119403   4.572   0.203   1.792
 6353SOL    HW219404   4.432   0.283   1.814
 6354SOL     OW19405   4.612   1.514   1.195
 6354SOL    HW119406   4.589   1.489   1.101
 6354SOL    HW219407   4.673   1.445   1.234
 6355SOL     OW19408   5.075   0.590   1.433
 6355SOL    HW119409   5.103   0.547   1.518
 6355SOL    HW219410   5.100   0.686   1.434
 6356SOL     OW19411   4.527   1.402   0.924
 6356SOL    HW119412   4.617   1.416   0.882
 6356SOL    HW219413   4.456   1.404   0.853
 6357SOL     OW19414   4.646   0.503   0.899
 6357SOL    HW119415   4.621   0.494   0.803
 6357SOL    HW219416   4.694   0.421   0.930
 6358SOL     OW19417   4.263   0.064   0.512
 6358SOL    HW119418   4.182   0.065   0.570
 6358SOL    HW219419   4.266   0.147   0.457
 6359SOL     OW19420   4.659   0.236   0.480
 6359SOL    HW119421   4.611   0.277   0.402
 6359SOL    HW219422   4.758   0.234   0.461
 6360SOL     OW19423   4.800   0.683   1.464
 6360SOL    HW119424   4.720   0.622   1.467
 6360SOL    HW219425   4.881   0.630   1.440
 6361SOL     OW19426   4.951   1.570   0.793
 6361SOL    HW119427   4.972   1.644   0.728
 6361SOL    HW219428   5.019   1.570   0.866
 6362SOL     OW19429   4.183   1.152   0.741
 6362SOL    HW119430   4.112   1.125   0.806
 6362SOL    HW219431   4.157   1.124   0.648
 6363SOL     OW19432   4.995   1.797   0.591
 6363SOL    HW119433   5.039   1.861   0.527
 6363SOL    HW219434   4.945   1.849   0.661
 6364SOL     OW19435   3.802   0.556   1.386
 6364SOL    HW119436   3.894   0.555   1.345
 6364SOL    HW219437   3.796   0.630   1.453
 6365SOL     OW19438   4.285   0.222   1.147
 6365SOL    HW119439   4.323   0.138   1.184
 6365SOL    HW219440   4.197   0.241   1.191
 6366SOL     OW19441   4.590   0.454   0.642
 6366SOL    HW119442   4.558   0.526   0.580
 6366SOL    HW219443   4.614   0.373   0.589
 6367SOL     OW19444   4.741   0.039   0.753
 6367SOL    HW119445   4.669   0.044   0.684
 6367SOL    HW219446   4.717  -0.030   0.822
 6368SOL     OW19447   5.153   1.173   0.867
 6368SOL    HW119448   5.098   1.089   0.860
 6368SOL    HW219449   5.179   1.202   0.775
 6369SOL     OW19450   5.190   0.590   0.992
 6369SOL    HW119451   5.160   0.495   0.999
 6369SOL    HW219452   5.263   0.606   1.058
 6370SOL     OW19453   5.581   0.833   0.377
 6370SOL    HW119454   5.623   0.769   0.441
 6370SOL    HW219455   5.543   0.782   0.299
 6371SOL     OW19456   5.388   1.280   0.657
 6371SOL    HW119457   5.487   1.288   0.671
 6371SOL    HW219458   5.343   1.364   0.688
 6372SOL     OW19459   4.251   0.256   0.328
 6372SOL    HW119460   4.278   0.197   0.253
 6372SOL    HW219461   4.251   0.351   0.297
 6373SOL     OW19462   4.788   1.347   1.340
 6373SOL    HW119463   4.708   1.324   1.395
 6373SOL    HW219464   4.871   1.321   1.389
 6374SOL     OW19465   5.316   1.629   1.625
 6374SOL    HW119466   5.343   1.663   1.535
 6374SOL    HW219467   5.395   1.591   1.671
 6375SOL     OW19468   4.835   1.195   1.100
 6375SOL    HW119469   4.795   1.239   1.181
 6375SOL    HW219470   4.794   1.232   1.017
 6376SOL     OW19471   5.362   1.099   1.079
 6376SOL    HW119472   5.367   1.180   1.138
 6376SOL    HW219473   5.276   1.101   1.028
 6377SOL     OW19474   4.639   0.089   1.402
 6377SOL    HW119475   4.664   0.069   1.307
 6377SOL    HW219476   4.711   0.145   1.444
 6378SOL     OW19477   4.704   1.116   1.719
 6378SOL    HW119478   4.605   1.122   1.729
 6378SOL    HW219479   4.727   1.036   1.663
 6379SOL     OW19480   4.429   1.050   0.368
 6379SOL    HW119481   4.415   1.057   0.467
 6379SOL    HW219482   4.513   0.999   0.350
 6380SOL     OW19483   4.134   0.813   1.251
 6380SOL    HW119484   4.220   0.825   1.301
 6380SOL    HW219485   4.092   0.726   1.278
 6381SOL     OW19486   4.998   0.386   1.262
 6381SOL    HW119487   5.019   0.460   1.326
 6381SOL    HW219488   4.909   0.403   1.219
 6382SOL     OW19489   3.788   1.564   1.331
 6382SOL    HW119490   3.742   1.646   1.297
 6382SOL    HW219491   3.886   1.583   1.340
 6383SOL     OW19492   4.091   1.100   0.501
 6383SOL    HW119493   4.084   1.183   0.445
 6383SOL    HW219494   4.095   1.020   0.441
 6384SOL     OW19495   4.290   0.537   0.865
 6384SOL    HW119496   4.302   0.603   0.791
 6384SOL    HW219497   4.336   0.571   0.948
 6385SOL     OW19498   4.976   1.348   0.388
 6385SOL    HW119499   5.026   1.425   0.428
 6385SOL    HW219500   4.881   1.350   0.420
 6386SOL     OW19501   4.996   1.445   1.142
 6386SOL    HW119502   5.043   1.458   1.229
 6386SOL    HW219503   4.930   1.371   1.151
 6387SOL     OW19504   5.306   0.639   0.472
 6387SOL    HW119505   5.275   0.700   0.545
 6387SOL    HW219506   5.356   0.691   0.403
 6388SOL     OW19507   4.078   1.510   1.329
 6388SOL    HW119508   4.057   1.466   1.242
 6388SOL    HW219509   4.175   1.536   1.332
 6389SOL     OW19510   4.126   0.751   1.598
 6389SOL    HW119511   4.194   0.806   1.551
 6389SOL    HW219512   4.166   0.663   1.625
 6390SOL     OW19513   5.311   0.779   1.670
 6390SOL    HW119514   5.219   0.817   1.665
 6390SOL    HW219515   5.371   0.826   1.605
 6391SOL     OW19516   4.737   0.105   1.770
 6391SOL    HW119517   4.743   0.190   1.718
 6391SOL    HW219518   4.769   0.029   1.713
 6392SOL     OW19519   4.228   0.050   1.740
 6392SOL    HW119520   4.186  -0.007   1.670
 6392SOL    HW219521   4.162   0.119   1.772
 6393SOL     OW19522   4.297   0.870   1.029
 6393SOL    HW119523   4.341   0.959   1.020
 6393SOL    HW219524   4.234   0.870   1.106
 6394SOL     OW19525   5.084   0.862   1.045
 6394SOL    HW119526   5.009   0.862   0.979
 6394SOL    HW219527   5.121   0.770   1.054
 6395SOL     OW19528   4.031   0.213   1.231
 6395SOL    HW119529   4.008   0.250   1.321
 6395SOL    HW219530   4.001   0.118   1.225
 6396SOL     OW19531   3.761   1.310   1.282
 6396SOL    HW119532   3.814   1.261   1.350
 6396SOL    HW219533   3.783   1.408   1.287
 6397SOL     OW19534   4.456   0.634   1.064
 6397SOL    HW119535   4.515   0.608   0.988
 6397SOL    HW219536   4.428   0.730   1.053
 6398SOL     OW19537   5.452   0.935   1.854
 6398SOL    HW119538   5.406   0.928   1.765
 6398SOL    HW219539   5.390   0.979   1.920
 6399SOL     OW19540   4.031   0.063   0.618
 6399SOL    HW119541   4.020   0.157   0.651
 6399SOL    HW219542   4.026   0.000   0.695
 6400SOL     OW19543   4.704   1.573   1.700
 6400SOL    HW119544   4.684   1.617   1.612
 6400SOL    HW219545   4.743   1.482   1.684
 6401SOL     OW19546   5.583   1.518   1.605
 6401SOL    HW119547   5.597   1.545   1.510
 6401SOL    HW219548   5.666   1.540   1.658
 6402SOL     OW19549   4.074   0.898   1.804
 6402SOL    HW119550   4.150   0.942   1.852
 6402SOL    HW219551   4.109   0.851   1.722
 6403SOL     OW19552   4.792   1.333   0.849
 6403SOL    HW119553   4.799   1.249   0.794
 6403SOL    HW219554   4.854   1.402   0.813
 6404SOL     OW19555   4.043   0.810   0.949
 6404SOL    HW119556   4.136   0.846   0.954
 6404SOL    HW219557   4.037   0.725   1.001
 6405SOL     OW19558   4.063   0.509   1.006
 6405SOL    HW119559   4.011   0.426   0.989
 6405SOL    HW219560   4.140   0.514   0.942
 6406SOL     OW19561   4.862   0.380   1.678
 6406SOL    HW119562   4.817   0.443   1.742
 6406SOL    HW219563   4.955   0.411   1.661
 6407SOL     OW19564   4.884   0.207   1.477
 6407SOL    HW119565   4.884   0.271   1.554
 6407SOL    HW219566   4.912   0.255   1.394
 6408SOL     OW19567   3.812   1.801   0.927
 6408SOL    HW119568   3.770   1.715   0.900
 6408SOL    HW219569   3.906   1.804   0.893
 6409SOL     OW19570   4.228   1.568   0.910
 6409SOL    HW119571   4.294   1.642   0.919
 6409SOL    HW219572   4.272   1.489   0.868
 6410SOL     OW19573   4.726   0.796   1.238
 6410SOL    HW119574   4.767   0.764   1.324
 6410SOL    HW219575   4.630   0.769   1.235
 6411SOL     OW19576   3.764   0.544   1.114
 6411SOL    HW119577   3.849   0.511   1.073
 6411SOL    HW219578   3.777   0.559   1.212
 6412SOL     OW19579   3.913   0.520   1.722
 6412SOL    HW119580   3.972   0.480   1.652
 6412SOL    HW219581   3.855   0.591   1.681
 6413SOL     OW19582   5.093   0.950   1.660
 6413SOL    HW119583   5.132   1.039   1.680
 6413SOL    HW219584   5.103   0.930   1.563
 6414SOL     OW19585   5.381   0.604   1.206
 6414SOL    HW119586   5.343   0.535   1.268
 6414SOL    HW219587   5.463   0.568   1.162
 6415SOL     OW19588   3.976   1.564   1.744
 6415SOL    HW119589   3.946   1.621   1.820
 6415SOL    HW219590   3.969   1.467   1.770
 6416SOL     OW19591   4.395   0.464   1.269
 6416SOL    HW119592   4.361   0.375   1.239
 6416SOL    HW219593   4.421   0.518   1.189
 6417SOL     OW19594   4.654   1.678   1.465
 6417SOL    HW119595   4.630   1.660   1.370
 6417SOL    HW219596   4.684   1.772   1.475
 6418SOL     OW19597   3.883   1.137   1.466
 6418SOL    HW119598   3.905   1.076   1.542
 6418SOL    HW219599   3.893   1.088   1.380
 6419SOL     OW19600   5.071   1.059   1.234
 6419SOL    HW119601   5.095   0.996   1.160
 6419SOL    HW219602   4.981   1.099   1.216
 6420SOL     OW19603   5.483   1.747   1.154
 6420SOL    HW119604   5.544   1.777   1.081
 6420SOL    HW219605   5.445   1.658   1.132
 6421SOL     OW19606   4.976   1.731   1.128
 6421SOL    HW119607   5.060   1.736   1.074
 6421SOL    HW219608   4.953   1.635   1.146
 6422SOL     OW19609   3.807   1.258   1.022
 6422SOL    HW119610   3.802   1.257   1.122
 6422SOL    HW219611   3.724   1.217   0.984
 6423SOL     OW19612   4.412   1.662   1.716
 6423SOL    HW119613   4.356   1.743   1.725
 6423SOL    HW219614   4.464   1.666   1.630
 6424SOL     OW19615   5.450   0.135   0.523
 6424SOL    HW119616   5.523   0.118   0.456
 6424SOL    HW219617   5.419   0.048   0.561
 6425SOL     OW19618   5.112   1.573   0.477
 6425SOL    HW119619   5.179   1.585   0.403
 6425SOL    HW219620   5.072   1.662   0.500
 6426SOL     OW19621   3.854   1.794   1.851
 6426SOL    HW119622   3.813   1.720   1.904
 6426SOL    HW219623   3.918   1.845   1.909
 6427SOL     OW19624   5.004   0.927   0.672
 6427SOL    HW119625   5.064   0.846   0.674
 6427SOL    HW219626   5.044   0.996   0.612
 6428SOL     OW19627   4.554   1.273   1.422
 6428SOL    HW119628   4.549   1.306   1.517
 6428SOL    HW219629   4.468   1.292   1.376
 6429SOL     OW19630   5.374   1.720   1.394
 6429SOL    HW119631   5.427   1.730   1.310
 6429SOL    HW219632   5.347   1.810   1.428
 6430SOL     OW19633   3.987   0.326   0.720
 6430SOL    HW119634   3.908   0.377   0.686
 6430SOL    HW219635   3.978   0.311   0.818
 6431SOL     OW19636   4.546   1.002   1.372
 6431SOL    HW119637   4.586   1.001   1.280
 6431SOL    HW219638   4.556   1.094   1.412
 6432SOL     OW19639   4.640   0.910   0.291
 6432SOL    HW119640   4.703   0.948   0.223
 6432SOL    HW219641   4.680   0.827   0.330
 6433SOL     OW19642   4.096   1.288   1.490
 6433SOL    HW119643   4.083   1.381   1.456
 6433SOL    HW219644   4.012   1.236   1.477
 6434SOL     OW19645   5.338   1.292   1.289
 6434SOL    HW119646   5.398   1.295   1.369
 6434SOL    HW219647   5.263   1.356   1.302
 6435SOL     OW19648   4.763   1.098   0.696
 6435SOL    HW119649   4.693   1.051   0.750
 6435SOL    HW219650   4.822   1.030   0.653
 6436SOL     OW19651   4.738   0.236   0.971
 6436SOL    HW119652   4.730   0.200   0.878
 6436SOL    HW219653   4.736   0.160   1.036
 6437SOL     OW19654   4.314   1.487   0.491
 6437SOL    HW119655   4.356   1.429   0.421
 6437SOL    HW219656   4.270   1.566   0.447
 6438SOL     OW19657   5.433   0.385   1.381
 6438SOL    HW119658   5.506   0.454   1.385
 6438SOL    HW219659   5.461   0.310   1.322
 6439SOL     OW19660   3.829   1.013   1.726
 6439SOL    HW119661   3.752   0.980   1.780
 6439SOL    HW219662   3.914   0.983   1.768
 6440SOL     OW19663   4.396   0.203   1.489
 6440SOL    HW119664   4.486   0.187   1.449
 6440SOL    HW219665   4.404   0.208   1.588
 6441SOL     OW19666   5.164   0.856   1.398
 6441SOL    HW119667   5.107   0.908   1.335
 6441SOL    HW219668   5.260   0.868   1.374
 6442SOL     OW19669   3.796   0.166   0.318
 6442SOL    HW119670   3.779   0.249   0.264
 6442SOL    HW219671   3.886   0.129   0.296
 6443SOL     OW19672   4.337   0.842   1.431
 6443SOL    HW119673   4.393   0.923   1.414
 6443SOL    HW219674   4.396   0.762   1.434
 6444SOL     OW19675   5.217   1.767   0.959
 6444SOL    HW119676   5.250   1.831   0.890
 6444SOL    HW219677   5.283   1.761   1.034
 6445SOL     OW19678   4.440   0.565   1.708
 6445SOL    HW119679   4.459   0.630   1.782
 6445SOL    HW219680   4.500   0.485   1.717
 6446SOL     OW19681   5.174   1.220   1.633
 6446SOL    HW119682   5.165   1.210   1.732
 6446SOL    HW219683   5.270   1.213   1.607
 6447SOL     OW19684   4.114   1.741   1.560
 6447SOL    HW119685   4.023   1.782   1.558
 6447SOL    HW219686   4.107   1.647   1.592
 6448SOL     OW19687   5.398   0.883   1.254
 6448SOL    HW119688   5.371   0.794   1.217
 6448SOL    HW219689   5.399   0.951   1.181
 6449SOL     OW19690   4.318   0.745   0.652
 6449SOL    HW119691   4.368   0.830   0.633
 6449SOL    HW219692   4.230   0.747   0.604
 6450SOL     OW19693   5.454   0.934   1.517
 6450SOL    HW119694   5.492   1.025   1.532
 6450SOL    HW219695   5.446   0.917   1.418
 6451SOL     OW19696   4.385   1.790   0.953
 6451SOL    HW119697   4.339   1.878   0.940
 6451SOL    HW219698   4.484   1.802   0.946
 6452SOL     OW19699   4.583   0.956   0.861
 6452SOL    HW119700   4.637   0.887   0.909
 6452SOL    HW219701   4.551   1.025   0.927
 6453SOL     OW19702   5.585   1.569   0.851
 6453SOL    HW119703   5.514   1.557   0.781
 6453SOL    HW219704   5.586   1.490   0.911
 6454SOL     OW19705   3.945   1.314   1.844
 6454SOL    HW119706   3.880   1.241   1.823
 6454SOL    HW219707   3.949   1.328   1.942
 6455SOL     OW19708   3.803   1.240   0.653
 6455SOL    HW119709   3.802   1.193   0.741
 6455SOL    HW219710   3.885   1.212   0.602
 6456SOL     OW19711   4.396   1.391   1.624
 6456SOL    HW119712   4.318   1.341   1.662
 6456SOL    HW219713   4.393   1.486   1.655
 6457SOL     OW19714   4.152   0.424   0.520
 6457SOL    HW119715   4.182   0.352   0.458
 6457SOL    HW219716   4.113   0.384   0.603
 6458SOL     OW19717   5.429   1.487   1.104
 6458SOL    HW119718   5.336   1.462   1.077
 6458SOL    HW219719   5.455   1.437   1.186
 6459SOL     OW19720   4.041   0.547   1.280
 6459SOL    HW119721   4.079   0.488   1.352
 6459SOL    HW219722   4.081   0.521   1.192
 6460SOL     OW19723   4.536   1.586   0.687
 6460SOL    HW119724   4.568   1.596   0.593
 6460SOL    HW219725   4.457   1.524   0.689
 6461SOL     OW19726   5.148   0.214   1.112
 6461SOL    HW119727   5.200   0.149   1.167
 6461SOL    HW219728   5.099   0.277   1.173
 6462SOL     OW19729   4.725   0.034   1.154
 6462SOL    HW119730   4.662  -0.038   1.123
 6462SOL    HW219731   4.818  -0.002   1.154
 6463SOL     OW19732   4.342   1.567   1.284
 6463SOL    HW119733   4.337   1.649   1.341
 6463SOL    HW219734   4.431   1.564   1.239
 6464SOL     OW19735   5.024   0.453   0.691
 6464SOL    HW119736   4.965   0.533   0.695
 6464SOL    HW219737   5.039   0.418   0.784
 6465SOL     OW19738   5.317   0.221   0.882
 6465SOL    HW119739   5.233   0.220   0.936
 6465SOL    HW219740   5.319   0.304   0.826
 6466SOL     OW19741   3.954   0.628   1.975
 6466SOL    HW119742   3.861   0.626   2.012
 6466SOL    HW219743   3.955   0.589   1.883
 6467SOL     OW19744   3.949   0.275   2.858
 6467SOL    HW119745   3.984   0.258   2.950
 6467SOL    HW219746   3.861   0.230   2.846
 6468SOL     OW19747   3.743   0.368   2.509
 6468SOL    HW119748   3.661   0.411   2.548
 6468SOL    HW219749   3.715   0.295   2.446
 6469SOL     OW19750   4.293   1.275   3.027
 6469SOL    HW119751   4.200   1.268   2.990
 6469SOL    HW219752   4.304   1.364   3.071
 6470SOL     OW19753   5.279   1.511   2.565
 6470SOL    HW119754   5.222   1.495   2.646
 6470SOL    HW219755   5.220   1.521   2.485
 6471SOL     OW19756   5.467   0.618   2.718
 6471SOL    HW119757   5.500   0.712   2.718
 6471SOL    HW219758   5.518   0.564   2.784
 6472SOL     OW19759   4.859   0.703   2.579
 6472SOL    HW119760   4.916   0.781   2.554
 6472SOL    HW219761   4.799   0.729   2.655
 6473SOL     OW19762   5.479   0.607   2.093
 6473SOL    HW119763   5.467   0.594   1.994
 6473SOL    HW219764   5.449   0.526   2.142
 6474SOL     OW19765   4.492   1.144   2.885
 6474SOL    HW119766   4.414   1.161   2.945
 6474SOL    HW219767   4.526   1.231   2.849
 6475SOL     OW19768   4.574   0.798   3.685
 6475SOL    HW119769   4.570   0.874   3.750
 6475SOL    HW219770   4.596   0.834   3.594
 6476SOL     OW19771   4.409   1.012   2.527
 6476SOL    HW119772   4.478   0.996   2.597
 6476SOL    HW219773   4.336   1.069   2.565
 6477SOL     OW19774   4.410   1.161   3.665
 6477SOL    HW119775   4.470   1.240   3.679
 6477SOL    HW219776   4.324   1.192   3.624
 6478SOL     OW19777   4.059   1.435   2.923
 6478SOL    HW119778   3.981   1.404   2.870
 6478SOL    HW219779   4.117   1.493   2.866
 6479SOL     OW19780   5.184   1.505   3.201
 6479SOL    HW119781   5.208   1.599   3.227
 6479SOL    HW219782   5.168   1.451   3.283
 6480SOL     OW19783   4.162   0.392   3.361
 6480SOL    HW119784   4.244   0.336   3.370
 6480SOL    HW219785   4.081   0.334   3.365
 6481SOL     OW19786   3.955   1.713   2.345
 6481SOL    HW119787   3.989   1.790   2.399
 6481SOL    HW219788   3.999   1.713   2.255
 6482SOL     OW19789   4.851   1.341   3.552
 6482SOL    HW119790   4.898   1.341   3.640
 6482SOL    HW219791   4.803   1.254   3.541
 6483SOL     OW19792   3.954   1.434   2.400
 6483SOL    HW119793   3.928   1.530   2.400
 6483SOL    HW219794   3.883   1.380   2.445
 6484SOL     OW19795   3.964   1.091   2.748
 6484SOL    HW119796   3.978   1.007   2.800
 6484SOL    HW219797   3.909   1.155   2.803
 6485SOL     OW19798   4.344   1.786   3.301
 6485SOL    HW119799   4.252   1.769   3.336
 6485SOL    HW219800   4.372   1.878   3.327
 6486SOL     OW19801   4.330   0.964   1.985
 6486SOL    HW119802   4.337   1.048   1.931
 6486SOL    HW219803   4.376   0.977   2.073
 6487SOL     OW19804   5.318   0.114   3.342
 6487SOL    HW119805   5.300   0.181   3.270
 6487SOL    HW219806   5.315   0.160   3.431
 6488SOL     OW19807   3.846   0.643   2.425
 6488SOL    HW119808   3.801   0.555   2.442
 6488SOL    HW219809   3.845   0.697   2.509
 6489SOL     OW19810   5.566   1.767   2.221
 6489SOL    HW119811   5.620   1.738   2.301
 6489SOL    HW219812   5.596   1.857   2.192
 6490SOL     OW19813   3.751   1.596   1.979
 6490SOL    HW119814   3.732   1.500   2.000
 6490SOL    HW219815   3.718   1.654   2.054
 6491SOL     OW19816   5.413   0.922   2.474
 6491SOL    HW119817   5.508   0.893   2.482
 6491SOL    HW219818   5.405   0.987   2.399
 6492SOL     OW19819   5.365   1.108   2.294
 6492SOL    HW119820   5.451   1.110   2.242
 6492SOL    HW219821   5.379   1.155   2.382
 6493SOL     OW19822   3.837   0.737   3.459
 6493SOL    HW119823   3.925   0.724   3.504
 6493SOL    HW219824   3.824   0.834   3.437
 6494SOL     OW19825   4.337   1.365   2.588
 6494SOL    HW119826   4.288   1.278   2.597
 6494SOL    HW219827   4.314   1.408   2.501
 6495SOL     OW19828   5.017   1.228   3.285
 6495SOL    HW119829   5.054   1.155   3.227
 6495SOL    HW219830   5.069   1.233   3.370
 6496SOL     OW19831   4.533   0.004   2.364
 6496SOL    HW119832   4.573   0.095   2.355
 6496SOL    HW219833   4.433   0.012   2.370
 6497SOL     OW19834   3.921   0.976   3.126
 6497SOL    HW119835   4.010   0.931   3.112
 6497SOL    HW219836   3.848   0.911   3.107
 6498SOL     OW19837   5.249   0.999   2.052
 6498SOL    HW119838   5.186   0.923   2.065
 6498SOL    HW219839   5.297   1.017   2.138
 6499SOL     OW19840   4.911   1.792   3.478
 6499SOL    HW119841   4.935   1.852   3.402
 6499SOL    HW219842   4.918   1.697   3.448
 6500SOL     OW19843   4.041   0.251   3.663
 6500SOL    HW119844   4.112   0.322   3.669
 6500SOL    HW219845   3.953   0.290   3.691
 6501SOL     OW19846   5.190   1.417   2.815
 6501SOL    HW119847   5.131   1.423   2.895
 6501SOL    HW219848   5.175   1.329   2.769
 6502SOL     OW19849   5.391   1.714   2.434
 6502SOL    HW119850   5.350   1.691   2.346
 6502SOL    HW219851   5.373   1.640   2.499
 6503SOL     OW19852   4.322   0.729   2.132
 6503SOL    HW119853   4.346   0.798   2.064
 6503SOL    HW219854   4.244   0.762   2.186
 6504SOL     OW19855   5.005   0.345   2.806
 6504SOL    HW119856   4.919   0.295   2.793
 6504SOL    HW219857   5.067   0.291   2.862
 6505SOL     OW19858   5.300   1.662   2.169
 6505SOL    HW119859   5.389   1.708   2.172
 6505SOL    HW219860   5.279   1.638   2.074
 6506SOL     OW19861   4.531   0.605   3.327
 6506SOL    HW119862   4.484   0.602   3.416
 6506SOL    HW219863   4.480   0.550   3.261
 6507SOL     OW19864   5.118   0.469   3.536
 6507SOL    HW119865   5.098   0.512   3.624
 6507SOL    HW219866   5.196   0.407   3.545
 6508SOL     OW19867   4.697   0.890   3.434
 6508SOL    HW119868   4.743   0.806   3.405
 6508SOL    HW219869   4.641   0.924   3.359
 6509SOL     OW19870   4.715   0.410   3.104
 6509SOL    HW119871   4.638   0.444   3.158
 6509SOL    HW219872   4.681   0.359   3.025
 6510SOL     OW19873   4.765   0.701   2.291
 6510SOL    HW119874   4.791   0.697   2.387
 6510SOL    HW219875   4.680   0.650   2.277
 6511SOL     OW19876   3.800   0.811   2.651
 6511SOL    HW119877   3.899   0.799   2.660
 6511SOL    HW219878   3.776   0.906   2.672
 6512SOL     OW19879   3.854   1.821   3.433
 6512SOL    HW119880   3.844   1.806   3.532
 6512SOL    HW219881   3.768   1.857   3.397
 6513SOL     OW19882   4.589   0.348   2.057
 6513SOL    HW119883   4.648   0.411   2.008
 6513SOL    HW219884   4.608   0.254   2.028
 6514SOL     OW19885   5.443   0.585   3.693
 6514SOL    HW119886   5.417   0.674   3.657
 6514SOL    HW219887   5.441   0.517   3.620
 6515SOL     OW19888   5.086   1.144   2.407
 6515SOL    HW119889   5.169   1.115   2.359
 6515SOL    HW219890   5.037   1.211   2.351
 6516SOL     OW19891   4.274   0.196   2.747
 6516SOL    HW119892   4.269   0.191   2.847
 6516SOL    HW219893   4.276   0.292   2.718
 6517SOL     OW19894   4.732   1.456   2.339
 6517SOL    HW119895   4.686   1.528   2.287
 6517SOL    HW219896   4.728   1.476   2.437
 6518SOL     OW19897   4.075   1.801   2.715
 6518SOL    HW119898   4.125   1.715   2.721
 6518SOL    HW219899   4.140   1.878   2.712
 6519SOL     OW19900   5.519   1.066   2.735
 6519SOL    HW119901   5.457   1.051   2.659
 6519SOL    HW219902   5.467   1.077   2.820
 6520SOL     OW19903   4.951   1.550   3.368
 6520SOL    HW119904   4.957   1.473   3.432
 6520SOL    HW219905   4.899   1.524   3.288
 6521SOL     OW19906   4.045   0.943   2.104
 6521SOL    HW119907   4.127   0.982   2.062
 6521SOL    HW219908   4.018   0.861   2.055
 6522SOL     OW19909   5.182   0.735   2.590
 6522SOL    HW119910   5.177   0.670   2.665
 6522SOL    HW219911   5.262   0.794   2.603
 6523SOL     OW19912   4.185   1.266   3.589
 6523SOL    HW119913   4.135   1.267   3.503
 6523SOL    HW219914   4.122   1.248   3.665
 6524SOL     OW19915   4.835   1.776   2.099
 6524SOL    HW119916   4.775   1.714   2.149
 6524SOL    HW219917   4.866   1.732   2.014
 6525SOL     OW19918   3.926   0.285   3.360
 6525SOL    HW119919   3.846   0.345   3.347
 6525SOL    HW219920   3.916   0.236   3.446
 6526SOL     OW19921   5.356   1.377   1.943
 6526SOL    HW119922   5.324   1.471   1.933
 6526SOL    HW219923   5.280   1.314   1.931
 6527SOL     OW19924   4.188   1.743   2.185
 6527SOL    HW119925   4.221   1.782   2.271
 6527SOL    HW219926   4.264   1.736   2.120
 6528SOL     OW19927   5.124   0.107   2.288
 6528SOL    HW119928   5.100   0.070   2.198
 6528SOL    HW219929   5.223   0.123   2.292
 6529SOL     OW19930   3.973   1.785   3.103
 6529SOL    HW119931   4.030   1.720   3.153
 6529SOL    HW219932   3.957   1.752   3.010
 6530SOL     OW19933   4.664   1.698   2.766
 6530SOL    HW119934   4.744   1.641   2.787
 6530SOL    HW219935   4.615   1.658   2.689
 6531SOL     OW19936   4.106   0.700   2.342
 6531SOL    HW119937   4.151   0.610   2.339
 6531SOL    HW219938   4.012   0.689   2.375
 6532SOL     OW19939   4.338   0.122   1.979
 6532SOL    HW119940   4.436   0.100   1.986
 6532SOL    HW219941   4.307   0.105   1.886
 6533SOL     OW19942   4.505   0.264   3.611
 6533SOL    HW119943   4.572   0.203   3.654
 6533SOL    HW219944   4.432   0.283   3.676
 6534SOL     OW19945   4.612   1.514   3.057
 6534SOL    HW119946   4.589   1.489   2.963
 6534SOL    HW219947   4.673   1.445   3.096
 6535SOL     OW19948   5.075   0.590   3.295
 6535SOL    HW119949   5.103   0.547   3.380
 6535SOL    HW219950   5.100   0.686   3.296
 6536SOL     OW19951   4.527   1.402   2.786
 6536SOL    HW119952   4.617   1.416   2.744
 6536SOL    HW219953   4.456   1.404   2.715
 6537SOL     OW19954   4.646   0.503   2.761
 6537SOL    HW119955   4.621   0.494   2.665
 6537SOL    HW219956   4.694   0.421   2.792
 6538SOL     OW19957   4.263   0.064   2.374
 6538SOL    HW119958   4.182   0.065   2.432
 6538SOL    HW219959   4.266   0.147   2.319
 6539SOL     OW19960   5.158   1.188   1.903
 6539SOL    HW119961   5.190   1.112   1.960
 6539SOL    HW219962   5.066   1.215   1.933
 6540SOL     OW19963   4.021   0.035   2.033
 6540SOL    HW119964   4.070   0.119   2.012
 6540SOL    HW219965   4.083  -0.030   2.078
 6541SOL     OW19966   4.659   0.236   2.342
 6541SOL    HW119967   4.611   0.277   2.264
 6541SOL    HW219968   4.758   0.234   2.323
 6542SOL     OW19969   4.800   0.683   3.326
 6542SOL    HW119970   4.720   0.622   3.329
 6542SOL    HW219971   4.881   0.630   3.302
 6543SOL     OW19972   4.951   1.570   2.655
 6543SOL    HW119973   4.972   1.644   2.590
 6543SOL    HW219974   5.019   1.570   2.728
 6544SOL     OW19975   4.183   1.152   2.603
 6544SOL    HW119976   4.112   1.125   2.668
 6544SOL    HW219977   4.157   1.124   2.510
 6545SOL     OW19978   4.995   1.797   2.453
 6545SOL    HW119979   5.039   1.861   2.389
 6545SOL    HW219980   4.945   1.849   2.523
 6546SOL     OW19981   4.756   0.549   1.878
 6546SOL    HW119982   4.715   0.631   1.839
 6546SOL    HW219983   4.820   0.575   1.951
 6547SOL     OW19984   3.802   0.556   3.248
 6547SOL    HW119985   3.894   0.555   3.207
 6547SOL    HW219986   3.796   0.630   3.315
 6548SOL     OW19987   4.285   0.222   3.009
 6548SOL    HW119988   4.323   0.138   3.046
 6548SOL    HW219989   4.197   0.241   3.053
 6549SOL     OW19990   4.590   0.454   2.504
 6549SOL    HW119991   4.558   0.526   2.442
 6549SOL    HW219992   4.614   0.373   2.451
 6550SOL     OW19993   4.741   0.039   2.615
 6550SOL    HW119994   4.669   0.044   2.546
 6550SOL    HW219995   4.717  -0.030   2.684
 6551SOL     OW19996   5.153   1.173   2.729
 6551SOL    HW119997   5.098   1.089   2.722
 6551SOL    HW219998   5.179   1.202   2.637
 6552SOL     OW19999   5.190   0.590   2.854
 6552SOL    HW120000   5.160   0.495   2.861
 6552SOL    HW220001   5.263   0.606   2.920
 6553SOL     OW20002   5.581   0.833   2.239
 6553SOL    HW120003   5.623   0.769   2.303
 6553SOL    HW220004   5.543   0.782   2.161
 6554SOL     OW20005   4.212   1.385   2.036
 6554SOL    HW120006   4.125   1.370   2.083
 6554SOL    HW220007   4.195   1.411   1.941
 6555SOL     OW20008   5.388   1.280   2.519
 6555SOL    HW120009   5.487   1.288   2.533
 6555SOL    HW220010   5.343   1.364   2.550
 6556SOL     OW20011   5.114   0.575   1.940
 6556SOL    HW120012   5.060   0.554   2.021
 6556SOL    HW220013   5.205   0.534   1.949
 6557SOL     OW20014   4.251   0.256   2.190
 6557SOL    HW120015   4.278   0.197   2.115
 6557SOL    HW220016   4.251   0.351   2.159
 6558SOL     OW20017   5.478   1.223   3.450
 6558SOL    HW120018   5.569   1.184   3.437
 6558SOL    HW220019   5.486   1.319   3.474
 6559SOL     OW20020   4.788   1.347   3.202
 6559SOL    HW120021   4.708   1.324   3.257
 6559SOL    HW220022   4.871   1.321   3.251
 6560SOL     OW20023   5.316   1.629   3.487
 6560SOL    HW120024   5.343   1.663   3.397
 6560SOL    HW220025   5.395   1.591   3.533
 6561SOL     OW20026   4.835   1.195   2.962
 6561SOL    HW120027   4.795   1.239   3.043
 6561SOL    HW220028   4.794   1.232   2.879
 6562SOL     OW20029   5.362   1.099   2.941
 6562SOL    HW120030   5.367   1.180   3.000
 6562SOL    HW220031   5.276   1.101   2.890
 6563SOL     OW20032   4.639   0.089   3.264
 6563SOL    HW120033   4.664   0.069   3.169
 6563SOL    HW220034   4.711   0.145   3.306
 6564SOL     OW20035   4.704   1.116   3.581
 6564SOL    HW120036   4.605   1.122   3.591
 6564SOL    HW220037   4.727   1.036   3.525
 6565SOL     OW20038   4.429   1.050   2.230
 6565SOL    HW120039   4.415   1.057   2.329
 6565SOL    HW220040   4.513   0.999   2.212
 6566SOL     OW20041   4.134   0.813   3.113
 6566SOL    HW120042   4.220   0.825   3.163
 6566SOL    HW220043   4.092   0.726   3.140
 6567SOL     OW20044   4.998   0.386   3.124
 6567SOL    HW120045   5.019   0.460   3.188
 6567SOL    HW220046   4.909   0.403   3.081
 6568SOL     OW20047   3.788   1.564   3.193
 6568SOL    HW120048   3.742   1.646   3.159
 6568SOL    HW220049   3.886   1.583   3.202
 6569SOL     OW20050   4.091   1.100   2.363
 6569SOL    HW120051   4.084   1.183   2.307
 6569SOL    HW220052   4.095   1.020   2.303
 6570SOL     OW20053   4.290   0.537   2.727
 6570SOL    HW120054   4.302   0.603   2.653
 6570SOL    HW220055   4.336   0.571   2.810
 6571SOL     OW20056   4.976   1.348   2.250
 6571SOL    HW120057   5.026   1.425   2.290
 6571SOL    HW220058   4.881   1.350   2.282
 6572SOL     OW20059   4.996   1.445   3.004
 6572SOL    HW120060   5.043   1.458   3.091
 6572SOL    HW220061   4.930   1.371   3.013
 6573SOL     OW20062   5.306   0.639   2.334
 6573SOL    HW120063   5.275   0.700   2.407
 6573SOL    HW220064   5.356   0.691   2.265
 6574SOL     OW20065   4.078   1.510   3.191
 6574SOL    HW120066   4.057   1.466   3.104
 6574SOL    HW220067   4.175   1.536   3.194
 6575SOL     OW20068   4.126   0.751   3.460
 6575SOL    HW120069   4.194   0.806   3.413
 6575SOL    HW220070   4.166   0.663   3.487
 6576SOL     OW20071   5.311   0.779   3.532
 6576SOL    HW120072   5.219   0.817   3.527
 6576SOL    HW220073   5.371   0.826   3.467
 6577SOL     OW20074   4.737   0.105   3.632
 6577SOL    HW120075   4.743   0.190   3.580
 6577SOL    HW220076   4.769   0.029   3.575
 6578SOL     OW20077   4.228   0.050   3.602
 6578SOL    HW120078   4.186  -0.007   3.532
 6578SOL    HW220079   4.162   0.119   3.634
 6579SOL     OW20080   4.297   0.870   2.891
 6579SOL    HW120081   4.341   0.959   2.882
 6579SOL    HW220082   4.234   0.870   2.968
 6580SOL     OW20083   5.084   0.862   2.907
 6580SOL    HW120084   5.009   0.862   2.841
 6580SOL    HW220085   5.121   0.770   2.916
 6581SOL     OW20086   4.933   0.525   2.137
 6581SOL    HW120087   4.946   0.441   2.191
 6581SOL    HW220088   4.904   0.599   2.197
 6582SOL     OW20089   4.031   0.213   3.093
 6582SOL    HW120090   4.008   0.250   3.183
 6582SOL    HW220091   4.001   0.118   3.087
 6583SOL     OW20092   3.761   1.310   3.144
 6583SOL    HW120093   3.814   1.261   3.212
 6583SOL    HW220094   3.783   1.408   3.149
 6584SOL     OW20095   4.456   0.634   2.926
 6584SOL    HW120096   4.515   0.608   2.850
 6584SOL    HW220097   4.428   0.730   2.915
 6585SOL     OW20098   5.452   0.935   3.716
 6585SOL    HW120099   5.406   0.928   3.627
 6585SOL    HW220100   5.390   0.979   3.782
 6586SOL     OW20101   4.031   0.063   2.480
 6586SOL    HW120102   4.020   0.157   2.513
 6586SOL    HW220103   4.026   0.000   2.557
 6587SOL     OW20104   5.346   0.367   2.236
 6587SOL    HW120105   5.348   0.291   2.300
 6587SOL    HW220106   5.298   0.444   2.276
 6588SOL     OW20107   4.747   0.766   2.828
 6588SOL    HW120108   4.762   0.787   2.924
 6588SOL    HW220109   4.717   0.671   2.819
 6589SOL     OW20110   4.704   1.573   3.562
 6589SOL    HW120111   4.684   1.617   3.474
 6589SOL    HW220112   4.743   1.482   3.546
 6590SOL     OW20113   5.583   1.518   3.467
 6590SOL    HW120114   5.597   1.545   3.372
 6590SOL    HW220115   5.666   1.540   3.520
 6591SOL     OW20116   4.074   0.898   3.666
 6591SOL    HW120117   4.150   0.942   3.714
 6591SOL    HW220118   4.109   0.851   3.584
 6592SOL     OW20119   5.027   0.838   1.904
 6592SOL    HW120120   5.061   0.745   1.919
 6592SOL    HW220121   5.045   0.865   1.809
 6593SOL     OW20122   4.792   1.333   2.711
 6593SOL    HW120123   4.799   1.249   2.656
 6593SOL    HW220124   4.854   1.402   2.675
 6594SOL     OW20125   4.043   0.810   2.811
 6594SOL    HW120126   4.136   0.846   2.816
 6594SOL    HW220127   4.037   0.725   2.863
 6595SOL     OW20128   4.063   0.509   2.868
 6595SOL    HW120129   4.011   0.426   2.851
 6595SOL    HW220130   4.140   0.514   2.804
 6596SOL     OW20131   4.862   0.380   3.540
 6596SOL    HW120132   4.817   0.443   3.604
 6596SOL    HW220133   4.955   0.411   3.523
 6597SOL     OW20134   4.884   0.207   3.339
 6597SOL    HW120135   4.884   0.271   3.416
 6597SOL    HW220136   4.912   0.255   3.256
 6598SOL     OW20137   3.732   1.326   2.062
 6598SOL    HW120138   3.639   1.347   2.031
 6598SOL    HW220139   3.742   1.227   2.075
 6599SOL     OW20140   3.812   1.801   2.789
 6599SOL    HW120141   3.770   1.715   2.762
 6599SOL    HW220142   3.906   1.804   2.755
 6600SOL     OW20143   4.228   1.568   2.772
 6600SOL    HW120144   4.294   1.642   2.781
 6600SOL    HW220145   4.272   1.489   2.730
 6601SOL     OW20146   4.726   0.796   3.100
 6601SOL    HW120147   4.767   0.764   3.186
 6601SOL    HW220148   4.630   0.769   3.097
 6602SOL     OW20149   3.764   0.544   2.976
 6602SOL    HW120150   3.849   0.511   2.935
 6602SOL    HW220151   3.777   0.559   3.074
 6603SOL     OW20152   3.913   0.520   3.584
 6603SOL    HW120153   3.972   0.480   3.514
 6603SOL    HW220154   3.855   0.591   3.543
 6604SOL     OW20155   5.093   0.950   3.522
 6604SOL    HW120156   5.132   1.039   3.542
 6604SOL    HW220157   5.103   0.930   3.425
 6605SOL     OW20158   4.539   0.572   2.187
 6605SOL    HW120159   4.546   0.483   2.141
 6605SOL    HW220160   4.445   0.606   2.179
 6606SOL     OW20161   5.381   0.604   3.068
 6606SOL    HW120162   5.343   0.535   3.130
 6606SOL    HW220163   5.463   0.568   3.024
 6607SOL     OW20164   3.976   1.564   3.606
 6607SOL    HW120165   3.946   1.621   3.682
 6607SOL    HW220166   3.969   1.467   3.632
 6608SOL     OW20167   4.395   0.464   3.131
 6608SOL    HW120168   4.361   0.375   3.101
 6608SOL    HW220169   4.421   0.518   3.051
 6609SOL     OW20170   4.654   1.678   3.327
 6609SOL    HW120171   4.630   1.660   3.232
 6609SOL    HW220172   4.684   1.772   3.337
 6610SOL     OW20173   4.197   0.500   2.053
 6610SOL    HW120174   4.258   0.580   2.057
 6610SOL    HW220175   4.102   0.531   2.060
 6611SOL     OW20176   3.883   1.137   3.328
 6611SOL    HW120177   3.905   1.076   3.404
 6611SOL    HW220178   3.893   1.088   3.242
 6612SOL     OW20179   5.071   1.059   3.096
 6612SOL    HW120180   5.095   0.996   3.022
 6612SOL    HW220181   4.981   1.099   3.078
 6613SOL     OW20182   5.026   0.855   2.171
 6613SOL    HW120183   4.940   0.824   2.213
 6613SOL    HW220184   5.022   0.841   2.072
 6614SOL     OW20185   5.483   1.747   3.016
 6614SOL    HW120186   5.544   1.777   2.943
 6614SOL    HW220187   5.445   1.658   2.994
 6615SOL     OW20188   4.976   1.731   2.990
 6615SOL    HW120189   5.060   1.736   2.936
 6615SOL    HW220190   4.953   1.635   3.008
 6616SOL     OW20191   3.807   1.258   2.884
 6616SOL    HW120192   3.802   1.257   2.984
 6616SOL    HW220193   3.724   1.217   2.846
 6617SOL     OW20194   4.412   1.662   3.578
 6617SOL    HW120195   4.356   1.743   3.587
 6617SOL    HW220196   4.464   1.666   3.492
 6618SOL     OW20197   5.450   0.135   2.385
 6618SOL    HW120198   5.523   0.118   2.318
 6618SOL    HW220199   5.419   0.048   2.423
 6619SOL     OW20200   5.112   1.573   2.339
 6619SOL    HW120201   5.179   1.585   2.265
 6619SOL    HW220202   5.072   1.662   2.362
 6620SOL     OW20203   3.854   1.794   3.713
 6620SOL    HW120204   3.813   1.720   3.766
 6620SOL    HW220205   3.918   1.845   3.771
 6621SOL     OW20206   5.004   0.927   2.534
 6621SOL    HW120207   5.064   0.846   2.536
 6621SOL    HW220208   5.044   0.996   2.474
 6622SOL     OW20209   4.554   1.273   3.284
 6622SOL    HW120210   4.549   1.306   3.379
 6622SOL    HW220211   4.468   1.292   3.238
 6623SOL     OW20212   4.396   1.616   2.016
 6623SOL    HW120213   4.405   1.626   1.917
 6623SOL    HW220214   4.356   1.527   2.037
 6624SOL     OW20215   5.374   1.720   3.256
 6624SOL    HW120216   5.427   1.730   3.172
 6624SOL    HW220217   5.347   1.810   3.290
 6625SOL     OW20218   3.987   0.326   2.582
 6625SOL    HW120219   3.908   0.377   2.548
 6625SOL    HW220220   3.978   0.311   2.680
 6626SOL     OW20221   4.918   1.612   1.893
 6626SOL    HW120222   4.924   1.519   1.930
 6626SOL    HW220223   4.859   1.612   1.813
 6627SOL     OW20224   4.546   1.002   3.234
 6627SOL    HW120225   4.586   1.001   3.142
 6627SOL    HW220226   4.556   1.094   3.274
 6628SOL     OW20227   4.640   0.910   2.153
 6628SOL    HW120228   4.703   0.948   2.085
 6628SOL    HW220229   4.680   0.827   2.192
 6629SOL     OW20230   5.228   1.607   1.906
 6629SOL    HW120231   5.136   1.644   1.913
 6629SOL    HW220232   5.266   1.627   1.816
 6630SOL     OW20233   4.096   1.288   3.352
 6630SOL    HW120234   4.083   1.381   3.318
 6630SOL    HW220235   4.012   1.236   3.339
 6631SOL     OW20236   5.338   1.292   3.151
 6631SOL    HW120237   5.398   1.295   3.231
 6631SOL    HW220238   5.263   1.356   3.164
 6632SOL     OW20239   4.763   1.098   2.558
 6632SOL    HW120240   4.693   1.051   2.612
 6632SOL    HW220241   4.822   1.030   2.515
 6633SOL     OW20242   4.738   0.236   2.833
 6633SOL    HW120243   4.730   0.200   2.740
 6633SOL    HW220244   4.736   0.160   2.898
 6634SOL     OW20245   4.314   1.487   2.353
 6634SOL    HW120246   4.356   1.429   2.283
 6634SOL    HW220247   4.270   1.566   2.309
 6635SOL     OW20248   5.433   0.385   3.243
 6635SOL    HW120249   5.506   0.454   3.247
 6635SOL    HW220250   5.461   0.310   3.184
 6636SOL     OW20251   3.979   1.348   2.152
 6636SOL    HW120252   3.883   1.349   2.125
 6636SOL    HW220253   3.991   1.401   2.236
 6637SOL     OW20254   3.829   1.013   3.588
 6637SOL    HW120255   3.752   0.980   3.642
 6637SOL    HW220256   3.914   0.983   3.630
 6638SOL     OW20257   4.396   0.203   3.351
 6638SOL    HW120258   4.486   0.187   3.311
 6638SOL    HW220259   4.404   0.208   3.450
 6639SOL     OW20260   3.799   0.345   1.895
 6639SOL    HW120261   3.707   0.317   1.866
 6639SOL    HW220262   3.830   0.422   1.839
 6640SOL     OW20263   5.164   0.856   3.260
 6640SOL    HW120264   5.107   0.908   3.197
 6640SOL    HW220265   5.260   0.868   3.236
 6641SOL     OW20266   3.796   0.166   2.180
 6641SOL    HW120267   3.779   0.249   2.126
 6641SOL    HW220268   3.886   0.129   2.158
 6642SOL     OW20269   4.907   1.335   1.981
 6642SOL    HW120270   4.808   1.324   1.983
 6642SOL    HW220271   4.941   1.350   2.074
 6643SOL     OW20272   4.337   0.842   3.293
 6643SOL    HW120273   4.393   0.923   3.276
 6643SOL    HW220274   4.396   0.762   3.296
 6644SOL     OW20275   5.217   1.767   2.821
 6644SOL    HW120276   5.250   1.831   2.752
 6644SOL    HW220277   5.283   1.761   2.896
 6645SOL     OW20278   4.440   0.565   3.570
 6645SOL    HW120279   4.459   0.630   3.644
 6645SOL    HW220280   4.500   0.485   3.579
 6646SOL     OW20281   5.174   1.220   3.495
 6646SOL    HW120282   5.165   1.210   3.594
 6646SOL    HW220283   5.270   1.213   3.469
 6647SOL     OW20284   4.114   1.741   3.422
 6647SOL    HW120285   4.023   1.782   3.420
 6647SOL    HW220286   4.107   1.647   3.454
 6648SOL     OW20287   5.398   0.883   3.116
 6648SOL    HW120288   5.371   0.794   3.079
 6648SOL    HW220289   5.399   0.951   3.043
 6649SOL     OW20290   4.949   0.325   2.311
 6649SOL    HW120291   5.014   0.251   2.300
 6649SOL    HW220292   4.969   0.375   2.395
 6650SOL     OW20293   4.318   0.745   2.514
 6650SOL    HW120294   4.368   0.830   2.495
 6650SOL    HW220295   4.230   0.747   2.466
 6651SOL     OW20296   5.454   0.934   3.379
 6651SOL    HW120297   5.492   1.025   3.394
 6651SOL    HW220298   5.446   0.917   3.280
 6652SOL     OW20299   4.583   1.374   1.878
 6652SOL    HW120300   4.537   1.389   1.966
 6652SOL    HW220301   4.627   1.459   1.848
 6653SOL     OW20302   4.385   1.790   2.815
 6653SOL    HW120303   4.339   1.878   2.802
 6653SOL    HW220304   4.484   1.802   2.808
 6654SOL     OW20305   4.583   0.956   2.723
 6654SOL    HW120306   4.637   0.887   2.771
 6654SOL    HW220307   4.551   1.025   2.789
 6655SOL     OW20308   4.807   0.984   1.949
 6655SOL    HW120309   4.784   1.037   1.867
 6655SOL    HW220310   4.888   0.928   1.930
 6656SOL     OW20311   5.585   1.569   2.713
 6656SOL    HW120312   5.514   1.557   2.643
 6656SOL    HW220313   5.586   1.490   2.773
 6657SOL     OW20314   3.945   1.314   3.706
 6657SOL    HW120315   3.880   1.241   3.685
 6657SOL    HW220316   3.949   1.328   3.804
 6658SOL     OW20317   3.803   1.240   2.515
 6658SOL    HW120318   3.802   1.193   2.603
 6658SOL    HW220319   3.885   1.212   2.464
 6659SOL     OW20320   4.396   1.391   3.486
 6659SOL    HW120321   4.318   1.341   3.524
 6659SOL    HW220322   4.393   1.486   3.517
 6660SOL     OW20323   4.152   0.424   2.382
 6660SOL    HW120324   4.182   0.352   2.320
 6660SOL    HW220325   4.113   0.384   2.465
 6661SOL     OW20326   5.429   1.487   2.966
 6661SOL    HW120327   5.336   1.462   2.939
 6661SOL    HW220328   5.455   1.437   3.048
 6662SOL     OW20329   4.041   0.547   3.142
 6662SOL    HW120330   4.079   0.488   3.214
 6662SOL    HW220331   4.081   0.521   3.054
 6663SOL     OW20332   4.536   1.586   2.549
 6663SOL    HW120333   4.568   1.596   2.455
 6663SOL    HW220334   4.457   1.524   2.551
 6664SOL     OW20335   5.148   0.214   2.974
 6664SOL    HW120336   5.200   0.149   3.029
 6664SOL    HW220337   5.099   0.277   3.035
 6665SOL     OW20338   4.725   0.034   3.016
 6665SOL    HW120339   4.662  -0.038   2.985
 6665SOL    HW220340   4.818  -0.002   3.016
 6666SOL     OW20341   4.494   1.330   2.163
 6666SOL    HW120342   4.448   1.243   2.180
 6666SOL    HW220343   4.585   1.327   2.204
 6667SOL     OW20344   4.342   1.567   3.146
 6667SOL    HW120345   4.337   1.649   3.203
 6667SOL    HW220346   4.431   1.564   3.101
 6668SOL     OW20347   5.076   0.052   2.030
 6668SOL    HW120348   5.111   0.011   1.946
 6668SOL    HW220349   4.986   0.014   2.050
 6669SOL     OW20350   5.024   0.453   2.553
 6669SOL    HW120351   4.965   0.533   2.557
 6669SOL    HW220352   5.039   0.418   2.646
 6670SOL     OW20353   5.317   0.221   2.744
 6670SOL    HW120354   5.233   0.220   2.798
 6670SOL    HW220355   5.319   0.304   2.688
 6671SOL     OW20356   3.763   1.077   2.162
 6671SOL    HW120357   3.862   1.066   2.153
 6671SOL    HW220358   3.723   0.991   2.194
 6672SOL     OW20359   4.599   1.646   2.199
 6672SOL    HW120360   4.522   1.611   2.145
 6672SOL    HW220361   4.567   1.717   2.261
 6673SOL     OW20362   3.954   0.628   3.837
 6673SOL    HW120363   3.861   0.626   3.874
 6673SOL    HW220364   3.955   0.589   3.745
 6674SOL     OW20365   3.949   0.275   4.720
 6674SOL    HW120366   3.984   0.258   4.812
 6674SOL    HW220367   3.861   0.230   4.708
 6675SOL     OW20368   3.743   0.368   4.371
 6675SOL    HW120369   3.661   0.411   4.410
 6675SOL    HW220370   3.715   0.295   4.308
 6676SOL     OW20371   4.293   1.275   4.889
 6676SOL    HW120372   4.200   1.268   4.852
 6676SOL    HW220373   4.304   1.364   4.933
 6677SOL     OW20374   5.279   1.511   4.427
 6677SOL    HW120375   5.222   1.495   4.508
 6677SOL    HW220376   5.220   1.521   4.347
 6678SOL     OW20377   5.467   0.618   4.580
 6678SOL    HW120378   5.500   0.712   4.580
 6678SOL    HW220379   5.518   0.564   4.646
 6679SOL     OW20380   4.859   0.703   4.441
 6679SOL    HW120381   4.916   0.781   4.416
 6679SOL    HW220382   4.799   0.729   4.517
 6680SOL     OW20383   5.479   0.607   3.955
 6680SOL    HW120384   5.467   0.594   3.856
 6680SOL    HW220385   5.449   0.526   4.004
 6681SOL     OW20386   4.492   1.144   4.747
 6681SOL    HW120387   4.414   1.161   4.807
 6681SOL    HW220388   4.526   1.231   4.711
 6682SOL     OW20389   4.574   0.798   5.547
 6682SOL    HW120390   4.570   0.874   5.612
 6682SOL    HW220391   4.596   0.834   5.456
 6683SOL     OW20392   4.409   1.012   4.389
 6683SOL    HW120393   4.478   0.996   4.459
 6683SOL    HW220394   4.336   1.069   4.427
 6684SOL     OW20395   4.410   1.161   5.527
 6684SOL    HW120396   4.470   1.240   5.541
 6684SOL    HW220397   4.324   1.192   5.486
 6685SOL     OW20398   4.059   1.435   4.785
 6685SOL    HW120399   3.981   1.404   4.732
 6685SOL    HW220400   4.117   1.493   4.728
 6686SOL     OW20401   5.184   1.505   5.063
 6686SOL    HW120402   5.208   1.599   5.089
 6686SOL    HW220403   5.168   1.451   5.145
 6687SOL     OW20404   4.162   0.392   5.223
 6687SOL    HW120405   4.244   0.336   5.232
 6687SOL    HW220406   4.081   0.334   5.227
 6688SOL     OW20407   3.955   1.713   4.207
 6688SOL    HW120408   3.989   1.790   4.261
 6688SOL    HW220409   3.999   1.713   4.117
 6689SOL     OW20410   4.851   1.341   5.414
 6689SOL    HW120411   4.898   1.341   5.502
 6689SOL    HW220412   4.803   1.254   5.403
 6690SOL     OW20413   3.954   1.434   4.262
 6690SOL    HW120414   3.928   1.530   4.262
 6690SOL    HW220415   3.883   1.380   4.307
 6691SOL     OW20416   3.964   1.091   4.610
 6691SOL    HW120417   3.978   1.007   4.662
 6691SOL    HW220418   3.909   1.155   4.665
 6692SOL     OW20419   4.344   1.786   5.163
 6692SOL    HW120420   4.252   1.769   5.198
 6692SOL    HW220421   4.372   1.878   5.189
 6693SOL     OW20422   4.330   0.964   3.847
 6693SOL    HW120423   4.337   1.048   3.793
 6693SOL    HW220424   4.376   0.977   3.935
 6694SOL     OW20425   5.318   0.114   5.204
 6694SOL    HW120426   5.300   0.181   5.132
 6694SOL    HW220427   5.315   0.160   5.293
 6695SOL     OW20428   3.846   0.643   4.287
 6695SOL    HW120429   3.801   0.555   4.304
 6695SOL    HW220430   3.845   0.697   4.371
 6696SOL     OW20431   3.751   1.596   3.841
 6696SOL    HW120432   3.732   1.500   3.862
 6696SOL    HW220433   3.718   1.654   3.916
 6697SOL     OW20434   5.413   0.922   4.336
 6697SOL    HW120435   5.508   0.893   4.344
 6697SOL    HW220436   5.405   0.987   4.261
 6698SOL     OW20437   5.365   1.108   4.156
 6698SOL    HW120438   5.451   1.110   4.104
 6698SOL    HW220439   5.379   1.155   4.244
 6699SOL     OW20440   3.837   0.737   5.321
 6699SOL    HW120441   3.925   0.724   5.366
 6699SOL    HW220442   3.824   0.834   5.299
 6700SOL     OW20443   4.337   1.365   4.450
 6700SOL    HW120444   4.288   1.278   4.459
 6700SOL    HW220445   4.314   1.408   4.363
 6701SOL     OW20446   5.017   1.228   5.147
 6701SOL    HW120447   5.054   1.155   5.089
 6701SOL    HW220448   5.069   1.233   5.232
 6702SOL     OW20449   4.533   0.004   4.226
 6702SOL    HW120450   4.573   0.095   4.217
 6702SOL    HW220451   4.433   0.012   4.232
 6703SOL     OW20452   3.921   0.976   4.988
 6703SOL    HW120453   4.010   0.931   4.974
 6703SOL    HW220454   3.848   0.911   4.969
 6704SOL     OW20455   5.249   0.999   3.914
 6704SOL    HW120456   5.186   0.923   3.927
 6704SOL    HW220457   5.297   1.017   4.000
 6705SOL     OW20458   4.911   1.792   5.340
 6705SOL    HW120459   4.935   1.852   5.264
 6705SOL    HW220460   4.918   1.697   5.310
 6706SOL     OW20461   4.041   0.251   5.525
 6706SOL    HW120462   4.112   0.322   5.531
 6706SOL    HW220463   3.953   0.290   5.553
 6707SOL     OW20464   5.190   1.417   4.677
 6707SOL    HW120465   5.131   1.423   4.757
 6707SOL    HW220466   5.175   1.329   4.631
 6708SOL     OW20467   5.391   1.714   4.296
 6708SOL    HW120468   5.350   1.691   4.208
 6708SOL    HW220469   5.373   1.640   4.361
 6709SOL     OW20470   4.322   0.729   3.994
 6709SOL    HW120471   4.346   0.798   3.926
 6709SOL    HW220472   4.244   0.762   4.048
 6710SOL     OW20473   5.005   0.345   4.668
 6710SOL    HW120474   4.919   0.295   4.655
 6710SOL    HW220475   5.067   0.291   4.724
 6711SOL     OW20476   5.300   1.662   4.031
 6711SOL    HW120477   5.389   1.708   4.034
 6711SOL    HW220478   5.279   1.638   3.936
 6712SOL     OW20479   4.531   0.605   5.189
 6712SOL    HW120480   4.484   0.602   5.278
 6712SOL    HW220481   4.480   0.550   5.123
 6713SOL     OW20482   5.118   0.469   5.398
 6713SOL    HW120483   5.098   0.512   5.486
 6713SOL    HW220484   5.196   0.407   5.407
 6714SOL     OW20485   4.697   0.890   5.296
 6714SOL    HW120486   4.743   0.806   5.267
 6714SOL    HW220487   4.641   0.924   5.221
 6715SOL     OW20488   4.715   0.410   4.966
 6715SOL    HW120489   4.638   0.444   5.020
 6715SOL    HW220490   4.681   0.359   4.887
 6716SOL     OW20491   4.765   0.701   4.153
 6716SOL    HW120492   4.791   0.697   4.249
 6716SOL    HW220493   4.680   0.650   4.139
 6717SOL     OW20494   3.800   0.811   4.513
 6717SOL    HW120495   3.899   0.799   4.522
 6717SOL    HW220496   3.776   0.906   4.534
 6718SOL     OW20497   3.854   1.821   5.295
 6718SOL    HW120498   3.844   1.806   5.394
 6718SOL    HW220499   3.768   1.857   5.259
 6719SOL     OW20500   4.589   0.348   3.919
 6719SOL    HW120501   4.648   0.411   3.870
 6719SOL    HW220502   4.608   0.254   3.890
 6720SOL     OW20503   5.443   0.585   5.555
 6720SOL    HW120504   5.417   0.674   5.519
 6720SOL    HW220505   5.441   0.517   5.482
 6721SOL     OW20506   5.086   1.144   4.269
 6721SOL    HW120507   5.169   1.115   4.221
 6721SOL    HW220508   5.037   1.211   4.213
 6722SOL     OW20509   4.274   0.196   4.609
 6722SOL    HW120510   4.269   0.191   4.709
 6722SOL    HW220511   4.276   0.292   4.580
 6723SOL     OW20512   4.732   1.456   4.201
 6723SOL    HW120513   4.686   1.528   4.149
 6723SOL    HW220514   4.728   1.476   4.299
 6724SOL     OW20515   4.075   1.801   4.577
 6724SOL    HW120516   4.125   1.715   4.583
 6724SOL    HW220517   4.140   1.878   4.574
 6725SOL     OW20518   5.519   1.066   4.597
 6725SOL    HW120519   5.457   1.051   4.521
 6725SOL    HW220520   5.467   1.077   4.682
 6726SOL     OW20521   4.951   1.550   5.230
 6726SOL    HW120522   4.957   1.473   5.294
 6726SOL    HW220523   4.899   1.524   5.150
 6727SOL     OW20524   4.045   0.943   3.966
 6727SOL    HW120525   4.127   0.982   3.924
 6727SOL    HW220526   4.018   0.861   3.917
 6728SOL     OW20527   5.182   0.735   4.452
 6728SOL    HW120528   5.177   0.670   4.527
 6728SOL    HW220529   5.262   0.794   4.465
 6729SOL     OW20530   4.185   1.266   5.451
 6729SOL    HW120531   4.135   1.267   5.365
 6729SOL    HW220532   4.122   1.248   5.527
 6730SOL     OW20533   4.835   1.776   3.961
 6730SOL    HW120534   4.775   1.714   4.011
 6730SOL    HW220535   4.866   1.732   3.876
 6731SOL     OW20536   3.926   0.285   5.222
 6731SOL    HW120537   3.846   0.345   5.209
 6731SOL    HW220538   3.916   0.236   5.308
 6732SOL     OW20539   5.356   1.377   3.805
 6732SOL    HW120540   5.324   1.471   3.795
 6732SOL    HW220541   5.280   1.314   3.793
 6733SOL     OW20542   4.188   1.743   4.047
 6733SOL    HW120543   4.221   1.782   4.133
 6733SOL    HW220544   4.264   1.736   3.982
 6734SOL     OW20545   5.124   0.107   4.150
 6734SOL    HW120546   5.100   0.070   4.060
 6734SOL    HW220547   5.223   0.123   4.154
 6735SOL     OW20548   3.973   1.785   4.965
 6735SOL    HW120549   4.030   1.720   5.015
 6735SOL    HW220550   3.957   1.752   4.872
 6736SOL     OW20551   4.664   1.698   4.628
 6736SOL    HW120552   4.744   1.641   4.649
 6736SOL    HW220553   4.615   1.658   4.551
 6737SOL     OW20554   4.106   0.700   4.204
 6737SOL    HW120555   4.151   0.610   4.201
 6737SOL    HW220556   4.012   0.689   4.237
 6738SOL     OW20557   4.338   0.122   3.841
 6738SOL    HW120558   4.436   0.100   3.848
 6738SOL    HW220559   4.307   0.105   3.748
 6739SOL     OW20560   4.505   0.264   5.473
 6739SOL    HW120561   4.572   0.203   5.516
 6739SOL    HW220562   4.432   0.283   5.538
 6740SOL     OW20563   4.612   1.514   4.919
 6740SOL    HW120564   4.589   1.489   4.825
 6740SOL    HW220565   4.673   1.445   4.958
 6741SOL     OW20566   5.075   0.590   5.157
 6741SOL    HW120567   5.103   0.547   5.242
 6741SOL    HW220568   5.100   0.686   5.158
 6742SOL     OW20569   4.527   1.402   4.648
 6742SOL    HW120570   4.617   1.416   4.606
 6742SOL    HW220571   4.456   1.404   4.577
 6743SOL     OW20572   4.646   0.503   4.623
 6743SOL    HW120573   4.621   0.494   4.527
 6743SOL    HW220574   4.694   0.421   4.654
 6744SOL     OW20575   4.263   0.064   4.236
 6744SOL    HW120576   4.182   0.065   4.294
 6744SOL    HW220577   4.266   0.147   4.181
 6745SOL     OW20578   5.158   1.188   3.765
 6745SOL    HW120579   5.190   1.112   3.822
 6745SOL    HW220580   5.066   1.215   3.795
 6746SOL     OW20581   4.021   0.035   3.895
 6746SOL    HW120582   4.070   0.119   3.874
 6746SOL    HW220583   4.083  -0.030   3.940
 6747SOL     OW20584   4.659   0.236   4.204
 6747SOL    HW120585   4.611   0.277   4.126
 6747SOL    HW220586   4.758   0.234   4.185
 6748SOL     OW20587   4.800   0.683   5.188
 6748SOL    HW120588   4.720   0.622   5.191
 6748SOL    HW220589   4.881   0.630   5.164
 6749SOL     OW20590   4.951   1.570   4.517
 6749SOL    HW120591   4.972   1.644   4.452
 6749SOL    HW220592   5.019   1.570   4.590
 6750SOL     OW20593   4.183   1.152   4.465
 6750SOL    HW120594   4.112   1.125   4.530
 6750SOL    HW220595   4.157   1.124   4.372
 6751SOL     OW20596   4.995   1.797   4.315
 6751SOL    HW120597   5.039   1.861   4.251
 6751SOL    HW220598   4.945   1.849   4.385
 6752SOL     OW20599   4.756   0.549   3.740
 6752SOL    HW120600   4.715   0.631   3.701
 6752SOL    HW220601   4.820   0.575   3.813
 6753SOL     OW20602   3.802   0.556   5.110
 6753SOL    HW120603   3.894   0.555   5.069
 6753SOL    HW220604   3.796   0.630   5.177
 6754SOL     OW20605   4.285   0.222   4.871
 6754SOL    HW120606   4.323   0.138   4.908
 6754SOL    HW220607   4.197   0.241   4.915
 6755SOL     OW20608   4.590   0.454   4.366
 6755SOL    HW120609   4.558   0.526   4.304
 6755SOL    HW220610   4.614   0.373   4.313
 6756SOL     OW20611   4.741   0.039   4.477
 6756SOL    HW120612   4.669   0.044   4.408
 6756SOL    HW220613   4.717  -0.030   4.546
 6757SOL     OW20614   5.153   1.173   4.591
 6757SOL    HW120615   5.098   1.089   4.584
 6757SOL    HW220616   5.179   1.202   4.499
 6758SOL     OW20617   5.190   0.590   4.716
 6758SOL    HW120618   5.160   0.495   4.723
 6758SOL    HW220619   5.263   0.606   4.782
 6759SOL     OW20620   5.581   0.833   4.101
 6759SOL    HW120621   5.623   0.769   4.165
 6759SOL    HW220622   5.543   0.782   4.023
 6760SOL     OW20623   4.212   1.385   3.898
 6760SOL    HW120624   4.125   1.370   3.945
 6760SOL    HW220625   4.195   1.411   3.803
 6761SOL     OW20626   5.388   1.280   4.381
 6761SOL    HW120627   5.487   1.288   4.395
 6761SOL    HW220628   5.343   1.364   4.412
 6762SOL     OW20629   5.114   0.575   3.802
 6762SOL    HW120630   5.060   0.554   3.883
 6762SOL    HW220631   5.205   0.534   3.811
 6763SOL     OW20632   4.251   0.256   4.052
 6763SOL    HW120633   4.278   0.197   3.977
 6763SOL    HW220634   4.251   0.351   4.021
 6764SOL     OW20635   5.478   1.223   5.312
 6764SOL    HW120636   5.569   1.184   5.299
 6764SOL    HW220637   5.486   1.319   5.336
 6765SOL     OW20638   4.788   1.347   5.064
 6765SOL    HW120639   4.708   1.324   5.119
 6765SOL    HW220640   4.871   1.321   5.113
 6766SOL     OW20641   5.316   1.629   5.349
 6766SOL    HW120642   5.343   1.663   5.259
 6766SOL    HW220643   5.395   1.591   5.395
 6767SOL     OW20644   4.835   1.195   4.824
 6767SOL    HW120645   4.795   1.239   4.905
 6767SOL    HW220646   4.794   1.232   4.741
 6768SOL     OW20647   5.362   1.099   4.803
 6768SOL    HW120648   5.367   1.180   4.862
 6768SOL    HW220649   5.276   1.101   4.752
 6769SOL     OW20650   4.639   0.089   5.126
 6769SOL    HW120651   4.664   0.069   5.031
 6769SOL    HW220652   4.711   0.145   5.168
 6770SOL     OW20653   4.704   1.116   5.443
 6770SOL    HW120654   4.605   1.122   5.453
 6770SOL    HW220655   4.727   1.036   5.387
 6771SOL     OW20656   4.429   1.050   4.092
 6771SOL    HW120657   4.415   1.057   4.191
 6771SOL    HW220658   4.513   0.999   4.074
 6772SOL     OW20659   4.134   0.813   4.975
 6772SOL    HW120660   4.220   0.825   5.025
 6772SOL    HW220661   4.092   0.726   5.002
 6773SOL     OW20662   4.998   0.386   4.986
 6773SOL    HW120663   5.019   0.460   5.050
 6773SOL    HW220664   4.909   0.403   4.943
 6774SOL     OW20665   3.788   1.564   5.055
 6774SOL    HW120666   3.742   1.646   5.021
 6774SOL    HW220667   3.886   1.583   5.064
 6775SOL     OW20668   4.091   1.100   4.225
 6775SOL    HW120669   4.084   1.183   4.169
 6775SOL    HW220670   4.095   1.020   4.165
 6776SOL     OW20671   4.290   0.537   4.589
 6776SOL    HW120672   4.302   0.603   4.515
 6776SOL    HW220673   4.336   0.571   4.672
 6777SOL     OW20674   4.976   1.348   4.112
 6777SOL    HW120675   5.026   1.425   4.152
 6777SOL    HW220676   4.881   1.350   4.144
 6778SOL     OW20677   4.996   1.445   4.866
 6778SOL    HW120678   5.043   1.458   4.953
 6778SOL    HW220679   4.930   1.371   4.875
 6779SOL     OW20680   5.306   0.639   4.196
 6779SOL    HW120681   5.275   0.700   4.269
 6779SOL    HW220682   5.356   0.691   4.127
 6780SOL     OW20683   4.078   1.510   5.053
 6780SOL    HW120684   4.057   1.466   4.966
 6780SOL    HW220685   4.175   1.536   5.056
 6781SOL     OW20686   4.126   0.751   5.322
 6781SOL    HW120687   4.194   0.806   5.275
 6781SOL    HW220688   4.166   0.663   5.349
 6782SOL     OW20689   5.311   0.779   5.394
 6782SOL    HW120690   5.219   0.817   5.389
 6782SOL    HW220691   5.371   0.826   5.329
 6783SOL     OW20692   4.737   0.105   5.494
 6783SOL    HW120693   4.743   0.190   5.442
 6783SOL    HW220694   4.769   0.029   5.437
 6784SOL     OW20695   4.228   0.050   5.464
 6784SOL    HW120696   4.186  -0.007   5.394
 6784SOL    HW220697   4.162   0.119   5.496
 6785SOL     OW20698   4.297   0.870   4.753
 6785SOL    HW120699   4.341   0.959   4.744
 6785SOL    HW220700   4.234   0.870   4.830
 6786SOL     OW20701   5.084   0.862   4.769
 6786SOL    HW120702   5.009   0.862   4.703
 6786SOL    HW220703   5.121   0.770   4.778
 6787SOL     OW20704   4.933   0.525   3.999
 6787SOL    HW120705   4.946   0.441   4.053
 6787SOL    HW220706   4.904   0.599   4.059
 6788SOL     OW20707   4.031   0.213   4.955
 6788SOL    HW120708   4.008   0.250   5.045
 6788SOL    HW220709   4.001   0.118   4.949
 6789SOL     OW20710   3.761   1.310   5.006
 6789SOL    HW120711   3.814   1.261   5.074
 6789SOL    HW220712   3.783   1.408   5.011
 6790SOL     OW20713   4.456   0.634   4.788
 6790SOL    HW120714   4.515   0.608   4.712
 6790SOL    HW220715   4.428   0.730   4.777
 6791SOL     OW20716   5.452   0.935   5.578
 6791SOL    HW120717   5.406   0.928   5.489
 6791SOL    HW220718   5.390   0.979   5.644
 6792SOL     OW20719   4.031   0.063   4.342
 6792SOL    HW120720   4.020   0.157   4.375
 6792SOL    HW220721   4.026   0.000   4.419
 6793SOL     OW20722   5.346   0.367   4.098
 6793SOL    HW120723   5.348   0.291   4.162
 6793SOL    HW220724   5.298   0.444   4.138
 6794SOL     OW20725   4.747   0.766   4.690
 6794SOL    HW120726   4.762   0.787   4.786
 6794SOL    HW220727   4.717   0.671   4.681
 6795SOL     OW20728   4.704   1.573   5.424
 6795SOL    HW120729   4.684   1.617   5.336
 6795SOL    HW220730   4.743   1.482   5.408
 6796SOL     OW20731   5.583   1.518   5.329
 6796SOL    HW120732   5.597   1.545   5.234
 6796SOL    HW220733   5.666   1.540   5.382
 6797SOL     OW20734   4.074   0.898   5.528
 6797SOL    HW120735   4.150   0.942   5.576
 6797SOL    HW220736   4.109   0.851   5.446
 6798SOL     OW20737   5.027   0.838   3.766
 6798SOL    HW120738   5.061   0.745   3.781
 6798SOL    HW220739   5.045   0.865   3.671
 6799SOL     OW20740   4.792   1.333   4.573
 6799SOL    HW120741   4.799   1.249   4.518
 6799SOL    HW220742   4.854   1.402   4.537
 6800SOL     OW20743   4.043   0.810   4.673
 6800SOL    HW120744   4.136   0.846   4.678
 6800SOL    HW220745   4.037   0.725   4.725
 6801SOL     OW20746   4.063   0.509   4.730
 6801SOL    HW120747   4.011   0.426   4.713
 6801SOL    HW220748   4.140   0.514   4.666
 6802SOL     OW20749   4.862   0.380   5.402
 6802SOL    HW120750   4.817   0.443   5.466
 6802SOL    HW220751   4.955   0.411   5.385
 6803SOL     OW20752   4.884   0.207   5.201
 6803SOL    HW120753   4.884   0.271   5.278
 6803SOL    HW220754   4.912   0.255   5.118
 6804SOL     OW20755   3.732   1.326   3.924
 6804SOL    HW120756   3.639   1.347   3.893
 6804SOL    HW220757   3.742   1.227   3.937
 6805SOL     OW20758   3.812   1.801   4.651
 6805SOL    HW120759   3.770   1.715   4.624
 6805SOL    HW220760   3.906   1.804   4.617
 6806SOL     OW20761   4.228   1.568   4.634
 6806SOL    HW120762   4.294   1.642   4.643
 6806SOL    HW220763   4.272   1.489   4.592
 6807SOL     OW20764   4.726   0.796   4.962
 6807SOL    HW120765   4.767   0.764   5.048
 6807SOL    HW220766   4.630   0.769   4.959
 6808SOL     OW20767   3.764   0.544   4.838
 6808SOL    HW120768   3.849   0.511   4.797
 6808SOL    HW220769   3.777   0.559   4.936
 6809SOL     OW20770   3.913   0.520   5.446
 6809SOL    HW120771   3.972   0.480   5.376
 6809SOL    HW220772   3.855   0.591   5.405
 6810SOL     OW20773   5.093   0.950   5.384
 6810SOL    HW120774   5.132   1.039   5.404
 6810SOL    HW220775   5.103   0.930   5.287
 6811SOL     OW20776   4.539   0.572   4.049
 6811SOL    HW120777   4.546   0.483   4.003
 6811SOL    HW220778   4.445   0.606   4.041
 6812SOL     OW20779   5.381   0.604   4.930
 6812SOL    HW120780   5.343   0.535   4.992
 6812SOL    HW220781   5.463   0.568   4.886
 6813SOL     OW20782   3.976   1.564   5.468
 6813SOL    HW120783   3.946   1.621   5.544
 6813SOL    HW220784   3.969   1.467   5.494
 6814SOL     OW20785   4.395   0.464   4.993
 6814SOL    HW120786   4.361   0.375   4.963
 6814SOL    HW220787   4.421   0.518   4.913
 6815SOL     OW20788   4.654   1.678   5.189
 6815SOL    HW120789   4.630   1.660   5.094
 6815SOL    HW220790   4.684   1.772   5.199
 6816SOL     OW20791   4.197   0.500   3.915
 6816SOL    HW120792   4.258   0.580   3.919
 6816SOL    HW220793   4.102   0.531   3.922
 6817SOL     OW20794   3.883   1.137   5.190
 6817SOL    HW120795   3.905   1.076   5.266
 6817SOL    HW220796   3.893   1.088   5.104
 6818SOL     OW20797   5.071   1.059   4.958
 6818SOL    HW120798   5.095   0.996   4.884
 6818SOL    HW220799   4.981   1.099   4.940
 6819SOL     OW20800   5.026   0.855   4.033
 6819SOL    HW120801   4.940   0.824   4.075
 6819SOL    HW220802   5.022   0.841   3.934
 6820SOL     OW20803   5.483   1.747   4.878
 6820SOL    HW120804   5.544   1.777   4.805
 6820SOL    HW220805   5.445   1.658   4.856
 6821SOL     OW20806   4.976   1.731   4.852
 6821SOL    HW120807   5.060   1.736   4.798
 6821SOL    HW220808   4.953   1.635   4.870
 6822SOL     OW20809   3.807   1.258   4.746
 6822SOL    HW120810   3.802   1.257   4.846
 6822SOL    HW220811   3.724   1.217   4.708
 6823SOL     OW20812   4.412   1.662   5.440
 6823SOL    HW120813   4.356   1.743   5.449
 6823SOL    HW220814   4.464   1.666   5.354
 6824SOL     OW20815   5.450   0.135   4.247
 6824SOL    HW120816   5.523   0.118   4.180
 6824SOL    HW220817   5.419   0.048   4.285
 6825SOL     OW20818   5.112   1.573   4.201
 6825SOL    HW120819   5.179   1.585   4.127
 6825SOL    HW220820   5.072   1.662   4.224
 6826SOL     OW20821   3.854   1.794   5.575
 6826SOL    HW120822   3.813   1.720   5.628
 6826SOL    HW220823   3.918   1.845   5.633
 6827SOL     OW20824   5.004   0.927   4.396
 6827SOL    HW120825   5.064   0.846   4.398
 6827SOL    HW220826   5.044   0.996   4.336
 6828SOL     OW20827   4.554   1.273   5.146
 6828SOL    HW120828   4.549   1.306   5.241
 6828SOL    HW220829   4.468   1.292   5.100
 6829SOL     OW20830   4.396   1.616   3.878
 6829SOL    HW120831   4.405   1.626   3.779
 6829SOL    HW220832   4.356   1.527   3.899
 6830SOL     OW20833   5.374   1.720   5.118
 6830SOL    HW120834   5.427   1.730   5.034
 6830SOL    HW220835   5.347   1.810   5.152
 6831SOL     OW20836   3.987   0.326   4.444
 6831SOL    HW120837   3.908   0.377   4.410
 6831SOL    HW220838   3.978   0.311   4.542
 6832SOL     OW20839   4.918   1.612   3.755
 6832SOL    HW120840   4.924   1.519   3.792
 6832SOL    HW220841   4.859   1.612   3.675
 6833SOL     OW20842   4.546   1.002   5.096
 6833SOL    HW120843   4.586   1.001   5.004
 6833SOL    HW220844   4.556   1.094   5.136
 6834SOL     OW20845   4.640   0.910   4.015
 6834SOL    HW120846   4.703   0.948   3.947
 6834SOL    HW220847   4.680   0.827   4.054
 6835SOL     OW20848   5.228   1.607   3.768
 6835SOL    HW120849   5.136   1.644   3.775
 6835SOL    HW220850   5.266   1.627   3.678
 6836SOL     OW20851   4.096   1.288   5.214
 6836SOL    HW120852   4.083   1.381   5.180
 6836SOL    HW220853   4.012   1.236   5.201
 6837SOL     OW20854   5.338   1.292   5.013
 6837SOL    HW120855   5.398   1.295   5.093
 6837SOL    HW220856   5.263   1.356   5.026
 6838SOL     OW20857   4.763   1.098   4.420
 6838SOL    HW120858   4.693   1.051   4.474
 6838SOL    HW220859   4.822   1.030   4.377
 6839SOL     OW20860   4.738   0.236   4.695
 6839SOL    HW120861   4.730   0.200   4.602
 6839SOL    HW220862   4.736   0.160   4.760
 6840SOL     OW20863   4.314   1.487   4.215
 6840SOL    HW120864   4.356   1.429   4.145
 6840SOL    HW220865   4.270   1.566   4.171
 6841SOL     OW20866   5.433   0.385   5.105
 6841SOL    HW120867   5.506   0.454   5.109
 6841SOL    HW220868   5.461   0.310   5.046
 6842SOL     OW20869   3.979   1.348   4.014
 6842SOL    HW120870   3.883   1.349   3.987
 6842SOL    HW220871   3.991   1.401   4.098
 6843SOL     OW20872   3.829   1.013   5.450
 6843SOL    HW120873   3.752   0.980   5.504
 6843SOL    HW220874   3.914   0.983   5.492
 6844SOL     OW20875   4.396   0.203   5.213
 6844SOL    HW120876   4.486   0.187   5.173
 6844SOL    HW220877   4.404   0.208   5.312
 6845SOL     OW20878   3.799   0.345   3.757
 6845SOL    HW120879   3.707   0.317   3.728
 6845SOL    HW220880   3.830   0.422   3.701
 6846SOL     OW20881   5.164   0.856   5.122
 6846SOL    HW120882   5.107   0.908   5.059
 6846SOL    HW220883   5.260   0.868   5.098
 6847SOL     OW20884   3.796   0.166   4.042
 6847SOL    HW120885   3.779   0.249   3.988
 6847SOL    HW220886   3.886   0.129   4.020
 6848SOL     OW20887   4.907   1.335   3.843
 6848SOL    HW120888   4.808   1.324   3.845
 6848SOL    HW220889   4.941   1.350   3.936
 6849SOL     OW20890   4.337   0.842   5.155
 6849SOL    HW120891   4.393   0.923   5.138
 6849SOL    HW220892   4.396   0.762   5.158
 6850SOL     OW20893   5.217   1.767   4.683
 6850SOL    HW120894   5.250   1.831   4.614
 6850SOL    HW220895   5.283   1.761   4.758
 6851SOL     OW20896   4.440   0.565   5.432
 6851SOL    HW120897   4.459   0.630   5.506
 6851SOL    HW220898   4.500   0.485   5.441
 6852SOL     OW20899   5.174   1.220   5.357
 6852SOL    HW120900   5.165   1.210   5.456
 6852SOL    HW220901   5.270   1.213   5.331
 6853SOL     OW20902   4.114   1.741   5.284
 6853SOL    HW120903   4.023   1.782   5.282
 6853SOL    HW220904   4.107   1.647   5.316
 6854SOL     OW20905   5.398   0.883   4.978
 6854SOL    HW120906   5.371   0.794   4.941
 6854SOL    HW220907   5.399   0.951   4.905
 6855SOL     OW20908   4.949   0.325   4.173
 6855SOL    HW120909   5.014   0.251   4.162
 6855SOL    HW220910   4.969   0.375   4.257
 6856SOL     OW20911   4.318   0.745   4.376
 6856SOL    HW120912   4.368   0.830   4.357
 6856SOL    HW220913   4.230   0.747   4.328
 6857SOL     OW20914   5.454   0.934   5.241
 6857SOL    HW120915   5.492   1.025   5.256
 6857SOL    HW220916   5.446   0.917   5.142
 6858SOL     OW20917   4.583   1.374   3.740
 6858SOL    HW120918   4.537   1.389   3.828
 6858SOL    HW220919   4.627   1.459   3.710
 6859SOL     OW20920   4.385   1.790   4.677
 6859SOL    HW120921   4.339   1.878   4.664
 6859SOL    HW220922   4.484   1.802   4.670
 6860SOL     OW20923   4.583   0.956   4.585
 6860SOL    HW120924   4.637   0.887   4.633
 6860SOL    HW220925   4.551   1.025   4.651
 6861SOL     OW20926   4.807   0.984   3.811
 6861SOL    HW120927   4.784   1.037   3.729
 6861SOL    HW220928   4.888   0.928   3.792
 6862SOL     OW20929   5.585   1.569   4.575
 6862SOL    HW120930   5.514   1.557   4.505
 6862SOL    HW220931   5.586   1.490   4.635
 6863SOL     OW20932   3.945   1.314   5.568
 6863SOL    HW120933   3.880   1.241   5.547
 6863SOL    HW220934   3.949   1.328   5.666
 6864SOL     OW20935   3.803   1.240   4.377
 6864SOL    HW120936   3.802   1.193   4.465
 6864SOL    HW220937   3.885   1.212   4.326
 6865SOL     OW20938   4.396   1.391   5.348
 6865SOL    HW120939   4.318   1.341   5.386
 6865SOL    HW220940   4.393   1.486   5.379
 6866SOL     OW20941   5.429   1.487   4.828
 6866SOL    HW120942   5.336   1.462   4.801
 6866SOL    HW220943   5.455   1.437   4.910
 6867SOL     OW20944   4.041   0.547   5.004
 6867SOL    HW120945   4.079   0.488   5.076
 6867SOL    HW220946   4.081   0.521   4.916
 6868SOL     OW20947   4.536   1.586   4.411
 6868SOL    HW120948   4.568   1.596   4.317
 6868SOL    HW220949   4.457   1.524   4.413
 6869SOL     OW20950   5.148   0.214   4.836
 6869SOL    HW120951   5.200   0.149   4.891
 6869SOL    HW220952   5.099   0.277   4.897
 6870SOL     OW20953   4.725   0.034   4.878
 6870SOL    HW120954   4.662  -0.038   4.847
 6870SOL    HW220955   4.818  -0.002   4.878
 6871SOL     OW20956   4.494   1.330   4.025
 6871SOL    HW120957   4.448   1.243   4.042
 6871SOL    HW220958   4.585   1.327   4.066
 6872SOL     OW20959   4.342   1.567   5.008
 6872SOL    HW120960   4.337   1.649   5.065
 6872SOL    HW220961   4.431   1.564   4.963
 6873SOL     OW20962   5.076   0.052   3.892
 6873SOL    HW120963   5.111   0.011   3.808
 6873SOL    HW220964   4.986   0.014   3.912
 6874SOL     OW20965   5.024   0.453   4.415
 6874SOL    HW120966   4.965   0.533   4.419
 6874SOL    HW220967   5.039   0.418   4.508
 6875SOL     OW20968   5.317   0.221   4.606
 6875SOL    HW120969   5.233   0.220   4.660
 6875SOL    HW220970   5.319   0.304   4.550
 6876SOL     OW20971   3.763   1.077   4.024
 6876SOL    HW120972   3.862   1.066   4.015
 6876SOL    HW220973   3.723   0.991   4.056
 6877SOL     OW20974   4.599   1.646   4.061
 6877SOL    HW120975   4.522   1.611   4.007
 6877SOL    HW220976   4.567   1.717   4.123
 6878SOL     OW20977   3.954   0.628   5.699
 6878SOL    HW120978   3.861   0.626   5.736
 6878SOL    HW220979   3.955   0.589   5.607
 6879SOL     OW20980   3.949   0.275   6.582
 6879SOL    HW120981   3.984   0.258   6.674
 6879SOL    HW220982   3.861   0.230   6.570
 6880SOL     OW20983   3.743   0.368   6.233
 6880SOL    HW120984   3.661   0.411   6.272
 6880SOL    HW220985   3.715   0.295   6.170
 6881SOL     OW20986   5.279   1.511   6.289
 6881SOL    HW120987   5.222   1.495   6.370
 6881SOL    HW220988   5.220   1.521   6.209
 6882SOL     OW20989   4.859   0.703   6.303
 6882SOL    HW120990   4.916   0.781   6.278
 6882SOL    HW220991   4.799   0.729   6.379
 6883SOL     OW20992   5.479   0.607   5.817
 6883SOL    HW120993   5.467   0.594   5.718
 6883SOL    HW220994   5.449   0.526   5.866
 6884SOL     OW20995   4.409   1.012   6.251
 6884SOL    HW120996   4.478   0.996   6.321
 6884SOL    HW220997   4.336   1.069   6.289
 6885SOL     OW20998   3.955   1.713   6.069
 6885SOL    HW120999   3.989   1.790   6.123
 6885SOL    HW221000   3.999   1.713   5.979
 6886SOL     OW21001   3.954   1.434   6.124
 6886SOL    HW121002   3.928   1.530   6.124
 6886SOL    HW221003   3.883   1.380   6.169
 6887SOL     OW21004   4.330   0.964   5.709
 6887SOL    HW121005   4.337   1.048   5.655
 6887SOL    HW221006   4.376   0.977   5.797
 6888SOL     OW21007   3.846   0.643   6.149
 6888SOL    HW121008   3.801   0.555   6.166
 6888SOL    HW221009   3.845   0.697   6.233
 6889SOL     OW21010   5.566   1.767   5.945
 6889SOL    HW121011   5.620   1.738   6.025
 6889SOL    HW221012   5.596   1.857   5.916
 6890SOL     OW21013   3.751   1.596   5.703
 6890SOL    HW121014   3.732   1.500   5.724
 6890SOL    HW221015   3.718   1.654   5.778
 6891SOL     OW21016   5.413   0.922   6.198
 6891SOL    HW121017   5.508   0.893   6.206
 6891SOL    HW221018   5.405   0.987   6.123
 6892SOL     OW21019   5.365   1.108   6.018
 6892SOL    HW121020   5.451   1.110   5.966
 6892SOL    HW221021   5.379   1.155   6.106
 6893SOL     OW21022   4.337   1.365   6.312
 6893SOL    HW121023   4.288   1.278   6.321
 6893SOL    HW221024   4.314   1.408   6.225
 6894SOL     OW21025   4.533   0.004   6.088
 6894SOL    HW121026   4.573   0.095   6.079
 6894SOL    HW221027   4.433   0.012   6.094
 6895SOL     OW21028   5.249   0.999   5.776
 6895SOL    HW121029   5.186   0.923   5.789
 6895SOL    HW221030   5.297   1.017   5.862
 6896SOL     OW21031   5.391   1.714   6.158
 6896SOL    HW121032   5.350   1.691   6.070
 6896SOL    HW221033   5.373   1.640   6.223
 6897SOL     OW21034   4.322   0.729   5.856
 6897SOL    HW121035   4.346   0.798   5.788
 6897SOL    HW221036   4.244   0.762   5.910
 6898SOL     OW21037   5.005   0.345   6.530
 6898SOL    HW121038   4.919   0.295   6.517
 6898SOL    HW221039   5.067   0.291   6.586
 6899SOL     OW21040   5.300   1.662   5.893
 6899SOL    HW121041   5.389   1.708   5.896
 6899SOL    HW221042   5.279   1.638   5.798
 6900SOL     OW21043   4.715   0.410   6.828
 6900SOL    HW121044   4.638   0.444   6.882
 6900SOL    HW221045   4.681   0.359   6.749
 6901SOL     OW21046   4.765   0.701   6.015
 6901SOL    HW121047   4.791   0.697   6.111
 6901SOL    HW221048   4.680   0.650   6.001
 6902SOL     OW21049   4.589   0.348   5.781
 6902SOL    HW121050   4.648   0.411   5.732
 6902SOL    HW221051   4.608   0.254   5.752
 6903SOL     OW21052   5.086   1.144   6.131
 6903SOL    HW121053   5.169   1.115   6.083
 6903SOL    HW221054   5.037   1.211   6.075
 6904SOL     OW21055   4.732   1.456   6.063
 6904SOL    HW121056   4.686   1.528   6.011
 6904SOL    HW221057   4.728   1.476   6.161
 6905SOL     OW21058   4.075   1.801   6.439
 6905SOL    HW121059   4.125   1.715   6.445
 6905SOL    HW221060   4.140   1.878   6.436
 6906SOL     OW21061   4.045   0.943   5.828
 6906SOL    HW121062   4.127   0.982   5.786
 6906SOL    HW221063   4.018   0.861   5.779
 6907SOL     OW21064   5.182   0.735   6.314
 6907SOL    HW121065   5.177   0.670   6.389
 6907SOL    HW221066   5.262   0.794   6.327
 6908SOL     OW21067   4.835   1.776   5.823
 6908SOL    HW121068   4.775   1.714   5.873
 6908SOL    HW221069   4.866   1.732   5.738
 6909SOL     OW21070   5.356   1.377   5.667
 6909SOL    HW121071   5.324   1.471   5.657
 6909SOL    HW221072   5.280   1.314   5.655
 6910SOL     OW21073   4.188   1.743   5.909
 6910SOL    HW121074   4.221   1.782   5.995
 6910SOL    HW221075   4.264   1.736   5.844
 6911SOL     OW21076   5.124   0.107   6.012
 6911SOL    HW121077   5.100   0.070   5.922
 6911SOL    HW221078   5.223   0.123   6.016
 6912SOL     OW21079   4.664   1.698   6.490
 6912SOL    HW121080   4.744   1.641   6.511
 6912SOL    HW221081   4.615   1.658   6.413
 6913SOL     OW21082   4.106   0.700   6.066
 6913SOL    HW121083   4.151   0.610   6.063
 6913SOL    HW221084   4.012   0.689   6.099
 6914SOL     OW21085   4.338   0.122   5.703
 6914SOL    HW121086   4.436   0.100   5.710
 6914SOL    HW221087   4.307   0.105   5.610
 6915SOL     OW21088   4.527   1.402   6.510
 6915SOL    HW121089   4.617   1.416   6.468
 6915SOL    HW221090   4.456   1.404   6.439
 6916SOL     OW21091   4.263   0.064   6.098
 6916SOL    HW121092   4.182   0.065   6.156
 6916SOL    HW221093   4.266   0.147   6.043
 6917SOL     OW21094   5.158   1.188   5.627
 6917SOL    HW121095   5.190   1.112   5.684
 6917SOL    HW221096   5.066   1.215   5.657
 6918SOL     OW21097   4.021   0.035   5.757
 6918SOL    HW121098   4.070   0.119   5.736
 6918SOL    HW221099   4.083  -0.030   5.802
 6919SOL     OW21100   4.659   0.236   6.066
 6919SOL    HW121101   4.611   0.277   5.988
 6919SOL    HW221102   4.758   0.234   6.047
 6920SOL     OW21103   4.951   1.570   6.379
 6920SOL    HW121104   4.972   1.644   6.314
 6920SOL    HW221105   5.019   1.570   6.452
 6921SOL     OW21106   4.183   1.152   6.327
 6921SOL    HW121107   4.112   1.125   6.392
 6921SOL    HW221108   4.157   1.124   6.234
 6922SOL     OW21109   4.995   1.797   6.177
 6922SOL    HW121110   5.039   1.861   6.113
 6922SOL    HW221111   4.945   1.849   6.247
 6923SOL     OW21112   4.756   0.549   5.602
 6923SOL    HW121113   4.715   0.631   5.563
 6923SOL    HW221114   4.820   0.575   5.675
 6924SOL     OW21115   4.590   0.454   6.228
 6924SOL    HW121116   4.558   0.526   6.166
 6924SOL    HW221117   4.614   0.373   6.175
 6925SOL     OW21118   4.741   0.039   6.339
 6925SOL    HW121119   4.669   0.044   6.270
 6925SOL    HW221120   4.717  -0.030   6.408
 6926SOL     OW21121   5.153   1.173   6.453
 6926SOL    HW121122   5.098   1.089   6.446
 6926SOL    HW221123   5.179   1.202   6.361
 6927SOL     OW21124   5.190   0.590   6.578
 6927SOL    HW121125   5.160   0.495   6.585
 6927SOL    HW221126   5.263   0.606   6.644
 6928SOL     OW21127   5.581   0.833   5.963
 6928SOL    HW121128   5.623   0.769   6.027
 6928SOL    HW221129   5.543   0.782   5.885
 6929SOL     OW21130   4.212   1.385   5.760
 6929SOL    HW121131   4.125   1.370   5.807
 6929SOL    HW221132   4.195   1.411   5.665
 6930SOL     OW21133   5.388   1.280   6.243
 6930SOL    HW121134   5.487   1.288   6.257
 6930SOL    HW221135   5.343   1.364   6.274
 6931SOL     OW21136   5.114   0.575   5.664
 6931SOL    HW121137   5.060   0.554   5.745
 6931SOL    HW221138   5.205   0.534   5.673
 6932SOL     OW21139   4.251   0.256   5.914
 6932SOL    HW121140   4.278   0.197   5.839
 6932SOL    HW221141   4.251   0.351   5.883
 6933SOL     OW21142   5.362   1.099   6.665
 6933SOL    HW121143   5.367   1.180   6.724
 6933SOL    HW221144   5.276   1.101   6.614
 6934SOL     OW21145   4.429   1.050   5.954
 6934SOL    HW121146   4.415   1.057   6.053
 6934SOL    HW221147   4.513   0.999   5.936
 6935SOL     OW21148   4.091   1.100   6.087
 6935SOL    HW121149   4.084   1.183   6.031
 6935SOL    HW221150   4.095   1.020   6.027
 6936SOL     OW21151   4.290   0.537   6.451
 6936SOL    HW121152   4.302   0.603   6.377
 6936SOL    HW221153   4.336   0.571   6.534
 6937SOL     OW21154   4.976   1.348   5.974
 6937SOL    HW121155   5.026   1.425   6.014
 6937SOL    HW221156   4.881   1.350   6.006
 6938SOL     OW21157   5.306   0.639   6.058
 6938SOL    HW121158   5.275   0.700   6.131
 6938SOL    HW221159   5.356   0.691   5.989
 6939SOL     OW21160   4.933   0.525   5.861
 6939SOL    HW121161   4.946   0.441   5.915
 6939SOL    HW221162   4.904   0.599   5.921
 6940SOL     OW21163   4.031   0.063   6.204
 6940SOL    HW121164   4.020   0.157   6.237
 6940SOL    HW221165   4.026   0.000   6.281
 6941SOL     OW21166   5.346   0.367   5.960
 6941SOL    HW121167   5.348   0.291   6.024
 6941SOL    HW221168   5.298   0.444   6.000
 6942SOL     OW21169   5.027   0.838   5.628
 6942SOL    HW121170   5.061   0.745   5.643
 6942SOL    HW221171   5.045   0.865   5.533
 6943SOL     OW21172   4.792   1.333   6.435
 6943SOL    HW121173   4.799   1.249   6.380
 6943SOL    HW221174   4.854   1.402   6.399
 6944SOL     OW21175   3.732   1.326   5.786
 6944SOL    HW121176   3.639   1.347   5.755
 6944SOL    HW221177   3.742   1.227   5.799
 6945SOL     OW21178   3.812   1.801   6.513
 6945SOL    HW121179   3.770   1.715   6.486
 6945SOL    HW221180   3.906   1.804   6.479
 6946SOL     OW21181   4.539   0.572   5.911
 6946SOL    HW121182   4.546   0.483   5.865
 6946SOL    HW221183   4.445   0.606   5.903
 6947SOL     OW21184   4.197   0.500   5.777
 6947SOL    HW121185   4.258   0.580   5.781
 6947SOL    HW221186   4.102   0.531   5.784
 6948SOL     OW21187   5.026   0.855   5.895
 6948SOL    HW121188   4.940   0.824   5.937
 6948SOL    HW221189   5.022   0.841   5.796
 6949SOL     OW21190   5.450   0.135   6.109
 6949SOL    HW121191   5.523   0.118   6.042
 6949SOL    HW221192   5.419   0.048   6.147
 6950SOL     OW21193   5.112   1.573   6.063
 6950SOL    HW121194   5.179   1.585   5.989
 6950SOL    HW221195   5.072   1.662   6.086
 6951SOL     OW21196   5.004   0.927   6.258
 6951SOL    HW121197   5.064   0.846   6.260
 6951SOL    HW221198   5.044   0.996   6.198
 6952SOL     OW21199   4.396   1.616   5.740
 6952SOL    HW121200   4.405   1.626   5.641
 6952SOL    HW221201   4.356   1.527   5.761
 6953SOL     OW21202   3.987   0.326   6.306
 6953SOL    HW121203   3.908   0.377   6.272
 6953SOL    HW221204   3.978   0.311   6.404
 6954SOL     OW21205   4.918   1.612   5.617
 6954SOL    HW121206   4.924   1.519   5.654
 6954SOL    HW221207   4.859   1.612   5.537
 6955SOL     OW21208   4.640   0.910   5.877
 6955SOL    HW121209   4.703   0.948   5.809
 6955SOL    HW221210   4.680   0.827   5.916
 6956SOL     OW21211   5.228   1.607   5.630
 6956SOL    HW121212   5.136   1.644   5.637
 6956SOL    HW221213   5.266   1.627   5.540
 6957SOL     OW21214   4.763   1.098   6.282
 6957SOL    HW121215   4.693   1.051   6.336
 6957SOL    HW221216   4.822   1.030   6.239
 6958SOL     OW21217   4.314   1.487   6.077
 6958SOL    HW121218   4.356   1.429   6.007
 6958SOL    HW221219   4.270   1.566   6.033
 6959SOL     OW21220   3.979   1.348   5.876
 6959SOL    HW121221   3.883   1.349   5.849
 6959SOL    HW221222   3.991   1.401   5.960
 6960SOL     OW21223   3.799   0.345   5.619
 6960SOL    HW121224   3.707   0.317   5.590
 6960SOL    HW221225   3.830   0.422   5.563
 6961SOL     OW21226   3.796   0.166   5.904
 6961SOL    HW121227   3.779   0.249   5.850
 6961SOL    HW221228   3.886   0.129   5.882
 6962SOL     OW21229   4.907   1.335   5.705
 6962SOL    HW121230   4.808   1.324   5.707
 6962SOL    HW221231   4.941   1.350   5.798
 6963SOL     OW21232   5.217   1.767   6.545
 6963SOL    HW121233   5.250   1.831   6.476
 6963SOL    HW221234   5.283   1.761   6.620
 6964SOL     OW21235   4.949   0.325   6.035
 6964SOL    HW121236   5.014   0.251   6.024
 6964SOL    HW221237   4.969   0.375   6.119
 6965SOL     OW21238   4.318   0.745   6.238
 6965SOL    HW121239   4.368   0.830   6.219
 6965SOL    HW221240   4.230   0.747   6.190
 6966SOL     OW21241   4.583   1.374   5.602
 6966SOL    HW121242   4.537   1.389   5.690
 6966SOL    HW221243   4.627   1.459   5.572
 6967SOL     OW21244   4.385   1.790   6.539
 6967SOL    HW121245   4.339   1.878   6.526
 6967SOL    HW221246   4.484   1.802   6.532
 6968SOL     OW21247   4.583   0.956   6.447
 6968SOL    HW121248   4.637   0.887   6.495
 6968SOL    HW221249   4.551   1.025   6.513
 6969SOL     OW21250   4.807   0.984   5.673
 6969SOL    HW121251   4.784   1.037   5.591
 6969SOL    HW221252   4.888   0.928   5.654
 6970SOL     OW21253   3.803   1.240   6.239
 6970SOL    HW121254   3.802   1.193   6.327
 6970SOL    HW221255   3.885   1.212   6.188
 6971SOL     OW21256   4.152   0.424   6.106
 6971SOL    HW121257   4.182   0.352   6.044
 6971SOL    HW221258   4.113   0.384   6.189
 6972SOL     OW21259   4.536   1.586   6.273
 6972SOL    HW121260   4.568   1.596   6.179
 6972SOL    HW221261   4.457   1.524   6.275
 6973SOL     OW21262   4.494   1.330   5.887
 6973SOL    HW121263   4.448   1.243   5.904
 6973SOL    HW221264   4.585   1.327   5.928
 6974SOL     OW21265   5.076   0.052   5.754
 6974SOL    HW121266   5.111   0.011   5.670
 6974SOL    HW221267   4.986   0.014   5.774
 6975SOL     OW21268   5.024   0.453   6.277
 6975SOL    HW121269   4.965   0.533   6.281
 6975SOL    HW221270   5.039   0.418   6.370
 6976SOL     OW21271   5.317   0.221   6.468
 6976SOL    HW121272   5.233   0.220   6.522
 6976SOL    HW221273   5.319   0.304   6.412
 6977SOL     OW21274   3.763   1.077   5.886
 6977SOL    HW121275   3.862   1.066   5.877
 6977SOL    HW221276   3.723   0.991   5.918
 6978SOL     OW21277   4.599   1.646   5.923
 6978SOL    HW121278   4.522   1.611   5.869
 6978SOL    HW221279   4.567   1.717   5.985
 6979SOL     OW21280   3.949   2.137   0.996
 6979SOL    HW121281   3.984   2.120   1.088
 6979SOL    HW221282   3.861   2.092   0.984
 6980SOL     OW21283   3.743   2.230   0.647
 6980SOL    HW121284   3.661   2.273   0.686
 6980SOL    HW221285   3.715   2.157   0.584
 6981SOL     OW21286   4.293   3.137   1.165
 6981SOL    HW121287   4.200   3.130   1.128
 6981SOL    HW221288   4.304   3.226   1.209
 6982SOL     OW21289   5.279   3.373   0.703
 6982SOL    HW121290   5.222   3.357   0.784
 6982SOL    HW221291   5.220   3.383   0.623
 6983SOL     OW21292   4.859   2.565   0.717
 6983SOL    HW121293   4.916   2.643   0.692
 6983SOL    HW221294   4.799   2.591   0.793
 6984SOL     OW21295   4.492   3.006   1.023
 6984SOL    HW121296   4.414   3.023   1.083
 6984SOL    HW221297   4.526   3.093   0.987
 6985SOL     OW21298   4.574   2.660   1.823
 6985SOL    HW121299   4.570   2.736   1.888
 6985SOL    HW221300   4.596   2.696   1.732
 6986SOL     OW21301   4.409   2.874   0.665
 6986SOL    HW121302   4.478   2.858   0.735
 6986SOL    HW221303   4.336   2.931   0.703
 6987SOL     OW21304   4.410   3.023   1.803
 6987SOL    HW121305   4.470   3.102   1.817
 6987SOL    HW221306   4.324   3.054   1.762
 6988SOL     OW21307   4.059   3.297   1.061
 6988SOL    HW121308   3.981   3.266   1.008
 6988SOL    HW221309   4.117   3.355   1.004
 6989SOL     OW21310   5.184   3.367   1.339
 6989SOL    HW121311   5.208   3.461   1.365
 6989SOL    HW221312   5.168   3.313   1.421
 6990SOL     OW21313   4.162   2.254   1.499
 6990SOL    HW121314   4.244   2.198   1.508
 6990SOL    HW221315   4.081   2.196   1.503
 6991SOL     OW21316   5.327   2.309   0.737
 6991SOL    HW121317   5.253   2.355   0.687
 6991SOL    HW221318   5.378   2.377   0.790
 6992SOL     OW21319   3.955   3.575   0.483
 6992SOL    HW121320   3.989   3.652   0.537
 6992SOL    HW221321   3.999   3.575   0.393
 6993SOL     OW21322   4.851   3.203   1.690
 6993SOL    HW121323   4.898   3.203   1.778
 6993SOL    HW221324   4.803   3.116   1.679
 6994SOL     OW21325   3.954   3.296   0.538
 6994SOL    HW121326   3.928   3.392   0.538
 6994SOL    HW221327   3.883   3.242   0.583
 6995SOL     OW21328   3.964   2.953   0.886
 6995SOL    HW121329   3.978   2.869   0.938
 6995SOL    HW221330   3.909   3.017   0.941
 6996SOL     OW21331   4.344   3.648   1.439
 6996SOL    HW121332   4.252   3.631   1.474
 6996SOL    HW221333   4.372   3.740   1.465
 6997SOL     OW21334   5.318   1.976   1.480
 6997SOL    HW121335   5.300   2.043   1.408
 6997SOL    HW221336   5.315   2.022   1.569
 6998SOL     OW21337   3.846   2.505   0.563
 6998SOL    HW121338   3.801   2.417   0.580
 6998SOL    HW221339   3.845   2.559   0.647
 6999SOL     OW21340   5.413   2.784   0.612
 6999SOL    HW121341   5.508   2.755   0.620
 6999SOL    HW221342   5.405   2.849   0.537
 7000SOL     OW21343   5.365   2.970   0.432
 7000SOL    HW121344   5.451   2.972   0.380
 7000SOL    HW221345   5.379   3.017   0.520
 7001SOL     OW21346   3.837   2.599   1.597
 7001SOL    HW121347   3.925   2.586   1.642
 7001SOL    HW221348   3.824   2.696   1.575
 7002SOL     OW21349   4.337   3.227   0.726
 7002SOL    HW121350   4.288   3.140   0.735
 7002SOL    HW221351   4.314   3.270   0.639
 7003SOL     OW21352   5.017   3.090   1.423
 7003SOL    HW121353   5.054   3.017   1.365
 7003SOL    HW221354   5.069   3.095   1.508
 7004SOL     OW21355   4.533   1.866   0.502
 7004SOL    HW121356   4.573   1.957   0.493
 7004SOL    HW221357   4.433   1.874   0.508
 7005SOL     OW21358   3.921   2.838   1.264
 7005SOL    HW121359   4.010   2.793   1.250
 7005SOL    HW221360   3.848   2.773   1.245
 7006SOL     OW21361   4.911   3.654   1.616
 7006SOL    HW121362   4.935   3.714   1.540
 7006SOL    HW221363   4.918   3.559   1.586
 7007SOL     OW21364   4.041   2.113   1.801
 7007SOL    HW121365   4.112   2.184   1.807
 7007SOL    HW221366   3.953   2.152   1.829
 7008SOL     OW21367   5.190   3.279   0.953
 7008SOL    HW121368   5.131   3.285   1.033
 7008SOL    HW221369   5.175   3.191   0.907
 7009SOL     OW21370   5.391   3.576   0.572
 7009SOL    HW121371   5.350   3.553   0.484
 7009SOL    HW221372   5.373   3.502   0.637
 7010SOL     OW21373   5.005   2.207   0.944
 7010SOL    HW121374   4.919   2.157   0.931
 7010SOL    HW221375   5.067   2.153   1.000
 7011SOL     OW21376   5.300   3.524   0.307
 7011SOL    HW121377   5.389   3.570   0.310
 7011SOL    HW221378   5.279   3.500   0.212
 7012SOL     OW21379   4.531   2.467   1.465
 7012SOL    HW121380   4.484   2.464   1.554
 7012SOL    HW221381   4.480   2.412   1.399
 7013SOL     OW21382   5.118   2.331   1.674
 7013SOL    HW121383   5.098   2.374   1.762
 7013SOL    HW221384   5.196   2.269   1.683
 7014SOL     OW21385   4.697   2.752   1.572
 7014SOL    HW121386   4.743   2.668   1.543
 7014SOL    HW221387   4.641   2.786   1.497
 7015SOL     OW21388   4.715   2.272   1.242
 7015SOL    HW121389   4.638   2.306   1.296
 7015SOL    HW221390   4.681   2.221   1.163
 7016SOL     OW21391   4.765   2.563   0.429
 7016SOL    HW121392   4.791   2.559   0.525
 7016SOL    HW221393   4.680   2.512   0.415
 7017SOL     OW21394   3.800   2.673   0.789
 7017SOL    HW121395   3.899   2.661   0.798
 7017SOL    HW221396   3.776   2.768   0.810
 7018SOL     OW21397   3.854   3.683   1.571
 7018SOL    HW121398   3.844   3.668   1.670
 7018SOL    HW221399   3.768   3.719   1.535
 7019SOL     OW21400   5.443   2.447   1.831
 7019SOL    HW121401   5.417   2.536   1.795
 7019SOL    HW221402   5.441   2.379   1.758
 7020SOL     OW21403   5.086   3.006   0.545
 7020SOL    HW121404   5.169   2.977   0.497
 7020SOL    HW221405   5.037   3.073   0.489
 7021SOL     OW21406   4.274   2.058   0.885
 7021SOL    HW121407   4.269   2.053   0.985
 7021SOL    HW221408   4.276   2.154   0.856
 7022SOL     OW21409   4.732   3.318   0.477
 7022SOL    HW121410   4.686   3.390   0.425
 7022SOL    HW221411   4.728   3.338   0.575
 7023SOL     OW21412   4.075   3.663   0.853
 7023SOL    HW121413   4.125   3.577   0.859
 7023SOL    HW221414   4.140   3.740   0.850
 7024SOL     OW21415   5.519   2.928   0.873
 7024SOL    HW121416   5.457   2.913   0.797
 7024SOL    HW221417   5.467   2.939   0.958
 7025SOL     OW21418   4.951   3.412   1.506
 7025SOL    HW121419   4.957   3.335   1.570
 7025SOL    HW221420   4.899   3.386   1.426
 7026SOL     OW21421   5.182   2.597   0.728
 7026SOL    HW121422   5.177   2.532   0.803
 7026SOL    HW221423   5.262   2.656   0.741
 7027SOL     OW21424   4.185   3.128   1.727
 7027SOL    HW121425   4.135   3.129   1.641
 7027SOL    HW221426   4.122   3.110   1.803
 7028SOL     OW21427   3.926   2.147   1.498
 7028SOL    HW121428   3.846   2.207   1.485
 7028SOL    HW221429   3.916   2.098   1.584
 7029SOL     OW21430   4.188   3.605   0.323
 7029SOL    HW121431   4.221   3.644   0.409
 7029SOL    HW221432   4.264   3.598   0.258
 7030SOL     OW21433   3.973   3.647   1.241
 7030SOL    HW121434   4.030   3.582   1.291
 7030SOL    HW221435   3.957   3.614   1.148
 7031SOL     OW21436   4.664   3.560   0.904
 7031SOL    HW121437   4.744   3.503   0.925
 7031SOL    HW221438   4.615   3.520   0.827
 7032SOL     OW21439   4.106   2.562   0.480
 7032SOL    HW121440   4.151   2.472   0.477
 7032SOL    HW221441   4.012   2.551   0.513
 7033SOL     OW21442   5.271   2.084   1.729
 7033SOL    HW121443   5.266   2.121   1.821
 7033SOL    HW221444   5.199   2.015   1.717
 7034SOL     OW21445   4.505   2.126   1.749
 7034SOL    HW121446   4.572   2.065   1.792
 7034SOL    HW221447   4.432   2.145   1.814
 7035SOL     OW21448   4.612   3.376   1.195
 7035SOL    HW121449   4.589   3.351   1.101
 7035SOL    HW221450   4.673   3.307   1.234
 7036SOL     OW21451   5.075   2.452   1.433
 7036SOL    HW121452   5.103   2.409   1.518
 7036SOL    HW221453   5.100   2.548   1.434
 7037SOL     OW21454   4.527   3.264   0.924
 7037SOL    HW121455   4.617   3.278   0.882
 7037SOL    HW221456   4.456   3.266   0.853
 7038SOL     OW21457   4.646   2.365   0.899
 7038SOL    HW121458   4.621   2.356   0.803
 7038SOL    HW221459   4.694   2.283   0.930
 7039SOL     OW21460   4.263   1.926   0.512
 7039SOL    HW121461   4.182   1.927   0.570
 7039SOL    HW221462   4.266   2.009   0.457
 7040SOL     OW21463   4.659   2.098   0.480
 7040SOL    HW121464   4.611   2.139   0.402
 7040SOL    HW221465   4.758   2.096   0.461
 7041SOL     OW21466   4.800   2.545   1.464
 7041SOL    HW121467   4.720   2.484   1.467
 7041SOL    HW221468   4.881   2.492   1.440
 7042SOL     OW21469   4.951   3.432   0.793
 7042SOL    HW121470   4.972   3.506   0.728
 7042SOL    HW221471   5.019   3.432   0.866
 7043SOL     OW21472   4.183   3.014   0.741
 7043SOL    HW121473   4.112   2.987   0.806
 7043SOL    HW221474   4.157   2.986   0.648
 7044SOL     OW21475   4.995   3.659   0.591
 7044SOL    HW121476   5.039   3.723   0.527
 7044SOL    HW221477   4.945   3.711   0.661
 7045SOL     OW21478   3.802   2.418   1.386
 7045SOL    HW121479   3.894   2.417   1.345
 7045SOL    HW221480   3.796   2.492   1.453
 7046SOL     OW21481   4.285   2.084   1.147
 7046SOL    HW121482   4.323   2.000   1.184
 7046SOL    HW221483   4.197   2.103   1.191
 7047SOL     OW21484   4.590   2.316   0.642
 7047SOL    HW121485   4.558   2.388   0.580
 7047SOL    HW221486   4.614   2.235   0.589
 7048SOL     OW21487   4.741   1.901   0.753
 7048SOL    HW121488   4.669   1.906   0.684
 7048SOL    HW221489   4.717   1.832   0.822
 7049SOL     OW21490   5.153   3.035   0.867
 7049SOL    HW121491   5.098   2.951   0.860
 7049SOL    HW221492   5.179   3.064   0.775
 7050SOL     OW21493   5.190   2.452   0.992
 7050SOL    HW121494   5.160   2.357   0.999
 7050SOL    HW221495   5.263   2.468   1.058
 7051SOL     OW21496   5.581   2.695   0.377
 7051SOL    HW121497   5.623   2.631   0.441
 7051SOL    HW221498   5.543   2.644   0.299
 7052SOL     OW21499   5.388   3.142   0.657
 7052SOL    HW121500   5.487   3.150   0.671
 7052SOL    HW221501   5.343   3.226   0.688
 7053SOL     OW21502   4.251   2.118   0.328
 7053SOL    HW121503   4.278   2.059   0.253
 7053SOL    HW221504   4.251   2.213   0.297
 7054SOL     OW21505   5.478   3.085   1.588
 7054SOL    HW121506   5.569   3.046   1.575
 7054SOL    HW221507   5.486   3.181   1.612
 7055SOL     OW21508   4.788   3.209   1.340
 7055SOL    HW121509   4.708   3.186   1.395
 7055SOL    HW221510   4.871   3.183   1.389
 7056SOL     OW21511   5.316   3.491   1.625
 7056SOL    HW121512   5.343   3.525   1.535
 7056SOL    HW221513   5.395   3.453   1.671
 7057SOL     OW21514   4.835   3.057   1.100
 7057SOL    HW121515   4.795   3.101   1.181
 7057SOL    HW221516   4.794   3.094   1.017
 7058SOL     OW21517   5.362   2.961   1.079
 7058SOL    HW121518   5.367   3.042   1.138
 7058SOL    HW221519   5.276   2.963   1.028
 7059SOL     OW21520   4.639   1.951   1.402
 7059SOL    HW121521   4.664   1.931   1.307
 7059SOL    HW221522   4.711   2.007   1.444
 7060SOL     OW21523   4.704   2.978   1.719
 7060SOL    HW121524   4.605   2.984   1.729
 7060SOL    HW221525   4.727   2.898   1.663
 7061SOL     OW21526   4.429   2.912   0.368
 7061SOL    HW121527   4.415   2.919   0.467
 7061SOL    HW221528   4.513   2.861   0.350
 7062SOL     OW21529   4.134   2.675   1.251
 7062SOL    HW121530   4.220   2.687   1.301
 7062SOL    HW221531   4.092   2.588   1.278
 7063SOL     OW21532   4.998   2.248   1.262
 7063SOL    HW121533   5.019   2.322   1.326
 7063SOL    HW221534   4.909   2.265   1.219
 7064SOL     OW21535   3.788   3.426   1.331
 7064SOL    HW121536   3.742   3.508   1.297
 7064SOL    HW221537   3.886   3.445   1.340
 7065SOL     OW21538   4.091   2.962   0.501
 7065SOL    HW121539   4.084   3.045   0.445
 7065SOL    HW221540   4.095   2.882   0.441
 7066SOL     OW21541   4.290   2.399   0.865
 7066SOL    HW121542   4.302   2.465   0.791
 7066SOL    HW221543   4.336   2.433   0.948
 7067SOL     OW21544   4.976   3.210   0.388
 7067SOL    HW121545   5.026   3.287   0.428
 7067SOL    HW221546   4.881   3.212   0.420
 7068SOL     OW21547   4.996   3.307   1.142
 7068SOL    HW121548   5.043   3.320   1.229
 7068SOL    HW221549   4.930   3.233   1.151
 7069SOL     OW21550   5.306   2.501   0.472
 7069SOL    HW121551   5.275   2.562   0.545
 7069SOL    HW221552   5.356   2.553   0.403
 7070SOL     OW21553   4.078   3.372   1.329
 7070SOL    HW121554   4.057   3.328   1.242
 7070SOL    HW221555   4.175   3.398   1.332
 7071SOL     OW21556   4.126   2.613   1.598
 7071SOL    HW121557   4.194   2.668   1.551
 7071SOL    HW221558   4.166   2.525   1.625
 7072SOL     OW21559   4.737   1.967   1.770
 7072SOL    HW121560   4.743   2.052   1.718
 7072SOL    HW221561   4.769   1.891   1.713
 7073SOL     OW21562   4.228   1.912   1.740
 7073SOL    HW121563   4.186   1.855   1.670
 7073SOL    HW221564   4.162   1.981   1.772
 7074SOL     OW21565   4.297   2.732   1.029
 7074SOL    HW121566   4.341   2.821   1.020
 7074SOL    HW221567   4.234   2.732   1.106
 7075SOL     OW21568   5.084   2.724   1.045
 7075SOL    HW121569   5.009   2.724   0.979
 7075SOL    HW221570   5.121   2.632   1.054
 7076SOL     OW21571   4.031   2.075   1.231
 7076SOL    HW121572   4.008   2.112   1.321
 7076SOL    HW221573   4.001   1.980   1.225
 7077SOL     OW21574   3.761   3.172   1.282
 7077SOL    HW121575   3.814   3.123   1.350
 7077SOL    HW221576   3.783   3.270   1.287
 7078SOL     OW21577   4.456   2.496   1.064
 7078SOL    HW121578   4.515   2.470   0.988
 7078SOL    HW221579   4.428   2.592   1.053
 7079SOL     OW21580   5.452   2.797   1.854
 7079SOL    HW121581   5.406   2.790   1.765
 7079SOL    HW221582   5.390   2.841   1.920
 7080SOL     OW21583   4.031   1.925   0.618
 7080SOL    HW121584   4.020   2.019   0.651
 7080SOL    HW221585   4.026   1.862   0.695
 7081SOL     OW21586   4.747   2.628   0.966
 7081SOL    HW121587   4.762   2.649   1.062
 7081SOL    HW221588   4.717   2.533   0.957
 7082SOL     OW21589   4.704   3.435   1.700
 7082SOL    HW121590   4.684   3.479   1.612
 7082SOL    HW221591   4.743   3.344   1.684
 7083SOL     OW21592   5.583   3.380   1.605
 7083SOL    HW121593   5.597   3.407   1.510
 7083SOL    HW221594   5.666   3.402   1.658
 7084SOL     OW21595   4.074   2.760   1.804
 7084SOL    HW121596   4.150   2.804   1.852
 7084SOL    HW221597   4.109   2.713   1.722
 7085SOL     OW21598   4.792   3.195   0.849
 7085SOL    HW121599   4.799   3.111   0.794
 7085SOL    HW221600   4.854   3.264   0.813
 7086SOL     OW21601   4.043   2.672   0.949
 7086SOL    HW121602   4.136   2.708   0.954
 7086SOL    HW221603   4.037   2.587   1.001
 7087SOL     OW21604   4.063   2.371   1.006
 7087SOL    HW121605   4.011   2.288   0.989
 7087SOL    HW221606   4.140   2.376   0.942
 7088SOL     OW21607   4.862   2.242   1.678
 7088SOL    HW121608   4.817   2.305   1.742
 7088SOL    HW221609   4.955   2.273   1.661
 7089SOL     OW21610   4.884   2.069   1.477
 7089SOL    HW121611   4.884   2.133   1.554
 7089SOL    HW221612   4.912   2.117   1.394
 7090SOL     OW21613   3.812   3.663   0.927
 7090SOL    HW121614   3.770   3.577   0.900
 7090SOL    HW221615   3.906   3.666   0.893
 7091SOL     OW21616   4.228   3.430   0.910
 7091SOL    HW121617   4.294   3.504   0.919
 7091SOL    HW221618   4.272   3.351   0.868
 7092SOL     OW21619   4.726   2.658   1.238
 7092SOL    HW121620   4.767   2.626   1.324
 7092SOL    HW221621   4.630   2.631   1.235
 7093SOL     OW21622   3.764   2.406   1.114
 7093SOL    HW121623   3.849   2.373   1.073
 7093SOL    HW221624   3.777   2.421   1.212
 7094SOL     OW21625   3.913   2.382   1.722
 7094SOL    HW121626   3.972   2.342   1.652
 7094SOL    HW221627   3.855   2.453   1.681
 7095SOL     OW21628   5.093   2.812   1.660
 7095SOL    HW121629   5.132   2.901   1.680
 7095SOL    HW221630   5.103   2.792   1.563
 7096SOL     OW21631   5.381   2.466   1.206
 7096SOL    HW121632   5.343   2.397   1.268
 7096SOL    HW221633   5.463   2.430   1.162
 7097SOL     OW21634   3.976   3.426   1.744
 7097SOL    HW121635   3.946   3.483   1.820
 7097SOL    HW221636   3.969   3.329   1.770
 7098SOL     OW21637   4.395   2.326   1.269
 7098SOL    HW121638   4.361   2.237   1.239
 7098SOL    HW221639   4.421   2.380   1.189
 7099SOL     OW21640   4.654   3.540   1.465
 7099SOL    HW121641   4.630   3.522   1.370
 7099SOL    HW221642   4.684   3.634   1.475
 7100SOL     OW21643   3.883   2.999   1.466
 7100SOL    HW121644   3.905   2.938   1.542
 7100SOL    HW221645   3.893   2.950   1.380
 7101SOL     OW21646   5.071   2.921   1.234
 7101SOL    HW121647   5.095   2.858   1.160
 7101SOL    HW221648   4.981   2.961   1.216
 7102SOL     OW21649   5.483   3.609   1.154
 7102SOL    HW121650   5.544   3.639   1.081
 7102SOL    HW221651   5.445   3.520   1.132
 7103SOL     OW21652   4.976   3.593   1.128
 7103SOL    HW121653   5.060   3.598   1.074
 7103SOL    HW221654   4.953   3.497   1.146
 7104SOL     OW21655   3.807   3.120   1.022
 7104SOL    HW121656   3.802   3.119   1.122
 7104SOL    HW221657   3.724   3.079   0.984
 7105SOL     OW21658   4.412   3.524   1.716
 7105SOL    HW121659   4.356   3.605   1.725
 7105SOL    HW221660   4.464   3.528   1.630
 7106SOL     OW21661   5.450   1.997   0.523
 7106SOL    HW121662   5.523   1.980   0.456
 7106SOL    HW221663   5.419   1.910   0.561
 7107SOL     OW21664   5.112   3.435   0.477
 7107SOL    HW121665   5.179   3.447   0.403
 7107SOL    HW221666   5.072   3.524   0.500
 7108SOL     OW21667   3.854   3.656   1.851
 7108SOL    HW121668   3.813   3.582   1.904
 7108SOL    HW221669   3.918   3.707   1.909
 7109SOL     OW21670   5.004   2.789   0.672
 7109SOL    HW121671   5.064   2.708   0.674
 7109SOL    HW221672   5.044   2.858   0.612
 7110SOL     OW21673   4.554   3.135   1.422
 7110SOL    HW121674   4.549   3.168   1.517
 7110SOL    HW221675   4.468   3.154   1.376
 7111SOL     OW21676   5.374   3.582   1.394
 7111SOL    HW121677   5.427   3.592   1.310
 7111SOL    HW221678   5.347   3.672   1.428
 7112SOL     OW21679   5.565   2.037   0.963
 7112SOL    HW121680   5.604   1.952   0.927
 7112SOL    HW221681   5.467   2.039   0.944
 7113SOL     OW21682   3.987   2.188   0.720
 7113SOL    HW121683   3.908   2.239   0.686
 7113SOL    HW221684   3.978   2.173   0.818
 7114SOL     OW21685   4.546   2.864   1.372
 7114SOL    HW121686   4.586   2.863   1.280
 7114SOL    HW221687   4.556   2.956   1.412
 7115SOL     OW21688   4.640   2.772   0.291
 7115SOL    HW121689   4.703   2.810   0.223
 7115SOL    HW221690   4.680   2.689   0.330
 7116SOL     OW21691   4.096   3.150   1.490
 7116SOL    HW121692   4.083   3.243   1.456
 7116SOL    HW221693   4.012   3.098   1.477
 7117SOL     OW21694   5.338   3.154   1.289
 7117SOL    HW121695   5.398   3.157   1.369
 7117SOL    HW221696   5.263   3.218   1.302
 7118SOL     OW21697   4.738   2.098   0.971
 7118SOL    HW121698   4.730   2.062   0.878
 7118SOL    HW221699   4.736   2.022   1.036
 7119SOL     OW21700   4.314   3.349   0.491
 7119SOL    HW121701   4.356   3.291   0.421
 7119SOL    HW221702   4.270   3.428   0.447
 7120SOL     OW21703   5.433   2.247   1.381
 7120SOL    HW121704   5.506   2.316   1.385
 7120SOL    HW221705   5.461   2.172   1.322
 7121SOL     OW21706   3.829   2.875   1.726
 7121SOL    HW121707   3.752   2.842   1.780
 7121SOL    HW221708   3.914   2.845   1.768
 7122SOL     OW21709   4.396   2.065   1.489
 7122SOL    HW121710   4.486   2.049   1.449
 7122SOL    HW221711   4.404   2.070   1.588
 7123SOL     OW21712   5.164   2.718   1.398
 7123SOL    HW121713   5.107   2.770   1.335
 7123SOL    HW221714   5.260   2.730   1.374
 7124SOL     OW21715   3.796   2.028   0.318
 7124SOL    HW121716   3.779   2.111   0.264
 7124SOL    HW221717   3.886   1.991   0.296
 7125SOL     OW21718   4.337   2.704   1.431
 7125SOL    HW121719   4.393   2.785   1.414
 7125SOL    HW221720   4.396   2.624   1.434
 7126SOL     OW21721   5.217   3.629   0.959
 7126SOL    HW121722   5.250   3.693   0.890
 7126SOL    HW221723   5.283   3.623   1.034
 7127SOL     OW21724   4.440   2.427   1.708
 7127SOL    HW121725   4.459   2.492   1.782
 7127SOL    HW221726   4.500   2.347   1.717
 7128SOL     OW21727   5.174   3.082   1.633
 7128SOL    HW121728   5.165   3.072   1.732
 7128SOL    HW221729   5.270   3.075   1.607
 7129SOL     OW21730   4.114   3.603   1.560
 7129SOL    HW121731   4.023   3.644   1.558
 7129SOL    HW221732   4.107   3.509   1.592
 7130SOL     OW21733   5.398   2.745   1.254
 7130SOL    HW121734   5.371   2.656   1.217
 7130SOL    HW221735   5.399   2.813   1.181
 7131SOL     OW21736   4.318   2.607   0.652
 7131SOL    HW121737   4.368   2.692   0.633
 7131SOL    HW221738   4.230   2.609   0.604
 7132SOL     OW21739   5.501   2.204   1.642
 7132SOL    HW121740   5.484   2.235   1.548
 7132SOL    HW221741   5.417   2.167   1.680
 7133SOL     OW21742   5.454   2.796   1.517
 7133SOL    HW121743   5.492   2.887   1.532
 7133SOL    HW221744   5.446   2.779   1.418
 7134SOL     OW21745   4.385   3.652   0.953
 7134SOL    HW121746   4.339   3.740   0.940
 7134SOL    HW221747   4.484   3.664   0.946
 7135SOL     OW21748   4.583   2.818   0.861
 7135SOL    HW121749   4.637   2.749   0.909
 7135SOL    HW221750   4.551   2.887   0.927
 7136SOL     OW21751   5.585   3.431   0.851
 7136SOL    HW121752   5.514   3.419   0.781
 7136SOL    HW221753   5.586   3.352   0.911
 7137SOL     OW21754   3.945   3.176   1.844
 7137SOL    HW121755   3.880   3.103   1.823
 7137SOL    HW221756   3.949   3.190   1.942
 7138SOL     OW21757   3.803   3.102   0.653
 7138SOL    HW121758   3.802   3.055   0.741
 7138SOL    HW221759   3.885   3.074   0.602
 7139SOL     OW21760   4.396   3.253   1.624
 7139SOL    HW121761   4.318   3.203   1.662
 7139SOL    HW221762   4.393   3.348   1.655
 7140SOL     OW21763   5.548   2.054   1.227
 7140SOL    HW121764   5.544   1.964   1.271
 7140SOL    HW221765   5.551   2.043   1.128
 7141SOL     OW21766   4.152   2.286   0.520
 7141SOL    HW121767   4.182   2.214   0.458
 7141SOL    HW221768   4.113   2.246   0.603
 7142SOL     OW21769   5.429   3.349   1.104
 7142SOL    HW121770   5.336   3.324   1.077
 7142SOL    HW221771   5.455   3.299   1.186
 7143SOL     OW21772   4.041   2.409   1.280
 7143SOL    HW121773   4.079   2.350   1.352
 7143SOL    HW221774   4.081   2.383   1.192
 7144SOL     OW21775   4.536   3.448   0.687
 7144SOL    HW121776   4.568   3.458   0.593
 7144SOL    HW221777   4.457   3.386   0.689
 7145SOL     OW21778   5.148   2.076   1.112
 7145SOL    HW121779   5.200   2.011   1.167
 7145SOL    HW221780   5.099   2.139   1.173
 7146SOL     OW21781   4.725   1.896   1.154
 7146SOL    HW121782   4.662   1.824   1.123
 7146SOL    HW221783   4.818   1.860   1.154
 7147SOL     OW21784   4.342   3.429   1.284
 7147SOL    HW121785   4.337   3.511   1.341
 7147SOL    HW221786   4.431   3.426   1.239
 7148SOL     OW21787   5.024   2.315   0.691
 7148SOL    HW121788   4.965   2.395   0.695
 7148SOL    HW221789   5.039   2.280   0.784
 7149SOL     OW21790   5.317   2.083   0.882
 7149SOL    HW121791   5.233   2.082   0.936
 7149SOL    HW221792   5.319   2.166   0.826
 7150SOL     OW21793   3.954   2.490   1.975
 7150SOL    HW121794   3.861   2.488   2.012
 7150SOL    HW221795   3.955   2.451   1.883
 7151SOL     OW21796   3.949   2.137   2.858
 7151SOL    HW121797   3.984   2.120   2.950
 7151SOL    HW221798   3.861   2.092   2.846
 7152SOL     OW21799   3.743   2.230   2.509
 7152SOL    HW121800   3.661   2.273   2.548
 7152SOL    HW221801   3.715   2.157   2.446
 7153SOL     OW21802   4.293   3.137   3.027
 7153SOL    HW121803   4.200   3.130   2.990
 7153SOL    HW221804   4.304   3.226   3.071
 7154SOL     OW21805   5.279   3.373   2.565
 7154SOL    HW121806   5.222   3.357   2.646
 7154SOL    HW221807   5.220   3.383   2.485
 7155SOL     OW21808   4.859   2.565   2.579
 7155SOL    HW121809   4.916   2.643   2.554
 7155SOL    HW221810   4.799   2.591   2.655
 7156SOL     OW21811   5.479   2.469   2.093
 7156SOL    HW121812   5.467   2.456   1.994
 7156SOL    HW221813   5.449   2.388   2.142
 7157SOL     OW21814   4.492   3.006   2.885
 7157SOL    HW121815   4.414   3.023   2.945
 7157SOL    HW221816   4.526   3.093   2.849
 7158SOL     OW21817   4.574   2.660   3.685
 7158SOL    HW121818   4.570   2.736   3.750
 7158SOL    HW221819   4.596   2.696   3.594
 7159SOL     OW21820   4.409   2.874   2.527
 7159SOL    HW121821   4.478   2.858   2.597
 7159SOL    HW221822   4.336   2.931   2.565
 7160SOL     OW21823   4.410   3.023   3.665
 7160SOL    HW121824   4.470   3.102   3.679
 7160SOL    HW221825   4.324   3.054   3.624
 7161SOL     OW21826   4.059   3.297   2.923
 7161SOL    HW121827   3.981   3.266   2.870
 7161SOL    HW221828   4.117   3.355   2.866
 7162SOL     OW21829   5.184   3.367   3.201
 7162SOL    HW121830   5.208   3.461   3.227
 7162SOL    HW221831   5.168   3.313   3.283
 7163SOL     OW21832   4.162   2.254   3.361
 7163SOL    HW121833   4.244   2.198   3.370
 7163SOL    HW221834   4.081   2.196   3.365
 7164SOL     OW21835   3.955   3.575   2.345
 7164SOL    HW121836   3.989   3.652   2.399
 7164SOL    HW221837   3.999   3.575   2.255
 7165SOL     OW21838   4.851   3.203   3.552
 7165SOL    HW121839   4.898   3.203   3.640
 7165SOL    HW221840   4.803   3.116   3.541
 7166SOL     OW21841   3.954   3.296   2.400
 7166SOL    HW121842   3.928   3.392   2.400
 7166SOL    HW221843   3.883   3.242   2.445
 7167SOL     OW21844   3.964   2.953   2.748
 7167SOL    HW121845   3.978   2.869   2.800
 7167SOL    HW221846   3.909   3.017   2.803
 7168SOL     OW21847   4.344   3.648   3.301
 7168SOL    HW121848   4.252   3.631   3.336
 7168SOL    HW221849   4.372   3.740   3.327
 7169SOL     OW21850   4.330   2.826   1.985
 7169SOL    HW121851   4.337   2.910   1.931
 7169SOL    HW221852   4.376   2.839   2.073
 7170SOL     OW21853   5.318   1.976   3.342
 7170SOL    HW121854   5.300   2.043   3.270
 7170SOL    HW221855   5.315   2.022   3.431
 7171SOL     OW21856   3.846   2.505   2.425
 7171SOL    HW121857   3.801   2.417   2.442
 7171SOL    HW221858   3.845   2.559   2.509
 7172SOL     OW21859   5.566   3.629   2.221
 7172SOL    HW121860   5.620   3.600   2.301
 7172SOL    HW221861   5.596   3.719   2.192
 7173SOL     OW21862   3.751   3.458   1.979
 7173SOL    HW121863   3.732   3.362   2.000
 7173SOL    HW221864   3.718   3.516   2.054
 7174SOL     OW21865   5.413   2.784   2.474
 7174SOL    HW121866   5.508   2.755   2.482
 7174SOL    HW221867   5.405   2.849   2.399
 7175SOL     OW21868   5.365   2.970   2.294
 7175SOL    HW121869   5.451   2.972   2.242
 7175SOL    HW221870   5.379   3.017   2.382
 7176SOL     OW21871   3.837   2.599   3.459
 7176SOL    HW121872   3.925   2.586   3.504
 7176SOL    HW221873   3.824   2.696   3.437
 7177SOL     OW21874   4.337   3.227   2.588
 7177SOL    HW121875   4.288   3.140   2.597
 7177SOL    HW221876   4.314   3.270   2.501
 7178SOL     OW21877   5.017   3.090   3.285
 7178SOL    HW121878   5.054   3.017   3.227
 7178SOL    HW221879   5.069   3.095   3.370
 7179SOL     OW21880   4.533   1.866   2.364
 7179SOL    HW121881   4.573   1.957   2.355
 7179SOL    HW221882   4.433   1.874   2.370
 7180SOL     OW21883   3.921   2.838   3.126
 7180SOL    HW121884   4.010   2.793   3.112
 7180SOL    HW221885   3.848   2.773   3.107
 7181SOL     OW21886   5.249   2.861   2.052
 7181SOL    HW121887   5.186   2.785   2.065
 7181SOL    HW221888   5.297   2.879   2.138
 7182SOL     OW21889   4.911   3.654   3.478
 7182SOL    HW121890   4.935   3.714   3.402
 7182SOL    HW221891   4.918   3.559   3.448
 7183SOL     OW21892   4.041   2.113   3.663
 7183SOL    HW121893   4.112   2.184   3.669
 7183SOL    HW221894   3.953   2.152   3.691
 7184SOL     OW21895   5.190   3.279   2.815
 7184SOL    HW121896   5.131   3.285   2.895
 7184SOL    HW221897   5.175   3.191   2.769
 7185SOL     OW21898   5.391   3.576   2.434
 7185SOL    HW121899   5.350   3.553   2.346
 7185SOL    HW221900   5.373   3.502   2.499
 7186SOL     OW21901   4.322   2.591   2.132
 7186SOL    HW121902   4.346   2.660   2.064
 7186SOL    HW221903   4.244   2.624   2.186
 7187SOL     OW21904   5.005   2.207   2.806
 7187SOL    HW121905   4.919   2.157   2.793
 7187SOL    HW221906   5.067   2.153   2.862
 7188SOL     OW21907   5.300   3.524   2.169
 7188SOL    HW121908   5.389   3.570   2.172
 7188SOL    HW221909   5.279   3.500   2.074
 7189SOL     OW21910   4.531   2.467   3.327
 7189SOL    HW121911   4.484   2.464   3.416
 7189SOL    HW221912   4.480   2.412   3.261
 7190SOL     OW21913   5.118   2.331   3.536
 7190SOL    HW121914   5.098   2.374   3.624
 7190SOL    HW221915   5.196   2.269   3.545
 7191SOL     OW21916   4.697   2.752   3.434
 7191SOL    HW121917   4.743   2.668   3.405
 7191SOL    HW221918   4.641   2.786   3.359
 7192SOL     OW21919   4.715   2.272   3.104
 7192SOL    HW121920   4.638   2.306   3.158
 7192SOL    HW221921   4.681   2.221   3.025
 7193SOL     OW21922   4.765   2.563   2.291
 7193SOL    HW121923   4.791   2.559   2.387
 7193SOL    HW221924   4.680   2.512   2.277
 7194SOL     OW21925   3.800   2.673   2.651
 7194SOL    HW121926   3.899   2.661   2.660
 7194SOL    HW221927   3.776   2.768   2.672
 7195SOL     OW21928   3.854   3.683   3.433
 7195SOL    HW121929   3.844   3.668   3.532
 7195SOL    HW221930   3.768   3.719   3.397
 7196SOL     OW21931   4.589   2.210   2.057
 7196SOL    HW121932   4.648   2.273   2.008
 7196SOL    HW221933   4.608   2.116   2.028
 7197SOL     OW21934   5.443   2.447   3.693
 7197SOL    HW121935   5.417   2.536   3.657
 7197SOL    HW221936   5.441   2.379   3.620
 7198SOL     OW21937   5.086   3.006   2.407
 7198SOL    HW121938   5.169   2.977   2.359
 7198SOL    HW221939   5.037   3.073   2.351
 7199SOL     OW21940   4.274   2.058   2.747
 7199SOL    HW121941   4.269   2.053   2.847
 7199SOL    HW221942   4.276   2.154   2.718
 7200SOL     OW21943   4.732   3.318   2.339
 7200SOL    HW121944   4.686   3.390   2.287
 7200SOL    HW221945   4.728   3.338   2.437
 7201SOL     OW21946   4.075   3.663   2.715
 7201SOL    HW121947   4.125   3.577   2.721
 7201SOL    HW221948   4.140   3.740   2.712
 7202SOL     OW21949   5.519   2.928   2.735
 7202SOL    HW121950   5.457   2.913   2.659
 7202SOL    HW221951   5.467   2.939   2.820
 7203SOL     OW21952   4.951   3.412   3.368
 7203SOL    HW121953   4.957   3.335   3.432
 7203SOL    HW221954   4.899   3.386   3.288
 7204SOL     OW21955   4.045   2.805   2.104
 7204SOL    HW121956   4.127   2.844   2.062
 7204SOL    HW221957   4.018   2.723   2.055
 7205SOL     OW21958   5.182   2.597   2.590
 7205SOL    HW121959   5.177   2.532   2.665
 7205SOL    HW221960   5.262   2.656   2.603
 7206SOL     OW21961   4.185   3.128   3.589
 7206SOL    HW121962   4.135   3.129   3.503
 7206SOL    HW221963   4.122   3.110   3.665
 7207SOL     OW21964   4.835   3.638   2.099
 7207SOL    HW121965   4.775   3.576   2.149
 7207SOL    HW221966   4.866   3.594   2.014
 7208SOL     OW21967   3.926   2.147   3.360
 7208SOL    HW121968   3.846   2.207   3.347
 7208SOL    HW221969   3.916   2.098   3.446
 7209SOL     OW21970   5.356   3.239   1.943
 7209SOL    HW121971   5.324   3.333   1.933
 7209SOL    HW221972   5.280   3.176   1.931
 7210SOL     OW21973   4.188   3.605   2.185
 7210SOL    HW121974   4.221   3.644   2.271
 7210SOL    HW221975   4.264   3.598   2.120
 7211SOL     OW21976   5.124   1.969   2.288
 7211SOL    HW121977   5.100   1.932   2.198
 7211SOL    HW221978   5.223   1.985   2.292
 7212SOL     OW21979   3.973   3.647   3.103
 7212SOL    HW121980   4.030   3.582   3.153
 7212SOL    HW221981   3.957   3.614   3.010
 7213SOL     OW21982   4.664   3.560   2.766
 7213SOL    HW121983   4.744   3.503   2.787
 7213SOL    HW221984   4.615   3.520   2.689
 7214SOL     OW21985   4.106   2.562   2.342
 7214SOL    HW121986   4.151   2.472   2.339
 7214SOL    HW221987   4.012   2.551   2.375
 7215SOL     OW21988   5.271   2.084   3.591
 7215SOL    HW121989   5.266   2.121   3.683
 7215SOL    HW221990   5.199   2.015   3.579
 7216SOL     OW21991   4.338   1.984   1.979
 7216SOL    HW121992   4.436   1.962   1.986
 7216SOL    HW221993   4.307   1.967   1.886
 7217SOL     OW21994   4.505   2.126   3.611
 7217SOL    HW121995   4.572   2.065   3.654
 7217SOL    HW221996   4.432   2.145   3.676
 7218SOL     OW21997   4.612   3.376   3.057
 7218SOL    HW121998   4.589   3.351   2.963
 7218SOL    HW221999   4.673   3.307   3.096
 7219SOL     OW22000   5.075   2.452   3.295
 7219SOL    HW122001   5.103   2.409   3.380
 7219SOL    HW222002   5.100   2.548   3.296
 7220SOL     OW22003   4.527   3.264   2.786
 7220SOL    HW122004   4.617   3.278   2.744
 7220SOL    HW222005   4.456   3.266   2.715
 7221SOL     OW22006   4.646   2.365   2.761
 7221SOL    HW122007   4.621   2.356   2.665
 7221SOL    HW222008   4.694   2.283   2.792
 7222SOL     OW22009   4.263   1.926   2.374
 7222SOL    HW122010   4.182   1.927   2.432
 7222SOL    HW222011   4.266   2.009   2.319
 7223SOL     OW22012   5.158   3.050   1.903
 7223SOL    HW122013   5.190   2.974   1.960
 7223SOL    HW222014   5.066   3.077   1.933
 7224SOL     OW22015   4.021   1.897   2.033
 7224SOL    HW122016   4.070   1.981   2.012
 7224SOL    HW222017   4.083   1.832   2.078
 7225SOL     OW22018   4.659   2.098   2.342
 7225SOL    HW122019   4.611   2.139   2.264
 7225SOL    HW222020   4.758   2.096   2.323
 7226SOL     OW22021   4.800   2.545   3.326
 7226SOL    HW122022   4.720   2.484   3.329
 7226SOL    HW222023   4.881   2.492   3.302
 7227SOL     OW22024   4.951   3.432   2.655
 7227SOL    HW122025   4.972   3.506   2.590
 7227SOL    HW222026   5.019   3.432   2.728
 7228SOL     OW22027   4.183   3.014   2.603
 7228SOL    HW122028   4.112   2.987   2.668
 7228SOL    HW222029   4.157   2.986   2.510
 7229SOL     OW22030   4.995   3.659   2.453
 7229SOL    HW122031   5.039   3.723   2.389
 7229SOL    HW222032   4.945   3.711   2.523
 7230SOL     OW22033   4.756   2.411   1.878
 7230SOL    HW122034   4.715   2.493   1.839
 7230SOL    HW222035   4.820   2.437   1.951
 7231SOL     OW22036   3.802   2.418   3.248
 7231SOL    HW122037   3.894   2.417   3.207
 7231SOL    HW222038   3.796   2.492   3.315
 7232SOL     OW22039   4.285   2.084   3.009
 7232SOL    HW122040   4.323   2.000   3.046
 7232SOL    HW222041   4.197   2.103   3.053
 7233SOL     OW22042   4.590   2.316   2.504
 7233SOL    HW122043   4.558   2.388   2.442
 7233SOL    HW222044   4.614   2.235   2.451
 7234SOL     OW22045   4.741   1.901   2.615
 7234SOL    HW122046   4.669   1.906   2.546
 7234SOL    HW222047   4.717   1.832   2.684
 7235SOL     OW22048   5.153   3.035   2.729
 7235SOL    HW122049   5.098   2.951   2.722
 7235SOL    HW222050   5.179   3.064   2.637
 7236SOL     OW22051   5.190   2.452   2.854
 7236SOL    HW122052   5.160   2.357   2.861
 7236SOL    HW222053   5.263   2.468   2.920
 7237SOL     OW22054   5.581   2.695   2.239
 7237SOL    HW122055   5.623   2.631   2.303
 7237SOL    HW222056   5.543   2.644   2.161
 7238SOL     OW22057   4.212   3.247   2.036
 7238SOL    HW122058   4.125   3.232   2.083
 7238SOL    HW222059   4.195   3.273   1.941
 7239SOL     OW22060   5.388   3.142   2.519
 7239SOL    HW122061   5.487   3.150   2.533
 7239SOL    HW222062   5.343   3.226   2.550
 7240SOL     OW22063   5.114   2.437   1.940
 7240SOL    HW122064   5.060   2.416   2.021
 7240SOL    HW222065   5.205   2.396   1.949
 7241SOL     OW22066   4.251   2.118   2.190
 7241SOL    HW122067   4.278   2.059   2.115
 7241SOL    HW222068   4.251   2.213   2.159
 7242SOL     OW22069   5.478   3.085   3.450
 7242SOL    HW122070   5.569   3.046   3.437
 7242SOL    HW222071   5.486   3.181   3.474
 7243SOL     OW22072   4.788   3.209   3.202
 7243SOL    HW122073   4.708   3.186   3.257
 7243SOL    HW222074   4.871   3.183   3.251
 7244SOL     OW22075   5.316   3.491   3.487
 7244SOL    HW122076   5.343   3.525   3.397
 7244SOL    HW222077   5.395   3.453   3.533
 7245SOL     OW22078   4.835   3.057   2.962
 7245SOL    HW122079   4.795   3.101   3.043
 7245SOL    HW222080   4.794   3.094   2.879
 7246SOL     OW22081   5.362   2.961   2.941
 7246SOL    HW122082   5.367   3.042   3.000
 7246SOL    HW222083   5.276   2.963   2.890
 7247SOL     OW22084   4.639   1.951   3.264
 7247SOL    HW122085   4.664   1.931   3.169
 7247SOL    HW222086   4.711   2.007   3.306
 7248SOL     OW22087   4.704   2.978   3.581
 7248SOL    HW122088   4.605   2.984   3.591
 7248SOL    HW222089   4.727   2.898   3.525
 7249SOL     OW22090   4.429   2.912   2.230
 7249SOL    HW122091   4.415   2.919   2.329
 7249SOL    HW222092   4.513   2.861   2.212
 7250SOL     OW22093   4.134   2.675   3.113
 7250SOL    HW122094   4.220   2.687   3.163
 7250SOL    HW222095   4.092   2.588   3.140
 7251SOL     OW22096   4.998   2.248   3.124
 7251SOL    HW122097   5.019   2.322   3.188
 7251SOL    HW222098   4.909   2.265   3.081
 7252SOL     OW22099   3.788   3.426   3.193
 7252SOL    HW122100   3.742   3.508   3.159
 7252SOL    HW222101   3.886   3.445   3.202
 7253SOL     OW22102   4.091   2.962   2.363
 7253SOL    HW122103   4.084   3.045   2.307
 7253SOL    HW222104   4.095   2.882   2.303
 7254SOL     OW22105   4.290   2.399   2.727
 7254SOL    HW122106   4.302   2.465   2.653
 7254SOL    HW222107   4.336   2.433   2.810
 7255SOL     OW22108   4.976   3.210   2.250
 7255SOL    HW122109   5.026   3.287   2.290
 7255SOL    HW222110   4.881   3.212   2.282
 7256SOL     OW22111   4.996   3.307   3.004
 7256SOL    HW122112   5.043   3.320   3.091
 7256SOL    HW222113   4.930   3.233   3.013
 7257SOL     OW22114   5.306   2.501   2.334
 7257SOL    HW122115   5.275   2.562   2.407
 7257SOL    HW222116   5.356   2.553   2.265
 7258SOL     OW22117   4.078   3.372   3.191
 7258SOL    HW122118   4.057   3.328   3.104
 7258SOL    HW222119   4.175   3.398   3.194
 7259SOL     OW22120   4.126   2.613   3.460
 7259SOL    HW122121   4.194   2.668   3.413
 7259SOL    HW222122   4.166   2.525   3.487
 7260SOL     OW22123   5.311   2.641   3.532
 7260SOL    HW122124   5.219   2.679   3.527
 7260SOL    HW222125   5.371   2.688   3.467
 7261SOL     OW22126   4.737   1.967   3.632
 7261SOL    HW122127   4.743   2.052   3.580
 7261SOL    HW222128   4.769   1.891   3.575
 7262SOL     OW22129   4.228   1.912   3.602
 7262SOL    HW122130   4.186   1.855   3.532
 7262SOL    HW222131   4.162   1.981   3.634
 7263SOL     OW22132   4.297   2.732   2.891
 7263SOL    HW122133   4.341   2.821   2.882
 7263SOL    HW222134   4.234   2.732   2.968
 7264SOL     OW22135   5.084   2.724   2.907
 7264SOL    HW122136   5.009   2.724   2.841
 7264SOL    HW222137   5.121   2.632   2.916
 7265SOL     OW22138   4.933   2.387   2.137
 7265SOL    HW122139   4.946   2.303   2.191
 7265SOL    HW222140   4.904   2.461   2.197
 7266SOL     OW22141   4.031   2.075   3.093
 7266SOL    HW122142   4.008   2.112   3.183
 7266SOL    HW222143   4.001   1.980   3.087
 7267SOL     OW22144   3.761   3.172   3.144
 7267SOL    HW122145   3.814   3.123   3.212
 7267SOL    HW222146   3.783   3.270   3.149
 7268SOL     OW22147   4.456   2.496   2.926
 7268SOL    HW122148   4.515   2.470   2.850
 7268SOL    HW222149   4.428   2.592   2.915
 7269SOL     OW22150   5.452   2.797   3.716
 7269SOL    HW122151   5.406   2.790   3.627
 7269SOL    HW222152   5.390   2.841   3.782
 7270SOL     OW22153   4.031   1.925   2.480
 7270SOL    HW122154   4.020   2.019   2.513
 7270SOL    HW222155   4.026   1.862   2.557
 7271SOL     OW22156   5.346   2.229   2.236
 7271SOL    HW122157   5.348   2.153   2.300
 7271SOL    HW222158   5.298   2.306   2.276
 7272SOL     OW22159   4.747   2.628   2.828
 7272SOL    HW122160   4.762   2.649   2.924
 7272SOL    HW222161   4.717   2.533   2.819
 7273SOL     OW22162   4.704   3.435   3.562
 7273SOL    HW122163   4.684   3.479   3.474
 7273SOL    HW222164   4.743   3.344   3.546
 7274SOL     OW22165   5.583   3.380   3.467
 7274SOL    HW122166   5.597   3.407   3.372
 7274SOL    HW222167   5.666   3.402   3.520
 7275SOL     OW22168   4.074   2.760   3.666
 7275SOL    HW122169   4.150   2.804   3.714
 7275SOL    HW222170   4.109   2.713   3.584
 7276SOL     OW22171   5.264   2.136   1.987
 7276SOL    HW122172   5.203   2.061   2.010
 7276SOL    HW222173   5.286   2.188   2.070
 7277SOL     OW22174   5.027   2.700   1.904
 7277SOL    HW122175   5.061   2.607   1.919
 7277SOL    HW222176   5.045   2.727   1.809
 7278SOL     OW22177   4.792   3.195   2.711
 7278SOL    HW122178   4.799   3.111   2.656
 7278SOL    HW222179   4.854   3.264   2.675
 7279SOL     OW22180   4.043   2.672   2.811
 7279SOL    HW122181   4.136   2.708   2.816
 7279SOL    HW222182   4.037   2.587   2.863
 7280SOL     OW22183   4.063   2.371   2.868
 7280SOL    HW122184   4.011   2.288   2.851
 7280SOL    HW222185   4.140   2.376   2.804
 7281SOL     OW22186   4.862   2.242   3.540
 7281SOL    HW122187   4.817   2.305   3.604
 7281SOL    HW222188   4.955   2.273   3.523
 7282SOL     OW22189   4.884   2.069   3.339
 7282SOL    HW122190   4.884   2.133   3.416
 7282SOL    HW222191   4.912   2.117   3.256
 7283SOL     OW22192   3.732   3.188   2.062
 7283SOL    HW122193   3.639   3.209   2.031
 7283SOL    HW222194   3.742   3.089   2.075
 7284SOL     OW22195   3.812   3.663   2.789
 7284SOL    HW122196   3.770   3.577   2.762
 7284SOL    HW222197   3.906   3.666   2.755
 7285SOL     OW22198   4.228   3.430   2.772
 7285SOL    HW122199   4.294   3.504   2.781
 7285SOL    HW222200   4.272   3.351   2.730
 7286SOL     OW22201   4.726   2.658   3.100
 7286SOL    HW122202   4.767   2.626   3.186
 7286SOL    HW222203   4.630   2.631   3.097
 7287SOL     OW22204   3.764   2.406   2.976
 7287SOL    HW122205   3.849   2.373   2.935
 7287SOL    HW222206   3.777   2.421   3.074
 7288SOL     OW22207   3.913   2.382   3.584
 7288SOL    HW122208   3.972   2.342   3.514
 7288SOL    HW222209   3.855   2.453   3.543
 7289SOL     OW22210   5.093   2.812   3.522
 7289SOL    HW122211   5.132   2.901   3.542
 7289SOL    HW222212   5.103   2.792   3.425
 7290SOL     OW22213   4.539   2.434   2.187
 7290SOL    HW122214   4.546   2.345   2.141
 7290SOL    HW222215   4.445   2.468   2.179
 7291SOL     OW22216   5.381   2.466   3.068
 7291SOL    HW122217   5.343   2.397   3.130
 7291SOL    HW222218   5.463   2.430   3.024
 7292SOL     OW22219   3.976   3.426   3.606
 7292SOL    HW122220   3.946   3.483   3.682
 7292SOL    HW222221   3.969   3.329   3.632
 7293SOL     OW22222   4.395   2.326   3.131
 7293SOL    HW122223   4.361   2.237   3.101
 7293SOL    HW222224   4.421   2.380   3.051
 7294SOL     OW22225   4.654   3.540   3.327
 7294SOL    HW122226   4.630   3.522   3.232
 7294SOL    HW222227   4.684   3.634   3.337
 7295SOL     OW22228   4.197   2.362   2.053
 7295SOL    HW122229   4.258   2.442   2.057
 7295SOL    HW222230   4.102   2.393   2.060
 7296SOL     OW22231   3.883   2.999   3.328
 7296SOL    HW122232   3.905   2.938   3.404
 7296SOL    HW222233   3.893   2.950   3.242
 7297SOL     OW22234   5.071   2.921   3.096
 7297SOL    HW122235   5.095   2.858   3.022
 7297SOL    HW222236   4.981   2.961   3.078
 7298SOL     OW22237   5.026   2.717   2.171
 7298SOL    HW122238   4.940   2.686   2.213
 7298SOL    HW222239   5.022   2.703   2.072
 7299SOL     OW22240   5.483   3.609   3.016
 7299SOL    HW122241   5.544   3.639   2.943
 7299SOL    HW222242   5.445   3.520   2.994
 7300SOL     OW22243   4.976   3.593   2.990
 7300SOL    HW122244   5.060   3.598   2.936
 7300SOL    HW222245   4.953   3.497   3.008
 7301SOL     OW22246   3.807   3.120   2.884
 7301SOL    HW122247   3.802   3.119   2.984
 7301SOL    HW222248   3.724   3.079   2.846
 7302SOL     OW22249   4.412   3.524   3.578
 7302SOL    HW122250   4.356   3.605   3.587
 7302SOL    HW222251   4.464   3.528   3.492
 7303SOL     OW22252   5.450   1.997   2.385
 7303SOL    HW122253   5.523   1.980   2.318
 7303SOL    HW222254   5.419   1.910   2.423
 7304SOL     OW22255   5.112   3.435   2.339
 7304SOL    HW122256   5.179   3.447   2.265
 7304SOL    HW222257   5.072   3.524   2.362
 7305SOL     OW22258   3.854   3.656   3.713
 7305SOL    HW122259   3.813   3.582   3.766
 7305SOL    HW222260   3.918   3.707   3.771
 7306SOL     OW22261   5.004   2.789   2.534
 7306SOL    HW122262   5.064   2.708   2.536
 7306SOL    HW222263   5.044   2.858   2.474
 7307SOL     OW22264   4.554   3.135   3.284
 7307SOL    HW122265   4.549   3.168   3.379
 7307SOL    HW222266   4.468   3.154   3.238
 7308SOL     OW22267   4.396   3.478   2.016
 7308SOL    HW122268   4.405   3.488   1.917
 7308SOL    HW222269   4.356   3.389   2.037
 7309SOL     OW22270   5.374   3.582   3.256
 7309SOL    HW122271   5.427   3.592   3.172
 7309SOL    HW222272   5.347   3.672   3.290
 7310SOL     OW22273   5.565   2.037   2.825
 7310SOL    HW122274   5.604   1.952   2.789
 7310SOL    HW222275   5.467   2.039   2.806
 7311SOL     OW22276   3.987   2.188   2.582
 7311SOL    HW122277   3.908   2.239   2.548
 7311SOL    HW222278   3.978   2.173   2.680
 7312SOL     OW22279   4.918   3.474   1.893
 7312SOL    HW122280   4.924   3.381   1.930
 7312SOL    HW222281   4.859   3.474   1.813
 7313SOL     OW22282   4.546   2.864   3.234
 7313SOL    HW122283   4.586   2.863   3.142
 7313SOL    HW222284   4.556   2.956   3.274
 7314SOL     OW22285   4.640   2.772   2.153
 7314SOL    HW122286   4.703   2.810   2.085
 7314SOL    HW222287   4.680   2.689   2.192
 7315SOL     OW22288   5.228   3.469   1.906
 7315SOL    HW122289   5.136   3.506   1.913
 7315SOL    HW222290   5.266   3.489   1.816
 7316SOL     OW22291   4.096   3.150   3.352
 7316SOL    HW122292   4.083   3.243   3.318
 7316SOL    HW222293   4.012   3.098   3.339
 7317SOL     OW22294   5.338   3.154   3.151
 7317SOL    HW122295   5.398   3.157   3.231
 7317SOL    HW222296   5.263   3.218   3.164
 7318SOL     OW22297   4.763   2.960   2.558
 7318SOL    HW122298   4.693   2.913   2.612
 7318SOL    HW222299   4.822   2.892   2.515
 7319SOL     OW22300   4.738   2.098   2.833
 7319SOL    HW122301   4.730   2.062   2.740
 7319SOL    HW222302   4.736   2.022   2.898
 7320SOL     OW22303   4.314   3.349   2.353
 7320SOL    HW122304   4.356   3.291   2.283
 7320SOL    HW222305   4.270   3.428   2.309
 7321SOL     OW22306   5.433   2.247   3.243
 7321SOL    HW122307   5.506   2.316   3.247
 7321SOL    HW222308   5.461   2.172   3.184
 7322SOL     OW22309   3.979   3.210   2.152
 7322SOL    HW122310   3.883   3.211   2.125
 7322SOL    HW222311   3.991   3.263   2.236
 7323SOL     OW22312   3.829   2.875   3.588
 7323SOL    HW122313   3.752   2.842   3.642
 7323SOL    HW222314   3.914   2.845   3.630
 7324SOL     OW22315   4.396   2.065   3.351
 7324SOL    HW122316   4.486   2.049   3.311
 7324SOL    HW222317   4.404   2.070   3.450
 7325SOL     OW22318   3.799   2.207   1.895
 7325SOL    HW122319   3.707   2.179   1.866
 7325SOL    HW222320   3.830   2.284   1.839
 7326SOL     OW22321   5.164   2.718   3.260
 7326SOL    HW122322   5.107   2.770   3.197
 7326SOL    HW222323   5.260   2.730   3.236
 7327SOL     OW22324   3.796   2.028   2.180
 7327SOL    HW122325   3.779   2.111   2.126
 7327SOL    HW222326   3.886   1.991   2.158
 7328SOL     OW22327   4.907   3.197   1.981
 7328SOL    HW122328   4.808   3.186   1.983
 7328SOL    HW222329   4.941   3.212   2.074
 7329SOL     OW22330   4.337   2.704   3.293
 7329SOL    HW122331   4.393   2.785   3.276
 7329SOL    HW222332   4.396   2.624   3.296
 7330SOL     OW22333   5.217   3.629   2.821
 7330SOL    HW122334   5.250   3.693   2.752
 7330SOL    HW222335   5.283   3.623   2.896
 7331SOL     OW22336   4.440   2.427   3.570
 7331SOL    HW122337   4.459   2.492   3.644
 7331SOL    HW222338   4.500   2.347   3.579
 7332SOL     OW22339   5.174   3.082   3.495
 7332SOL    HW122340   5.165   3.072   3.594
 7332SOL    HW222341   5.270   3.075   3.469
 7333SOL     OW22342   4.114   3.603   3.422
 7333SOL    HW122343   4.023   3.644   3.420
 7333SOL    HW222344   4.107   3.509   3.454
 7334SOL     OW22345   5.398   2.745   3.116
 7334SOL    HW122346   5.371   2.656   3.079
 7334SOL    HW222347   5.399   2.813   3.043
 7335SOL     OW22348   4.949   2.187   2.311
 7335SOL    HW122349   5.014   2.113   2.300
 7335SOL    HW222350   4.969   2.237   2.395
 7336SOL     OW22351   4.318   2.607   2.514
 7336SOL    HW122352   4.368   2.692   2.495
 7336SOL    HW222353   4.230   2.609   2.466
 7337SOL     OW22354   5.501   2.204   3.504
 7337SOL    HW122355   5.484   2.235   3.410
 7337SOL    HW222356   5.417   2.167   3.542
 7338SOL     OW22357   5.454   2.796   3.379
 7338SOL    HW122358   5.492   2.887   3.394
 7338SOL    HW222359   5.446   2.779   3.280
 7339SOL     OW22360   4.583   3.236   1.878
 7339SOL    HW122361   4.537   3.251   1.966
 7339SOL    HW222362   4.627   3.321   1.848
 7340SOL     OW22363   4.385   3.652   2.815
 7340SOL    HW122364   4.339   3.740   2.802
 7340SOL    HW222365   4.484   3.664   2.808
 7341SOL     OW22366   4.583   2.818   2.723
 7341SOL    HW122367   4.637   2.749   2.771
 7341SOL    HW222368   4.551   2.887   2.789
 7342SOL     OW22369   4.807   2.846   1.949
 7342SOL    HW122370   4.784   2.899   1.867
 7342SOL    HW222371   4.888   2.790   1.930
 7343SOL     OW22372   5.585   3.431   2.713
 7343SOL    HW122373   5.514   3.419   2.643
 7343SOL    HW222374   5.586   3.352   2.773
 7344SOL     OW22375   3.945   3.176   3.706
 7344SOL    HW122376   3.880   3.103   3.685
 7344SOL    HW222377   3.949   3.190   3.804
 7345SOL     OW22378   3.803   3.102   2.515
 7345SOL    HW122379   3.802   3.055   2.603
 7345SOL    HW222380   3.885   3.074   2.464
 7346SOL     OW22381   4.396   3.253   3.486
 7346SOL    HW122382   4.318   3.203   3.524
 7346SOL    HW222383   4.393   3.348   3.517
 7347SOL     OW22384   5.548   2.054   3.089
 7347SOL    HW122385   5.544   1.964   3.133
 7347SOL    HW222386   5.551   2.043   2.990
 7348SOL     OW22387   4.152   2.286   2.382
 7348SOL    HW122388   4.182   2.214   2.320
 7348SOL    HW222389   4.113   2.246   2.465
 7349SOL     OW22390   5.429   3.349   2.966
 7349SOL    HW122391   5.336   3.324   2.939
 7349SOL    HW222392   5.455   3.299   3.048
 7350SOL     OW22393   4.041   2.409   3.142
 7350SOL    HW122394   4.079   2.350   3.214
 7350SOL    HW222395   4.081   2.383   3.054
 7351SOL     OW22396   4.536   3.448   2.549
 7351SOL    HW122397   4.568   3.458   2.455
 7351SOL    HW222398   4.457   3.386   2.551
 7352SOL     OW22399   5.148   2.076   2.974
 7352SOL    HW122400   5.200   2.011   3.029
 7352SOL    HW222401   5.099   2.139   3.035
 7353SOL     OW22402   4.725   1.896   3.016
 7353SOL    HW122403   4.662   1.824   2.985
 7353SOL    HW222404   4.818   1.860   3.016
 7354SOL     OW22405   4.494   3.192   2.163
 7354SOL    HW122406   4.448   3.105   2.180
 7354SOL    HW222407   4.585   3.189   2.204
 7355SOL     OW22408   4.342   3.429   3.146
 7355SOL    HW122409   4.337   3.511   3.203
 7355SOL    HW222410   4.431   3.426   3.101
 7356SOL     OW22411   5.076   1.914   2.030
 7356SOL    HW122412   5.111   1.873   1.946
 7356SOL    HW222413   4.986   1.876   2.050
 7357SOL     OW22414   5.024   2.315   2.553
 7357SOL    HW122415   4.965   2.395   2.557
 7357SOL    HW222416   5.039   2.280   2.646
 7358SOL     OW22417   5.317   2.083   2.744
 7358SOL    HW122418   5.233   2.082   2.798
 7358SOL    HW222419   5.319   2.166   2.688
 7359SOL     OW22420   3.763   2.939   2.162
 7359SOL    HW122421   3.862   2.928   2.153
 7359SOL    HW222422   3.723   2.853   2.194
 7360SOL     OW22423   4.599   3.508   2.199
 7360SOL    HW122424   4.522   3.473   2.145
 7360SOL    HW222425   4.567   3.579   2.261
 7361SOL     OW22426   3.954   2.490   3.837
 7361SOL    HW122427   3.861   2.488   3.874
 7361SOL    HW222428   3.955   2.451   3.745
 7362SOL     OW22429   3.949   2.137   4.720
 7362SOL    HW122430   3.984   2.120   4.812
 7362SOL    HW222431   3.861   2.092   4.708
 7363SOL     OW22432   3.743   2.230   4.371
 7363SOL    HW122433   3.661   2.273   4.410
 7363SOL    HW222434   3.715   2.157   4.308
 7364SOL     OW22435   4.293   3.137   4.889
 7364SOL    HW122436   4.200   3.130   4.852
 7364SOL    HW222437   4.304   3.226   4.933
 7365SOL     OW22438   5.279   3.373   4.427
 7365SOL    HW122439   5.222   3.357   4.508
 7365SOL    HW222440   5.220   3.383   4.347
 7366SOL     OW22441   4.859   2.565   4.441
 7366SOL    HW122442   4.916   2.643   4.416
 7366SOL    HW222443   4.799   2.591   4.517
 7367SOL     OW22444   5.479   2.469   3.955
 7367SOL    HW122445   5.467   2.456   3.856
 7367SOL    HW222446   5.449   2.388   4.004
 7368SOL     OW22447   4.492   3.006   4.747
 7368SOL    HW122448   4.414   3.023   4.807
 7368SOL    HW222449   4.526   3.093   4.711
 7369SOL     OW22450   4.574   2.660   5.547
 7369SOL    HW122451   4.570   2.736   5.612
 7369SOL    HW222452   4.596   2.696   5.456
 7370SOL     OW22453   4.409   2.874   4.389
 7370SOL    HW122454   4.478   2.858   4.459
 7370SOL    HW222455   4.336   2.931   4.427
 7371SOL     OW22456   4.410   3.023   5.527
 7371SOL    HW122457   4.470   3.102   5.541
 7371SOL    HW222458   4.324   3.054   5.486
 7372SOL     OW22459   4.059   3.297   4.785
 7372SOL    HW122460   3.981   3.266   4.732
 7372SOL    HW222461   4.117   3.355   4.728
 7373SOL     OW22462   5.184   3.367   5.063
 7373SOL    HW122463   5.208   3.461   5.089
 7373SOL    HW222464   5.168   3.313   5.145
 7374SOL     OW22465   4.162   2.254   5.223
 7374SOL    HW122466   4.244   2.198   5.232
 7374SOL    HW222467   4.081   2.196   5.227
 7375SOL     OW22468   5.327   2.309   4.461
 7375SOL    HW122469   5.253   2.355   4.411
 7375SOL    HW222470   5.378   2.377   4.514
 7376SOL     OW22471   3.955   3.575   4.207
 7376SOL    HW122472   3.989   3.652   4.261
 7376SOL    HW222473   3.999   3.575   4.117
 7377SOL     OW22474   4.851   3.203   5.414
 7377SOL    HW122475   4.898   3.203   5.502
 7377SOL    HW222476   4.803   3.116   5.403
 7378SOL     OW22477   3.954   3.296   4.262
 7378SOL    HW122478   3.928   3.392   4.262
 7378SOL    HW222479   3.883   3.242   4.307
 7379SOL     OW22480   3.964   2.953   4.610
 7379SOL    HW122481   3.978   2.869   4.662
 7379SOL    HW222482   3.909   3.017   4.665
 7380SOL     OW22483   4.344   3.648   5.163
 7380SOL    HW122484   4.252   3.631   5.198
 7380SOL    HW222485   4.372   3.740   5.189
 7381SOL     OW22486   4.330   2.826   3.847
 7381SOL    HW122487   4.337   2.910   3.793
 7381SOL    HW222488   4.376   2.839   3.935
 7382SOL     OW22489   5.318   1.976   5.204
 7382SOL    HW122490   5.300   2.043   5.132
 7382SOL    HW222491   5.315   2.022   5.293
 7383SOL     OW22492   3.846   2.505   4.287
 7383SOL    HW122493   3.801   2.417   4.304
 7383SOL    HW222494   3.845   2.559   4.371
 7384SOL     OW22495   5.566   3.629   4.083
 7384SOL    HW122496   5.620   3.600   4.163
 7384SOL    HW222497   5.596   3.719   4.054
 7385SOL     OW22498   3.751   3.458   3.841
 7385SOL    HW122499   3.732   3.362   3.862
 7385SOL    HW222500   3.718   3.516   3.916
 7386SOL     OW22501   5.413   2.784   4.336
 7386SOL    HW122502   5.508   2.755   4.344
 7386SOL    HW222503   5.405   2.849   4.261
 7387SOL     OW22504   5.365   2.970   4.156
 7387SOL    HW122505   5.451   2.972   4.104
 7387SOL    HW222506   5.379   3.017   4.244
 7388SOL     OW22507   3.837   2.599   5.321
 7388SOL    HW122508   3.925   2.586   5.366
 7388SOL    HW222509   3.824   2.696   5.299
 7389SOL     OW22510   4.337   3.227   4.450
 7389SOL    HW122511   4.288   3.140   4.459
 7389SOL    HW222512   4.314   3.270   4.363
 7390SOL     OW22513   5.017   3.090   5.147
 7390SOL    HW122514   5.054   3.017   5.089
 7390SOL    HW222515   5.069   3.095   5.232
 7391SOL     OW22516   4.533   1.866   4.226
 7391SOL    HW122517   4.573   1.957   4.217
 7391SOL    HW222518   4.433   1.874   4.232
 7392SOL     OW22519   3.921   2.838   4.988
 7392SOL    HW122520   4.010   2.793   4.974
 7392SOL    HW222521   3.848   2.773   4.969
 7393SOL     OW22522   5.249   2.861   3.914
 7393SOL    HW122523   5.186   2.785   3.927
 7393SOL    HW222524   5.297   2.879   4.000
 7394SOL     OW22525   4.911   3.654   5.340
 7394SOL    HW122526   4.935   3.714   5.264
 7394SOL    HW222527   4.918   3.559   5.310
 7395SOL     OW22528   4.041   2.113   5.525
 7395SOL    HW122529   4.112   2.184   5.531
 7395SOL    HW222530   3.953   2.152   5.553
 7396SOL     OW22531   5.190   3.279   4.677
 7396SOL    HW122532   5.131   3.285   4.757
 7396SOL    HW222533   5.175   3.191   4.631
 7397SOL     OW22534   5.391   3.576   4.296
 7397SOL    HW122535   5.350   3.553   4.208
 7397SOL    HW222536   5.373   3.502   4.361
 7398SOL     OW22537   4.322   2.591   3.994
 7398SOL    HW122538   4.346   2.660   3.926
 7398SOL    HW222539   4.244   2.624   4.048
 7399SOL     OW22540   5.005   2.207   4.668
 7399SOL    HW122541   4.919   2.157   4.655
 7399SOL    HW222542   5.067   2.153   4.724
 7400SOL     OW22543   5.300   3.524   4.031
 7400SOL    HW122544   5.389   3.570   4.034
 7400SOL    HW222545   5.279   3.500   3.936
 7401SOL     OW22546   4.531   2.467   5.189
 7401SOL    HW122547   4.484   2.464   5.278
 7401SOL    HW222548   4.480   2.412   5.123
 7402SOL     OW22549   5.118   2.331   5.398
 7402SOL    HW122550   5.098   2.374   5.486
 7402SOL    HW222551   5.196   2.269   5.407
 7403SOL     OW22552   4.697   2.752   5.296
 7403SOL    HW122553   4.743   2.668   5.267
 7403SOL    HW222554   4.641   2.786   5.221
 7404SOL     OW22555   4.715   2.272   4.966
 7404SOL    HW122556   4.638   2.306   5.020
 7404SOL    HW222557   4.681   2.221   4.887
 7405SOL     OW22558   4.765   2.563   4.153
 7405SOL    HW122559   4.791   2.559   4.249
 7405SOL    HW222560   4.680   2.512   4.139
 7406SOL     OW22561   3.800   2.673   4.513
 7406SOL    HW122562   3.899   2.661   4.522
 7406SOL    HW222563   3.776   2.768   4.534
 7407SOL     OW22564   3.854   3.683   5.295
 7407SOL    HW122565   3.844   3.668   5.394
 7407SOL    HW222566   3.768   3.719   5.259
 7408SOL     OW22567   4.589   2.210   3.919
 7408SOL    HW122568   4.648   2.273   3.870
 7408SOL    HW222569   4.608   2.116   3.890
 7409SOL     OW22570   5.443   2.447   5.555
 7409SOL    HW122571   5.417   2.536   5.519
 7409SOL    HW222572   5.441   2.379   5.482
 7410SOL     OW22573   5.086   3.006   4.269
 7410SOL    HW122574   5.169   2.977   4.221
 7410SOL    HW222575   5.037   3.073   4.213
 7411SOL     OW22576   4.274   2.058   4.609
 7411SOL    HW122577   4.269   2.053   4.709
 7411SOL    HW222578   4.276   2.154   4.580
 7412SOL     OW22579   4.732   3.318   4.201
 7412SOL    HW122580   4.686   3.390   4.149
 7412SOL    HW222581   4.728   3.338   4.299
 7413SOL     OW22582   4.075   3.663   4.577
 7413SOL    HW122583   4.125   3.577   4.583
 7413SOL    HW222584   4.140   3.740   4.574
 7414SOL     OW22585   5.519   2.928   4.597
 7414SOL    HW122586   5.457   2.913   4.521
 7414SOL    HW222587   5.467   2.939   4.682
 7415SOL     OW22588   4.951   3.412   5.230
 7415SOL    HW122589   4.957   3.335   5.294
 7415SOL    HW222590   4.899   3.386   5.150
 7416SOL     OW22591   4.045   2.805   3.966
 7416SOL    HW122592   4.127   2.844   3.924
 7416SOL    HW222593   4.018   2.723   3.917
 7417SOL     OW22594   5.182   2.597   4.452
 7417SOL    HW122595   5.177   2.532   4.527
 7417SOL    HW222596   5.262   2.656   4.465
 7418SOL     OW22597   4.185   3.128   5.451
 7418SOL    HW122598   4.135   3.129   5.365
 7418SOL    HW222599   4.122   3.110   5.527
 7419SOL     OW22600   4.835   3.638   3.961
 7419SOL    HW122601   4.775   3.576   4.011
 7419SOL    HW222602   4.866   3.594   3.876
 7420SOL     OW22603   3.926   2.147   5.222
 7420SOL    HW122604   3.846   2.207   5.209
 7420SOL    HW222605   3.916   2.098   5.308
 7421SOL     OW22606   5.356   3.239   3.805
 7421SOL    HW122607   5.324   3.333   3.795
 7421SOL    HW222608   5.280   3.176   3.793
 7422SOL     OW22609   4.188   3.605   4.047
 7422SOL    HW122610   4.221   3.644   4.133
 7422SOL    HW222611   4.264   3.598   3.982
 7423SOL     OW22612   5.124   1.969   4.150
 7423SOL    HW122613   5.100   1.932   4.060
 7423SOL    HW222614   5.223   1.985   4.154
 7424SOL     OW22615   3.973   3.647   4.965
 7424SOL    HW122616   4.030   3.582   5.015
 7424SOL    HW222617   3.957   3.614   4.872
 7425SOL     OW22618   4.664   3.560   4.628
 7425SOL    HW122619   4.744   3.503   4.649
 7425SOL    HW222620   4.615   3.520   4.551
 7426SOL     OW22621   4.106   2.562   4.204
 7426SOL    HW122622   4.151   2.472   4.201
 7426SOL    HW222623   4.012   2.551   4.237
 7427SOL     OW22624   5.271   2.084   5.453
 7427SOL    HW122625   5.266   2.121   5.545
 7427SOL    HW222626   5.199   2.015   5.441
 7428SOL     OW22627   4.338   1.984   3.841
 7428SOL    HW122628   4.436   1.962   3.848
 7428SOL    HW222629   4.307   1.967   3.748
 7429SOL     OW22630   4.505   2.126   5.473
 7429SOL    HW122631   4.572   2.065   5.516
 7429SOL    HW222632   4.432   2.145   5.538
 7430SOL     OW22633   4.612   3.376   4.919
 7430SOL    HW122634   4.589   3.351   4.825
 7430SOL    HW222635   4.673   3.307   4.958
 7431SOL     OW22636   5.075   2.452   5.157
 7431SOL    HW122637   5.103   2.409   5.242
 7431SOL    HW222638   5.100   2.548   5.158
 7432SOL     OW22639   4.527   3.264   4.648
 7432SOL    HW122640   4.617   3.278   4.606
 7432SOL    HW222641   4.456   3.266   4.577
 7433SOL     OW22642   4.646   2.365   4.623
 7433SOL    HW122643   4.621   2.356   4.527
 7433SOL    HW222644   4.694   2.283   4.654
 7434SOL     OW22645   4.263   1.926   4.236
 7434SOL    HW122646   4.182   1.927   4.294
 7434SOL    HW222647   4.266   2.009   4.181
 7435SOL     OW22648   5.158   3.050   3.765
 7435SOL    HW122649   5.190   2.974   3.822
 7435SOL    HW222650   5.066   3.077   3.795
 7436SOL     OW22651   4.021   1.897   3.895
 7436SOL    HW122652   4.070   1.981   3.874
 7436SOL    HW222653   4.083   1.832   3.940
 7437SOL     OW22654   4.659   2.098   4.204
 7437SOL    HW122655   4.611   2.139   4.126
 7437SOL    HW222656   4.758   2.096   4.185
 7438SOL     OW22657   4.800   2.545   5.188
 7438SOL    HW122658   4.720   2.484   5.191
 7438SOL    HW222659   4.881   2.492   5.164
 7439SOL     OW22660   4.951   3.432   4.517
 7439SOL    HW122661   4.972   3.506   4.452
 7439SOL    HW222662   5.019   3.432   4.590
 7440SOL     OW22663   4.183   3.014   4.465
 7440SOL    HW122664   4.112   2.987   4.530
 7440SOL    HW222665   4.157   2.986   4.372
 7441SOL     OW22666   4.995   3.659   4.315
 7441SOL    HW122667   5.039   3.723   4.251
 7441SOL    HW222668   4.945   3.711   4.385
 7442SOL     OW22669   4.756   2.411   3.740
 7442SOL    HW122670   4.715   2.493   3.701
 7442SOL    HW222671   4.820   2.437   3.813
 7443SOL     OW22672   3.802   2.418   5.110
 7443SOL    HW122673   3.894   2.417   5.069
 7443SOL    HW222674   3.796   2.492   5.177
 7444SOL     OW22675   4.285   2.084   4.871
 7444SOL    HW122676   4.323   2.000   4.908
 7444SOL    HW222677   4.197   2.103   4.915
 7445SOL     OW22678   4.590   2.316   4.366
 7445SOL    HW122679   4.558   2.388   4.304
 7445SOL    HW222680   4.614   2.235   4.313
 7446SOL     OW22681   4.741   1.901   4.477
 7446SOL    HW122682   4.669   1.906   4.408
 7446SOL    HW222683   4.717   1.832   4.546
 7447SOL     OW22684   5.153   3.035   4.591
 7447SOL    HW122685   5.098   2.951   4.584
 7447SOL    HW222686   5.179   3.064   4.499
 7448SOL     OW22687   5.190   2.452   4.716
 7448SOL    HW122688   5.160   2.357   4.723
 7448SOL    HW222689   5.263   2.468   4.782
 7449SOL     OW22690   5.581   2.695   4.101
 7449SOL    HW122691   5.623   2.631   4.165
 7449SOL    HW222692   5.543   2.644   4.023
 7450SOL     OW22693   4.212   3.247   3.898
 7450SOL    HW122694   4.125   3.232   3.945
 7450SOL    HW222695   4.195   3.273   3.803
 7451SOL     OW22696   5.388   3.142   4.381
 7451SOL    HW122697   5.487   3.150   4.395
 7451SOL    HW222698   5.343   3.226   4.412
 7452SOL     OW22699   5.114   2.437   3.802
 7452SOL    HW122700   5.060   2.416   3.883
 7452SOL    HW222701   5.205   2.396   3.811
 7453SOL     OW22702   4.251   2.118   4.052
 7453SOL    HW122703   4.278   2.059   3.977
 7453SOL    HW222704   4.251   2.213   4.021
 7454SOL     OW22705   5.478   3.085   5.312
 7454SOL    HW122706   5.569   3.046   5.299
 7454SOL    HW222707   5.486   3.181   5.336
 7455SOL     OW22708   4.788   3.209   5.064
 7455SOL    HW122709   4.708   3.186   5.119
 7455SOL    HW222710   4.871   3.183   5.113
 7456SOL     OW22711   5.316   3.491   5.349
 7456SOL    HW122712   5.343   3.525   5.259
 7456SOL    HW222713   5.395   3.453   5.395
 7457SOL     OW22714   4.835   3.057   4.824
 7457SOL    HW122715   4.795   3.101   4.905
 7457SOL    HW222716   4.794   3.094   4.741
 7458SOL     OW22717   5.362   2.961   4.803
 7458SOL    HW122718   5.367   3.042   4.862
 7458SOL    HW222719   5.276   2.963   4.752
 7459SOL     OW22720   4.639   1.951   5.126
 7459SOL    HW122721   4.664   1.931   5.031
 7459SOL    HW222722   4.711   2.007   5.168
 7460SOL     OW22723   4.704   2.978   5.443
 7460SOL    HW122724   4.605   2.984   5.453
 7460SOL    HW222725   4.727   2.898   5.387
 7461SOL     OW22726   4.429   2.912   4.092
 7461SOL    HW122727   4.415   2.919   4.191
 7461SOL    HW222728   4.513   2.861   4.074
 7462SOL     OW22729   4.134   2.675   4.975
 7462SOL    HW122730   4.220   2.687   5.025
 7462SOL    HW222731   4.092   2.588   5.002
 7463SOL     OW22732   4.998   2.248   4.986
 7463SOL    HW122733   5.019   2.322   5.050
 7463SOL    HW222734   4.909   2.265   4.943
 7464SOL     OW22735   3.788   3.426   5.055
 7464SOL    HW122736   3.742   3.508   5.021
 7464SOL    HW222737   3.886   3.445   5.064
 7465SOL     OW22738   4.091   2.962   4.225
 7465SOL    HW122739   4.084   3.045   4.169
 7465SOL    HW222740   4.095   2.882   4.165
 7466SOL     OW22741   4.290   2.399   4.589
 7466SOL    HW122742   4.302   2.465   4.515
 7466SOL    HW222743   4.336   2.433   4.672
 7467SOL     OW22744   4.976   3.210   4.112
 7467SOL    HW122745   5.026   3.287   4.152
 7467SOL    HW222746   4.881   3.212   4.144
 7468SOL     OW22747   4.996   3.307   4.866
 7468SOL    HW122748   5.043   3.320   4.953
 7468SOL    HW222749   4.930   3.233   4.875
 7469SOL     OW22750   5.306   2.501   4.196
 7469SOL    HW122751   5.275   2.562   4.269
 7469SOL    HW222752   5.356   2.553   4.127
 7470SOL     OW22753   4.078   3.372   5.053
 7470SOL    HW122754   4.057   3.328   4.966
 7470SOL    HW222755   4.175   3.398   5.056
 7471SOL     OW22756   4.126   2.613   5.322
 7471SOL    HW122757   4.194   2.668   5.275
 7471SOL    HW222758   4.166   2.525   5.349
 7472SOL     OW22759   5.311   2.641   5.394
 7472SOL    HW122760   5.219   2.679   5.389
 7472SOL    HW222761   5.371   2.688   5.329
 7473SOL     OW22762   4.737   1.967   5.494
 7473SOL    HW122763   4.743   2.052   5.442
 7473SOL    HW222764   4.769   1.891   5.437
 7474SOL     OW22765   4.228   1.912   5.464
 7474SOL    HW122766   4.186   1.855   5.394
 7474SOL    HW222767   4.162   1.981   5.496
 7475SOL     OW22768   4.297   2.732   4.753
 7475SOL    HW122769   4.341   2.821   4.744
 7475SOL    HW222770   4.234   2.732   4.830
 7476SOL     OW22771   5.084   2.724   4.769
 7476SOL    HW122772   5.009   2.724   4.703
 7476SOL    HW222773   5.121   2.632   4.778
 7477SOL     OW22774   4.933   2.387   3.999
 7477SOL    HW122775   4.946   2.303   4.053
 7477SOL    HW222776   4.904   2.461   4.059
 7478SOL     OW22777   4.031   2.075   4.955
 7478SOL    HW122778   4.008   2.112   5.045
 7478SOL    HW222779   4.001   1.980   4.949
 7479SOL     OW22780   3.761   3.172   5.006
 7479SOL    HW122781   3.814   3.123   5.074
 7479SOL    HW222782   3.783   3.270   5.011
 7480SOL     OW22783   4.456   2.496   4.788
 7480SOL    HW122784   4.515   2.470   4.712
 7480SOL    HW222785   4.428   2.592   4.777
 7481SOL     OW22786   5.452   2.797   5.578
 7481SOL    HW122787   5.406   2.790   5.489
 7481SOL    HW222788   5.390   2.841   5.644
 7482SOL     OW22789   4.031   1.925   4.342
 7482SOL    HW122790   4.020   2.019   4.375
 7482SOL    HW222791   4.026   1.862   4.419
 7483SOL     OW22792   5.346   2.229   4.098
 7483SOL    HW122793   5.348   2.153   4.162
 7483SOL    HW222794   5.298   2.306   4.138
 7484SOL     OW22795   4.747   2.628   4.690
 7484SOL    HW122796   4.762   2.649   4.786
 7484SOL    HW222797   4.717   2.533   4.681
 7485SOL     OW22798   4.704   3.435   5.424
 7485SOL    HW122799   4.684   3.479   5.336
 7485SOL    HW222800   4.743   3.344   5.408
 7486SOL     OW22801   5.583   3.380   5.329
 7486SOL    HW122802   5.597   3.407   5.234
 7486SOL    HW222803   5.666   3.402   5.382
 7487SOL     OW22804   4.074   2.760   5.528
 7487SOL    HW122805   4.150   2.804   5.576
 7487SOL    HW222806   4.109   2.713   5.446
 7488SOL     OW22807   5.264   2.136   3.849
 7488SOL    HW122808   5.203   2.061   3.872
 7488SOL    HW222809   5.286   2.188   3.932
 7489SOL     OW22810   5.027   2.700   3.766
 7489SOL    HW122811   5.061   2.607   3.781
 7489SOL    HW222812   5.045   2.727   3.671
 7490SOL     OW22813   4.792   3.195   4.573
 7490SOL    HW122814   4.799   3.111   4.518
 7490SOL    HW222815   4.854   3.264   4.537
 7491SOL     OW22816   4.043   2.672   4.673
 7491SOL    HW122817   4.136   2.708   4.678
 7491SOL    HW222818   4.037   2.587   4.725
 7492SOL     OW22819   4.063   2.371   4.730
 7492SOL    HW122820   4.011   2.288   4.713
 7492SOL    HW222821   4.140   2.376   4.666
 7493SOL     OW22822   4.862   2.242   5.402
 7493SOL    HW122823   4.817   2.305   5.466
 7493SOL    HW222824   4.955   2.273   5.385
 7494SOL     OW22825   4.884   2.069   5.201
 7494SOL    HW122826   4.884   2.133   5.278
 7494SOL    HW222827   4.912   2.117   5.118
 7495SOL     OW22828   3.732   3.188   3.924
 7495SOL    HW122829   3.639   3.209   3.893
 7495SOL    HW222830   3.742   3.089   3.937
 7496SOL     OW22831   3.812   3.663   4.651
 7496SOL    HW122832   3.770   3.577   4.624
 7496SOL    HW222833   3.906   3.666   4.617
 7497SOL     OW22834   4.228   3.430   4.634
 7497SOL    HW122835   4.294   3.504   4.643
 7497SOL    HW222836   4.272   3.351   4.592
 7498SOL     OW22837   4.726   2.658   4.962
 7498SOL    HW122838   4.767   2.626   5.048
 7498SOL    HW222839   4.630   2.631   4.959
 7499SOL     OW22840   3.764   2.406   4.838
 7499SOL    HW122841   3.849   2.373   4.797
 7499SOL    HW222842   3.777   2.421   4.936
 7500SOL     OW22843   3.913   2.382   5.446
 7500SOL    HW122844   3.972   2.342   5.376
 7500SOL    HW222845   3.855   2.453   5.405
 7501SOL     OW22846   5.093   2.812   5.384
 7501SOL    HW122847   5.132   2.901   5.404
 7501SOL    HW222848   5.103   2.792   5.287
 7502SOL     OW22849   4.539   2.434   4.049
 7502SOL    HW122850   4.546   2.345   4.003
 7502SOL    HW222851   4.445   2.468   4.041
 7503SOL     OW22852   5.381   2.466   4.930
 7503SOL    HW122853   5.343   2.397   4.992
 7503SOL    HW222854   5.463   2.430   4.886
 7504SOL     OW22855   3.976   3.426   5.468
 7504SOL    HW122856   3.946   3.483   5.544
 7504SOL    HW222857   3.969   3.329   5.494
 7505SOL     OW22858   4.395   2.326   4.993
 7505SOL    HW122859   4.361   2.237   4.963
 7505SOL    HW222860   4.421   2.380   4.913
 7506SOL     OW22861   4.654   3.540   5.189
 7506SOL    HW122862   4.630   3.522   5.094
 7506SOL    HW222863   4.684   3.634   5.199
 7507SOL     OW22864   4.197   2.362   3.915
 7507SOL    HW122865   4.258   2.442   3.919
 7507SOL    HW222866   4.102   2.393   3.922
 7508SOL     OW22867   3.883   2.999   5.190
 7508SOL    HW122868   3.905   2.938   5.266
 7508SOL    HW222869   3.893   2.950   5.104
 7509SOL     OW22870   5.071   2.921   4.958
 7509SOL    HW122871   5.095   2.858   4.884
 7509SOL    HW222872   4.981   2.961   4.940
 7510SOL     OW22873   5.026   2.717   4.033
 7510SOL    HW122874   4.940   2.686   4.075
 7510SOL    HW222875   5.022   2.703   3.934
 7511SOL     OW22876   5.483   3.609   4.878
 7511SOL    HW122877   5.544   3.639   4.805
 7511SOL    HW222878   5.445   3.520   4.856
 7512SOL     OW22879   4.976   3.593   4.852
 7512SOL    HW122880   5.060   3.598   4.798
 7512SOL    HW222881   4.953   3.497   4.870
 7513SOL     OW22882   3.807   3.120   4.746
 7513SOL    HW122883   3.802   3.119   4.846
 7513SOL    HW222884   3.724   3.079   4.708
 7514SOL     OW22885   4.412   3.524   5.440
 7514SOL    HW122886   4.356   3.605   5.449
 7514SOL    HW222887   4.464   3.528   5.354
 7515SOL     OW22888   5.450   1.997   4.247
 7515SOL    HW122889   5.523   1.980   4.180
 7515SOL    HW222890   5.419   1.910   4.285
 7516SOL     OW22891   5.112   3.435   4.201
 7516SOL    HW122892   5.179   3.447   4.127
 7516SOL    HW222893   5.072   3.524   4.224
 7517SOL     OW22894   3.854   3.656   5.575
 7517SOL    HW122895   3.813   3.582   5.628
 7517SOL    HW222896   3.918   3.707   5.633
 7518SOL     OW22897   5.004   2.789   4.396
 7518SOL    HW122898   5.064   2.708   4.398
 7518SOL    HW222899   5.044   2.858   4.336
 7519SOL     OW22900   4.554   3.135   5.146
 7519SOL    HW122901   4.549   3.168   5.241
 7519SOL    HW222902   4.468   3.154   5.100
 7520SOL     OW22903   4.396   3.478   3.878
 7520SOL    HW122904   4.405   3.488   3.779
 7520SOL    HW222905   4.356   3.389   3.899
 7521SOL     OW22906   5.374   3.582   5.118
 7521SOL    HW122907   5.427   3.592   5.034
 7521SOL    HW222908   5.347   3.672   5.152
 7522SOL     OW22909   5.565   2.037   4.687
 7522SOL    HW122910   5.604   1.952   4.651
 7522SOL    HW222911   5.467   2.039   4.668
 7523SOL     OW22912   3.987   2.188   4.444
 7523SOL    HW122913   3.908   2.239   4.410
 7523SOL    HW222914   3.978   2.173   4.542
 7524SOL     OW22915   4.918   3.474   3.755
 7524SOL    HW122916   4.924   3.381   3.792
 7524SOL    HW222917   4.859   3.474   3.675
 7525SOL     OW22918   4.546   2.864   5.096
 7525SOL    HW122919   4.586   2.863   5.004
 7525SOL    HW222920   4.556   2.956   5.136
 7526SOL     OW22921   4.640   2.772   4.015
 7526SOL    HW122922   4.703   2.810   3.947
 7526SOL    HW222923   4.680   2.689   4.054
 7527SOL     OW22924   5.228   3.469   3.768
 7527SOL    HW122925   5.136   3.506   3.775
 7527SOL    HW222926   5.266   3.489   3.678
 7528SOL     OW22927   4.096   3.150   5.214
 7528SOL    HW122928   4.083   3.243   5.180
 7528SOL    HW222929   4.012   3.098   5.201
 7529SOL     OW22930   5.338   3.154   5.013
 7529SOL    HW122931   5.398   3.157   5.093
 7529SOL    HW222932   5.263   3.218   5.026
 7530SOL     OW22933   4.763   2.960   4.420
 7530SOL    HW122934   4.693   2.913   4.474
 7530SOL    HW222935   4.822   2.892   4.377
 7531SOL     OW22936   4.738   2.098   4.695
 7531SOL    HW122937   4.730   2.062   4.602
 7531SOL    HW222938   4.736   2.022   4.760
 7532SOL     OW22939   4.314   3.349   4.215
 7532SOL    HW122940   4.356   3.291   4.145
 7532SOL    HW222941   4.270   3.428   4.171
 7533SOL     OW22942   5.433   2.247   5.105
 7533SOL    HW122943   5.506   2.316   5.109
 7533SOL    HW222944   5.461   2.172   5.046
 7534SOL     OW22945   3.979   3.210   4.014
 7534SOL    HW122946   3.883   3.211   3.987
 7534SOL    HW222947   3.991   3.263   4.098
 7535SOL     OW22948   3.829   2.875   5.450
 7535SOL    HW122949   3.752   2.842   5.504
 7535SOL    HW222950   3.914   2.845   5.492
 7536SOL     OW22951   4.396   2.065   5.213
 7536SOL    HW122952   4.486   2.049   5.173
 7536SOL    HW222953   4.404   2.070   5.312
 7537SOL     OW22954   3.799   2.207   3.757
 7537SOL    HW122955   3.707   2.179   3.728
 7537SOL    HW222956   3.830   2.284   3.701
 7538SOL     OW22957   5.164   2.718   5.122
 7538SOL    HW122958   5.107   2.770   5.059
 7538SOL    HW222959   5.260   2.730   5.098
 7539SOL     OW22960   3.796   2.028   4.042
 7539SOL    HW122961   3.779   2.111   3.988
 7539SOL    HW222962   3.886   1.991   4.020
 7540SOL     OW22963   4.907   3.197   3.843
 7540SOL    HW122964   4.808   3.186   3.845
 7540SOL    HW222965   4.941   3.212   3.936
 7541SOL     OW22966   4.337   2.704   5.155
 7541SOL    HW122967   4.393   2.785   5.138
 7541SOL    HW222968   4.396   2.624   5.158
 7542SOL     OW22969   5.217   3.629   4.683
 7542SOL    HW122970   5.250   3.693   4.614
 7542SOL    HW222971   5.283   3.623   4.758
 7543SOL     OW22972   4.440   2.427   5.432
 7543SOL    HW122973   4.459   2.492   5.506
 7543SOL    HW222974   4.500   2.347   5.441
 7544SOL     OW22975   5.174   3.082   5.357
 7544SOL    HW122976   5.165   3.072   5.456
 7544SOL    HW222977   5.270   3.075   5.331
 7545SOL     OW22978   4.114   3.603   5.284
 7545SOL    HW122979   4.023   3.644   5.282
 7545SOL    HW222980   4.107   3.509   5.316
 7546SOL     OW22981   5.398   2.745   4.978
 7546SOL    HW122982   5.371   2.656   4.941
 7546SOL    HW222983   5.399   2.813   4.905
 7547SOL     OW22984   4.949   2.187   4.173
 7547SOL    HW122985   5.014   2.113   4.162
 7547SOL    HW222986   4.969   2.237   4.257
 7548SOL     OW22987   4.318   2.607   4.376
 7548SOL    HW122988   4.368   2.692   4.357
 7548SOL    HW222989   4.230   2.609   4.328
 7549SOL     OW22990   5.501   2.204   5.366
 7549SOL    HW122991   5.484   2.235   5.272
 7549SOL    HW222992   5.417   2.167   5.404
 7550SOL     OW22993   5.454   2.796   5.241
 7550SOL    HW122994   5.492   2.887   5.256
 7550SOL    HW222995   5.446   2.779   5.142
 7551SOL     OW22996   4.583   3.236   3.740
 7551SOL    HW122997   4.537   3.251   3.828
 7551SOL    HW222998   4.627   3.321   3.710
 7552SOL     OW22999   4.385   3.652   4.677
 7552SOL    HW123000   4.339   3.740   4.664
 7552SOL    HW223001   4.484   3.664   4.670
 7553SOL     OW23002   4.583   2.818   4.585
 7553SOL    HW123003   4.637   2.749   4.633
 7553SOL    HW223004   4.551   2.887   4.651
 7554SOL     OW23005   4.807   2.846   3.811
 7554SOL    HW123006   4.784   2.899   3.729
 7554SOL    HW223007   4.888   2.790   3.792
 7555SOL     OW23008   5.585   3.431   4.575
 7555SOL    HW123009   5.514   3.419   4.505
 7555SOL    HW223010   5.586   3.352   4.635
 7556SOL     OW23011   3.945   3.176   5.568
 7556SOL    HW123012   3.880   3.103   5.547
 7556SOL    HW223013   3.949   3.190   5.666
 7557SOL     OW23014   3.803   3.102   4.377
 7557SOL    HW123015   3.802   3.055   4.465
 7557SOL    HW223016   3.885   3.074   4.326
 7558SOL     OW23017   4.396   3.253   5.348
 7558SOL    HW123018   4.318   3.203   5.386
 7558SOL    HW223019   4.393   3.348   5.379
 7559SOL     OW23020   5.548   2.054   4.951
 7559SOL    HW123021   5.544   1.964   4.995
 7559SOL    HW223022   5.551   2.043   4.852
 7560SOL     OW23023   4.152   2.286   4.244
 7560SOL    HW123024   4.182   2.214   4.182
 7560SOL    HW223025   4.113   2.246   4.327
 7561SOL     OW23026   5.429   3.349   4.828
 7561SOL    HW123027   5.336   3.324   4.801
 7561SOL    HW223028   5.455   3.299   4.910
 7562SOL     OW23029   4.041   2.409   5.004
 7562SOL    HW123030   4.079   2.350   5.076
 7562SOL    HW223031   4.081   2.383   4.916
 7563SOL     OW23032   4.536   3.448   4.411
 7563SOL    HW123033   4.568   3.458   4.317
 7563SOL    HW223034   4.457   3.386   4.413
 7564SOL     OW23035   5.148   2.076   4.836
 7564SOL    HW123036   5.200   2.011   4.891
 7564SOL    HW223037   5.099   2.139   4.897
 7565SOL     OW23038   4.725   1.896   4.878
 7565SOL    HW123039   4.662   1.824   4.847
 7565SOL    HW223040   4.818   1.860   4.878
 7566SOL     OW23041   4.494   3.192   4.025
 7566SOL    HW123042   4.448   3.105   4.042
 7566SOL    HW223043   4.585   3.189   4.066
 7567SOL     OW23044   4.342   3.429   5.008
 7567SOL    HW123045   4.337   3.511   5.065
 7567SOL    HW223046   4.431   3.426   4.963
 7568SOL     OW23047   5.076   1.914   3.892
 7568SOL    HW123048   5.111   1.873   3.808
 7568SOL    HW223049   4.986   1.876   3.912
 7569SOL     OW23050   5.024   2.315   4.415
 7569SOL    HW123051   4.965   2.395   4.419
 7569SOL    HW223052   5.039   2.280   4.508
 7570SOL     OW23053   5.317   2.083   4.606
 7570SOL    HW123054   5.233   2.082   4.660
 7570SOL    HW223055   5.319   2.166   4.550
 7571SOL     OW23056   3.763   2.939   4.024
 7571SOL    HW123057   3.862   2.928   4.015
 7571SOL    HW223058   3.723   2.853   4.056
 7572SOL     OW23059   4.599   3.508   4.061
 7572SOL    HW123060   4.522   3.473   4.007
 7572SOL    HW223061   4.567   3.579   4.123
 7573SOL     OW23062   3.954   2.490   5.699
 7573SOL    HW123063   3.861   2.488   5.736
 7573SOL    HW223064   3.955   2.451   5.607
 7574SOL     OW23065   3.949   2.137   6.582
 7574SOL    HW123066   3.984   2.120   6.674
 7574SOL    HW223067   3.861   2.092   6.570
 7575SOL     OW23068   3.743   2.230   6.233
 7575SOL    HW123069   3.661   2.273   6.272
 7575SOL    HW223070   3.715   2.157   6.170
 7576SOL     OW23071   5.279   3.373   6.289
 7576SOL    HW123072   5.222   3.357   6.370
 7576SOL    HW223073   5.220   3.383   6.209
 7577SOL     OW23074   4.859   2.565   6.303
 7577SOL    HW123075   4.916   2.643   6.278
 7577SOL    HW223076   4.799   2.591   6.379
 7578SOL     OW23077   5.479   2.469   5.817
 7578SOL    HW123078   5.467   2.456   5.718
 7578SOL    HW223079   5.449   2.388   5.866
 7579SOL     OW23080   4.409   2.874   6.251
 7579SOL    HW123081   4.478   2.858   6.321
 7579SOL    HW223082   4.336   2.931   6.289
 7580SOL     OW23083   5.327   2.309   6.323
 7580SOL    HW123084   5.253   2.355   6.273
 7580SOL    HW223085   5.378   2.377   6.376
 7581SOL     OW23086   3.955   3.575   6.069
 7581SOL    HW123087   3.989   3.652   6.123
 7581SOL    HW223088   3.999   3.575   5.979
 7582SOL     OW23089   3.954   3.296   6.124
 7582SOL    HW123090   3.928   3.392   6.124
 7582SOL    HW223091   3.883   3.242   6.169
 7583SOL     OW23092   4.330   2.826   5.709
 7583SOL    HW123093   4.337   2.910   5.655
 7583SOL    HW223094   4.376   2.839   5.797
 7584SOL     OW23095   3.846   2.505   6.149
 7584SOL    HW123096   3.801   2.417   6.166
 7584SOL    HW223097   3.845   2.559   6.233
 7585SOL     OW23098   5.566   3.629   5.945
 7585SOL    HW123099   5.620   3.600   6.025
 7585SOL    HW223100   5.596   3.719   5.916
 7586SOL     OW23101   3.751   3.458   5.703
 7586SOL    HW123102   3.732   3.362   5.724
 7586SOL    HW223103   3.718   3.516   5.778
 7587SOL     OW23104   5.413   2.784   6.198
 7587SOL    HW123105   5.508   2.755   6.206
 7587SOL    HW223106   5.405   2.849   6.123
 7588SOL     OW23107   5.365   2.970   6.018
 7588SOL    HW123108   5.451   2.972   5.966
 7588SOL    HW223109   5.379   3.017   6.106
 7589SOL     OW23110   4.337   3.227   6.312
 7589SOL    HW123111   4.288   3.140   6.321
 7589SOL    HW223112   4.314   3.270   6.225
 7590SOL     OW23113   4.533   1.866   6.088
 7590SOL    HW123114   4.573   1.957   6.079
 7590SOL    HW223115   4.433   1.874   6.094
 7591SOL     OW23116   5.249   2.861   5.776
 7591SOL    HW123117   5.186   2.785   5.789
 7591SOL    HW223118   5.297   2.879   5.862
 7592SOL     OW23119   5.391   3.576   6.158
 7592SOL    HW123120   5.350   3.553   6.070
 7592SOL    HW223121   5.373   3.502   6.223
 7593SOL     OW23122   4.322   2.591   5.856
 7593SOL    HW123123   4.346   2.660   5.788
 7593SOL    HW223124   4.244   2.624   5.910
 7594SOL     OW23125   5.005   2.207   6.530
 7594SOL    HW123126   4.919   2.157   6.517
 7594SOL    HW223127   5.067   2.153   6.586
 7595SOL     OW23128   5.300   3.524   5.893
 7595SOL    HW123129   5.389   3.570   5.896
 7595SOL    HW223130   5.279   3.500   5.798
 7596SOL     OW23131   4.715   2.272   6.828
 7596SOL    HW123132   4.638   2.306   6.882
 7596SOL    HW223133   4.681   2.221   6.749
 7597SOL     OW23134   4.765   2.563   6.015
 7597SOL    HW123135   4.791   2.559   6.111
 7597SOL    HW223136   4.680   2.512   6.001
 7598SOL     OW23137   4.589   2.210   5.781
 7598SOL    HW123138   4.648   2.273   5.732
 7598SOL    HW223139   4.608   2.116   5.752
 7599SOL     OW23140   5.086   3.006   6.131
 7599SOL    HW123141   5.169   2.977   6.083
 7599SOL    HW223142   5.037   3.073   6.075
 7600SOL     OW23143   4.732   3.318   6.063
 7600SOL    HW123144   4.686   3.390   6.011
 7600SOL    HW223145   4.728   3.338   6.161
 7601SOL     OW23146   4.075   3.663   6.439
 7601SOL    HW123147   4.125   3.577   6.445
 7601SOL    HW223148   4.140   3.740   6.436
 7602SOL     OW23149   4.045   2.805   5.828
 7602SOL    HW123150   4.127   2.844   5.786
 7602SOL    HW223151   4.018   2.723   5.779
 7603SOL     OW23152   5.182   2.597   6.314
 7603SOL    HW123153   5.177   2.532   6.389
 7603SOL    HW223154   5.262   2.656   6.327
 7604SOL     OW23155   4.835   3.638   5.823
 7604SOL    HW123156   4.775   3.576   5.873
 7604SOL    HW223157   4.866   3.594   5.738
 7605SOL     OW23158   5.356   3.239   5.667
 7605SOL    HW123159   5.324   3.333   5.657
 7605SOL    HW223160   5.280   3.176   5.655
 7606SOL     OW23161   4.188   3.605   5.909
 7606SOL    HW123162   4.221   3.644   5.995
 7606SOL    HW223163   4.264   3.598   5.844
 7607SOL     OW23164   5.124   1.969   6.012
 7607SOL    HW123165   5.100   1.932   5.922
 7607SOL    HW223166   5.223   1.985   6.016
 7608SOL     OW23167   4.664   3.560   6.490
 7608SOL    HW123168   4.744   3.503   6.511
 7608SOL    HW223169   4.615   3.520   6.413
 7609SOL     OW23170   4.106   2.562   6.066
 7609SOL    HW123171   4.151   2.472   6.063
 7609SOL    HW223172   4.012   2.551   6.099
 7610SOL     OW23173   4.338   1.984   5.703
 7610SOL    HW123174   4.436   1.962   5.710
 7610SOL    HW223175   4.307   1.967   5.610
 7611SOL     OW23176   4.527   3.264   6.510
 7611SOL    HW123177   4.617   3.278   6.468
 7611SOL    HW223178   4.456   3.266   6.439
 7612SOL     OW23179   4.263   1.926   6.098
 7612SOL    HW123180   4.182   1.927   6.156
 7612SOL    HW223181   4.266   2.009   6.043
 7613SOL     OW23182   5.158   3.050   5.627
 7613SOL    HW123183   5.190   2.974   5.684
 7613SOL    HW223184   5.066   3.077   5.657
 7614SOL     OW23185   4.021   1.897   5.757
 7614SOL    HW123186   4.070   1.981   5.736
 7614SOL    HW223187   4.083   1.832   5.802
 7615SOL     OW23188   4.659   2.098   6.066
 7615SOL    HW123189   4.611   2.139   5.988
 7615SOL    HW223190   4.758   2.096   6.047
 7616SOL     OW23191   4.951   3.432   6.379
 7616SOL    HW123192   4.972   3.506   6.314
 7616SOL    HW223193   5.019   3.432   6.452
 7617SOL     OW23194   4.183   3.014   6.327
 7617SOL    HW123195   4.112   2.987   6.392
 7617SOL    HW223196   4.157   2.986   6.234
 7618SOL     OW23197   4.995   3.659   6.177
 7618SOL    HW123198   5.039   3.723   6.113
 7618SOL    HW223199   4.945   3.711   6.247
 7619SOL     OW23200   4.756   2.411   5.602
 7619SOL    HW123201   4.715   2.493   5.563
 7619SOL    HW223202   4.820   2.437   5.675
 7620SOL     OW23203   4.590   2.316   6.228
 7620SOL    HW123204   4.558   2.388   6.166
 7620SOL    HW223205   4.614   2.235   6.175
 7621SOL     OW23206   4.741   1.901   6.339
 7621SOL    HW123207   4.669   1.906   6.270
 7621SOL    HW223208   4.717   1.832   6.408
 7622SOL     OW23209   5.153   3.035   6.453
 7622SOL    HW123210   5.098   2.951   6.446
 7622SOL    HW223211   5.179   3.064   6.361
 7623SOL     OW23212   5.190   2.452   6.578
 7623SOL    HW123213   5.160   2.357   6.585
 7623SOL    HW223214   5.263   2.468   6.644
 7624SOL     OW23215   5.581   2.695   5.963
 7624SOL    HW123216   5.623   2.631   6.027
 7624SOL    HW223217   5.543   2.644   5.885
 7625SOL     OW23218   4.212   3.247   5.760
 7625SOL    HW123219   4.125   3.232   5.807
 7625SOL    HW223220   4.195   3.273   5.665
 7626SOL     OW23221   5.388   3.142   6.243
 7626SOL    HW123222   5.487   3.150   6.257
 7626SOL    HW223223   5.343   3.226   6.274
 7627SOL     OW23224   5.114   2.437   5.664
 7627SOL    HW123225   5.060   2.416   5.745
 7627SOL    HW223226   5.205   2.396   5.673
 7628SOL     OW23227   4.251   2.118   5.914
 7628SOL    HW123228   4.278   2.059   5.839
 7628SOL    HW223229   4.251   2.213   5.883
 7629SOL     OW23230   5.362   2.961   6.665
 7629SOL    HW123231   5.367   3.042   6.724
 7629SOL    HW223232   5.276   2.963   6.614
 7630SOL     OW23233   4.429   2.912   5.954
 7630SOL    HW123234   4.415   2.919   6.053
 7630SOL    HW223235   4.513   2.861   5.936
 7631SOL     OW23236   4.091   2.962   6.087
 7631SOL    HW123237   4.084   3.045   6.031
 7631SOL    HW223238   4.095   2.882   6.027
 7632SOL     OW23239   4.290   2.399   6.451
 7632SOL    HW123240   4.302   2.465   6.377
 7632SOL    HW223241   4.336   2.433   6.534
 7633SOL     OW23242   4.976   3.210   5.974
 7633SOL    HW123243   5.026   3.287   6.014
 7633SOL    HW223244   4.881   3.212   6.006
 7634SOL     OW23245   5.306   2.501   6.058
 7634SOL    HW123246   5.275   2.562   6.131
 7634SOL    HW223247   5.356   2.553   5.989
 7635SOL     OW23248   4.933   2.387   5.861
 7635SOL    HW123249   4.946   2.303   5.915
 7635SOL    HW223250   4.904   2.461   5.921
 7636SOL     OW23251   4.031   1.925   6.204
 7636SOL    HW123252   4.020   2.019   6.237
 7636SOL    HW223253   4.026   1.862   6.281
 7637SOL     OW23254   5.346   2.229   5.960
 7637SOL    HW123255   5.348   2.153   6.024
 7637SOL    HW223256   5.298   2.306   6.000
 7638SOL     OW23257   5.264   2.136   5.711
 7638SOL    HW123258   5.203   2.061   5.734
 7638SOL    HW223259   5.286   2.188   5.794
 7639SOL     OW23260   5.027   2.700   5.628
 7639SOL    HW123261   5.061   2.607   5.643
 7639SOL    HW223262   5.045   2.727   5.533
 7640SOL     OW23263   4.792   3.195   6.435
 7640SOL    HW123264   4.799   3.111   6.380
 7640SOL    HW223265   4.854   3.264   6.399
 7641SOL     OW23266   3.732   3.188   5.786
 7641SOL    HW123267   3.639   3.209   5.755
 7641SOL    HW223268   3.742   3.089   5.799
 7642SOL     OW23269   3.812   3.663   6.513
 7642SOL    HW123270   3.770   3.577   6.486
 7642SOL    HW223271   3.906   3.666   6.479
 7643SOL     OW23272   4.539   2.434   5.911
 7643SOL    HW123273   4.546   2.345   5.865
 7643SOL    HW223274   4.445   2.468   5.903
 7644SOL     OW23275   4.197   2.362   5.777
 7644SOL    HW123276   4.258   2.442   5.781
 7644SOL    HW223277   4.102   2.393   5.784
 7645SOL     OW23278   5.026   2.717   5.895
 7645SOL    HW123279   4.940   2.686   5.937
 7645SOL    HW223280   5.022   2.703   5.796
 7646SOL     OW23281   5.450   1.997   6.109
 7646SOL    HW123282   5.523   1.980   6.042
 7646SOL    HW223283   5.419   1.910   6.147
 7647SOL     OW23284   5.112   3.435   6.063
 7647SOL    HW123285   5.179   3.447   5.989
 7647SOL    HW223286   5.072   3.524   6.086
 7648SOL     OW23287   5.004   2.789   6.258
 7648SOL    HW123288   5.064   2.708   6.260
 7648SOL    HW223289   5.044   2.858   6.198
 7649SOL     OW23290   4.396   3.478   5.740
 7649SOL    HW123291   4.405   3.488   5.641
 7649SOL    HW223292   4.356   3.389   5.761
 7650SOL     OW23293   5.565   2.037   6.549
 7650SOL    HW123294   5.604   1.952   6.513
 7650SOL    HW223295   5.467   2.039   6.530
 7651SOL     OW23296   3.987   2.188   6.306
 7651SOL    HW123297   3.908   2.239   6.272
 7651SOL    HW223298   3.978   2.173   6.404
 7652SOL     OW23299   4.918   3.474   5.617
 7652SOL    HW123300   4.924   3.381   5.654
 7652SOL    HW223301   4.859   3.474   5.537
 7653SOL     OW23302   4.640   2.772   5.877
 7653SOL    HW123303   4.703   2.810   5.809
 7653SOL    HW223304   4.680   2.689   5.916
 7654SOL     OW23305   5.228   3.469   5.630
 7654SOL    HW123306   5.136   3.506   5.637
 7654SOL    HW223307   5.266   3.489   5.540
 7655SOL     OW23308   4.763   2.960   6.282
 7655SOL    HW123309   4.693   2.913   6.336
 7655SOL    HW223310   4.822   2.892   6.239
 7656SOL     OW23311   4.314   3.349   6.077
 7656SOL    HW123312   4.356   3.291   6.007
 7656SOL    HW223313   4.270   3.428   6.033
 7657SOL     OW23314   3.979   3.210   5.876
 7657SOL    HW123315   3.883   3.211   5.849
 7657SOL    HW223316   3.991   3.263   5.960
 7658SOL     OW23317   3.799   2.207   5.619
 7658SOL    HW123318   3.707   2.179   5.590
 7658SOL    HW223319   3.830   2.284   5.563
 7659SOL     OW23320   3.796   2.028   5.904
 7659SOL    HW123321   3.779   2.111   5.850
 7659SOL    HW223322   3.886   1.991   5.882
 7660SOL     OW23323   4.907   3.197   5.705
 7660SOL    HW123324   4.808   3.186   5.707
 7660SOL    HW223325   4.941   3.212   5.798
 7661SOL     OW23326   5.217   3.629   6.545
 7661SOL    HW123327   5.250   3.693   6.476
 7661SOL    HW223328   5.283   3.623   6.620
 7662SOL     OW23329   4.949   2.187   6.035
 7662SOL    HW123330   5.014   2.113   6.024
 7662SOL    HW223331   4.969   2.237   6.119
 7663SOL     OW23332   4.318   2.607   6.238
 7663SOL    HW123333   4.368   2.692   6.219
 7663SOL    HW223334   4.230   2.609   6.190
 7664SOL     OW23335   4.583   3.236   5.602
 7664SOL    HW123336   4.537   3.251   5.690
 7664SOL    HW223337   4.627   3.321   5.572
 7665SOL     OW23338   4.385   3.652   6.539
 7665SOL    HW123339   4.339   3.740   6.526
 7665SOL    HW223340   4.484   3.664   6.532
 7666SOL     OW23341   4.583   2.818   6.447
 7666SOL    HW123342   4.637   2.749   6.495
 7666SOL    HW223343   4.551   2.887   6.513
 7667SOL     OW23344   4.807   2.846   5.673
 7667SOL    HW123345   4.784   2.899   5.591
 7667SOL    HW223346   4.888   2.790   5.654
 7668SOL     OW23347   3.803   3.102   6.239
 7668SOL    HW123348   3.802   3.055   6.327
 7668SOL    HW223349   3.885   3.074   6.188
 7669SOL     OW23350   5.548   2.054   6.813
 7669SOL    HW123351   5.544   1.964   6.857
 7669SOL    HW223352   5.551   2.043   6.714
 7670SOL     OW23353   4.152   2.286   6.106
 7670SOL    HW123354   4.182   2.214   6.044
 7670SOL    HW223355   4.113   2.246   6.189
 7671SOL     OW23356   4.536   3.448   6.273
 7671SOL    HW123357   4.568   3.458   6.179
 7671SOL    HW223358   4.457   3.386   6.275
 7672SOL     OW23359   4.494   3.192   5.887
 7672SOL    HW123360   4.448   3.105   5.904
 7672SOL    HW223361   4.585   3.189   5.928
 7673SOL     OW23362   5.076   1.914   5.754
 7673SOL    HW123363   5.111   1.873   5.670
 7673SOL    HW223364   4.986   1.876   5.774
 7674SOL     OW23365   5.024   2.315   6.277
 7674SOL    HW123366   4.965   2.395   6.281
 7674SOL    HW223367   5.039   2.280   6.370
 7675SOL     OW23368   5.317   2.083   6.468
 7675SOL    HW123369   5.233   2.082   6.522
 7675SOL    HW223370   5.319   2.166   6.412
 7676SOL     OW23371   3.763   2.939   5.886
 7676SOL    HW123372   3.862   2.928   5.877
 7676SOL    HW223373   3.723   2.853   5.918
 7677SOL     OW23374   4.599   3.508   5.923
 7677SOL    HW123375   4.522   3.473   5.869
 7677SOL    HW223376   4.567   3.579   5.985
 7678SOL     OW23377   3.954   4.352   0.113
 7678SOL    HW123378   3.861   4.350   0.150
 7678SOL    HW223379   3.955   4.313   0.021
 7679SOL     OW23380   3.949   3.999   0.996
 7679SOL    HW123381   3.984   3.982   1.088
 7679SOL    HW223382   3.861   3.954   0.984
 7680SOL     OW23383   3.743   4.092   0.647
 7680SOL    HW123384   3.661   4.135   0.686
 7680SOL    HW223385   3.715   4.019   0.584
 7681SOL     OW23386   4.293   4.999   1.165
 7681SOL    HW123387   4.200   4.992   1.128
 7681SOL    HW223388   4.304   5.088   1.209
 7682SOL     OW23389   5.279   5.235   0.703
 7682SOL    HW123390   5.222   5.219   0.784
 7682SOL    HW223391   5.220   5.245   0.623
 7683SOL     OW23392   4.859   4.427   0.717
 7683SOL    HW123393   4.916   4.505   0.692
 7683SOL    HW223394   4.799   4.453   0.793
 7684SOL     OW23395   4.492   4.868   1.023
 7684SOL    HW123396   4.414   4.885   1.083
 7684SOL    HW223397   4.526   4.955   0.987
 7685SOL     OW23398   4.574   4.522   1.823
 7685SOL    HW123399   4.570   4.598   1.888
 7685SOL    HW223400   4.596   4.558   1.732
 7686SOL     OW23401   4.409   4.736   0.665
 7686SOL    HW123402   4.478   4.720   0.735
 7686SOL    HW223403   4.336   4.793   0.703
 7687SOL     OW23404   4.410   4.885   1.803
 7687SOL    HW123405   4.470   4.964   1.817
 7687SOL    HW223406   4.324   4.916   1.762
 7688SOL     OW23407   4.059   5.159   1.061
 7688SOL    HW123408   3.981   5.128   1.008
 7688SOL    HW223409   4.117   5.217   1.004
 7689SOL     OW23410   5.184   5.229   1.339
 7689SOL    HW123411   5.208   5.323   1.365
 7689SOL    HW223412   5.168   5.175   1.421
 7690SOL     OW23413   4.162   4.116   1.499
 7690SOL    HW123414   4.244   4.060   1.508
 7690SOL    HW223415   4.081   4.058   1.503
 7691SOL     OW23416   5.327   4.171   0.737
 7691SOL    HW123417   5.253   4.217   0.687
 7691SOL    HW223418   5.378   4.239   0.790
 7692SOL     OW23419   3.955   5.437   0.483
 7692SOL    HW123420   3.989   5.514   0.537
 7692SOL    HW223421   3.999   5.437   0.393
 7693SOL     OW23422   4.851   5.065   1.690
 7693SOL    HW123423   4.898   5.065   1.778
 7693SOL    HW223424   4.803   4.978   1.679
 7694SOL     OW23425   3.954   5.158   0.538
 7694SOL    HW123426   3.928   5.254   0.538
 7694SOL    HW223427   3.883   5.104   0.583
 7695SOL     OW23428   3.964   4.815   0.886
 7695SOL    HW123429   3.978   4.731   0.938
 7695SOL    HW223430   3.909   4.879   0.941
 7696SOL     OW23431   4.330   4.688   0.123
 7696SOL    HW123432   4.337   4.772   0.069
 7696SOL    HW223433   4.376   4.701   0.211
 7697SOL     OW23434   5.318   3.838   1.480
 7697SOL    HW123435   5.300   3.905   1.408
 7697SOL    HW223436   5.315   3.884   1.569
 7698SOL     OW23437   3.846   4.367   0.563
 7698SOL    HW123438   3.801   4.279   0.580
 7698SOL    HW223439   3.845   4.421   0.647
 7699SOL     OW23440   3.751   5.320   0.117
 7699SOL    HW123441   3.732   5.224   0.138
 7699SOL    HW223442   3.718   5.378   0.192
 7700SOL     OW23443   5.413   4.646   0.612
 7700SOL    HW123444   5.508   4.617   0.620
 7700SOL    HW223445   5.405   4.711   0.537
 7701SOL     OW23446   5.365   4.832   0.432
 7701SOL    HW123447   5.451   4.834   0.380
 7701SOL    HW223448   5.379   4.879   0.520
 7702SOL     OW23449   3.837   4.461   1.597
 7702SOL    HW123450   3.925   4.448   1.642
 7702SOL    HW223451   3.824   4.558   1.575
 7703SOL     OW23452   4.337   5.089   0.726
 7703SOL    HW123453   4.288   5.002   0.735
 7703SOL    HW223454   4.314   5.132   0.639
 7704SOL     OW23455   5.017   4.952   1.423
 7704SOL    HW123456   5.054   4.879   1.365
 7704SOL    HW223457   5.069   4.957   1.508
 7705SOL     OW23458   4.533   3.728   0.502
 7705SOL    HW123459   4.573   3.819   0.493
 7705SOL    HW223460   4.433   3.736   0.508
 7706SOL     OW23461   3.921   4.700   1.264
 7706SOL    HW123462   4.010   4.655   1.250
 7706SOL    HW223463   3.848   4.635   1.245
 7707SOL     OW23464   5.249   4.723   0.190
 7707SOL    HW123465   5.186   4.647   0.203
 7707SOL    HW223466   5.297   4.741   0.276
 7708SOL     OW23467   4.041   3.975   1.801
 7708SOL    HW123468   4.112   4.046   1.807
 7708SOL    HW223469   3.953   4.014   1.829
 7709SOL     OW23470   5.190   5.141   0.953
 7709SOL    HW123471   5.131   5.147   1.033
 7709SOL    HW223472   5.175   5.053   0.907
 7710SOL     OW23473   5.391   5.438   0.572
 7710SOL    HW123474   5.350   5.415   0.484
 7710SOL    HW223475   5.373   5.364   0.637
 7711SOL     OW23476   4.322   4.453   0.270
 7711SOL    HW123477   4.346   4.522   0.202
 7711SOL    HW223478   4.244   4.486   0.324
 7712SOL     OW23479   5.005   4.069   0.944
 7712SOL    HW123480   4.919   4.019   0.931
 7712SOL    HW223481   5.067   4.015   1.000
 7713SOL     OW23482   5.300   5.386   0.307
 7713SOL    HW123483   5.389   5.432   0.310
 7713SOL    HW223484   5.279   5.362   0.212
 7714SOL     OW23485   4.531   4.329   1.465
 7714SOL    HW123486   4.484   4.326   1.554
 7714SOL    HW223487   4.480   4.274   1.399
 7715SOL     OW23488   5.118   4.193   1.674
 7715SOL    HW123489   5.098   4.236   1.762
 7715SOL    HW223490   5.196   4.131   1.683
 7716SOL     OW23491   4.697   4.614   1.572
 7716SOL    HW123492   4.743   4.530   1.543
 7716SOL    HW223493   4.641   4.648   1.497
 7717SOL     OW23494   4.715   4.134   1.242
 7717SOL    HW123495   4.638   4.168   1.296
 7717SOL    HW223496   4.681   4.083   1.163
 7718SOL     OW23497   4.765   4.425   0.429
 7718SOL    HW123498   4.791   4.421   0.525
 7718SOL    HW223499   4.680   4.374   0.415
 7719SOL     OW23500   3.800   4.535   0.789
 7719SOL    HW123501   3.899   4.523   0.798
 7719SOL    HW223502   3.776   4.630   0.810
 7720SOL     OW23503   3.854   5.545   1.571
 7720SOL    HW123504   3.844   5.530   1.670
 7720SOL    HW223505   3.768   5.581   1.535
 7721SOL     OW23506   4.589   4.072   0.195
 7721SOL    HW123507   4.648   4.135   0.146
 7721SOL    HW223508   4.608   3.978   0.166
 7722SOL     OW23509   5.443   4.309   1.831
 7722SOL    HW123510   5.417   4.398   1.795
 7722SOL    HW223511   5.441   4.241   1.758
 7723SOL     OW23512   5.086   4.868   0.545
 7723SOL    HW123513   5.169   4.839   0.497
 7723SOL    HW223514   5.037   4.935   0.489
 7724SOL     OW23515   4.732   5.180   0.477
 7724SOL    HW123516   4.686   5.252   0.425
 7724SOL    HW223517   4.728   5.200   0.575
 7725SOL     OW23518   4.075   5.525   0.853
 7725SOL    HW123519   4.125   5.439   0.859
 7725SOL    HW223520   4.140   5.602   0.850
 7726SOL     OW23521   5.519   4.790   0.873
 7726SOL    HW123522   5.457   4.775   0.797
 7726SOL    HW223523   5.467   4.801   0.958
 7727SOL     OW23524   4.045   4.667   0.242
 7727SOL    HW123525   4.127   4.706   0.200
 7727SOL    HW223526   4.018   4.585   0.193
 7728SOL     OW23527   5.182   4.459   0.728
 7728SOL    HW123528   5.177   4.394   0.803
 7728SOL    HW223529   5.262   4.518   0.741
 7729SOL     OW23530   4.185   4.990   1.727
 7729SOL    HW123531   4.135   4.991   1.641
 7729SOL    HW223532   4.122   4.972   1.803
 7730SOL     OW23533   4.835   5.500   0.237
 7730SOL    HW123534   4.775   5.438   0.287
 7730SOL    HW223535   4.866   5.456   0.152
 7731SOL     OW23536   3.926   4.009   1.498
 7731SOL    HW123537   3.846   4.069   1.485
 7731SOL    HW223538   3.916   3.960   1.584
 7732SOL     OW23539   4.188   5.467   0.323
 7732SOL    HW123540   4.221   5.506   0.409
 7732SOL    HW223541   4.264   5.460   0.258
 7733SOL     OW23542   3.973   5.509   1.241
 7733SOL    HW123543   4.030   5.444   1.291
 7733SOL    HW223544   3.957   5.476   1.148
 7734SOL     OW23545   4.664   5.422   0.904
 7734SOL    HW123546   4.744   5.365   0.925
 7734SOL    HW223547   4.615   5.382   0.827
 7735SOL     OW23548   4.106   4.424   0.480
 7735SOL    HW123549   4.151   4.334   0.477
 7735SOL    HW223550   4.012   4.413   0.513
 7736SOL     OW23551   5.271   3.946   1.729
 7736SOL    HW123552   5.266   3.983   1.821
 7736SOL    HW223553   5.199   3.877   1.717
 7737SOL     OW23554   4.505   3.988   1.749
 7737SOL    HW123555   4.572   3.927   1.792
 7737SOL    HW223556   4.432   4.007   1.814
 7738SOL     OW23557   4.612   5.238   1.195
 7738SOL    HW123558   4.589   5.213   1.101
 7738SOL    HW223559   4.673   5.169   1.234
 7739SOL     OW23560   5.075   4.314   1.433
 7739SOL    HW123561   5.103   4.271   1.518
 7739SOL    HW223562   5.100   4.410   1.434
 7740SOL     OW23563   4.527   5.126   0.924
 7740SOL    HW123564   4.617   5.140   0.882
 7740SOL    HW223565   4.456   5.128   0.853
 7741SOL     OW23566   4.646   4.227   0.899
 7741SOL    HW123567   4.621   4.218   0.803
 7741SOL    HW223568   4.694   4.145   0.930
 7742SOL     OW23569   4.263   3.788   0.512
 7742SOL    HW123570   4.182   3.789   0.570
 7742SOL    HW223571   4.266   3.871   0.457
 7743SOL     OW23572   5.158   4.912   0.041
 7743SOL    HW123573   5.190   4.836   0.098
 7743SOL    HW223574   5.066   4.939   0.071
 7744SOL     OW23575   4.659   3.960   0.480
 7744SOL    HW123576   4.611   4.001   0.402
 7744SOL    HW223577   4.758   3.958   0.461
 7745SOL     OW23578   4.800   4.407   1.464
 7745SOL    HW123579   4.720   4.346   1.467
 7745SOL    HW223580   4.881   4.354   1.440
 7746SOL     OW23581   4.951   5.294   0.793
 7746SOL    HW123582   4.972   5.368   0.728
 7746SOL    HW223583   5.019   5.294   0.866
 7747SOL     OW23584   4.183   4.876   0.741
 7747SOL    HW123585   4.112   4.849   0.806
 7747SOL    HW223586   4.157   4.848   0.648
 7748SOL     OW23587   4.995   5.521   0.591
 7748SOL    HW123588   5.039   5.585   0.527
 7748SOL    HW223589   4.945   5.573   0.661
 7749SOL     OW23590   4.756   4.273   0.016
 7749SOL    HW123591   4.715   4.355  -0.023
 7749SOL    HW223592   4.820   4.299   0.089
 7750SOL     OW23593   3.802   4.280   1.386
 7750SOL    HW123594   3.894   4.279   1.345
 7750SOL    HW223595   3.796   4.354   1.453
 7751SOL     OW23596   4.285   3.946   1.147
 7751SOL    HW123597   4.323   3.862   1.184
 7751SOL    HW223598   4.197   3.965   1.191
 7752SOL     OW23599   4.590   4.178   0.642
 7752SOL    HW123600   4.558   4.250   0.580
 7752SOL    HW223601   4.614   4.097   0.589
 7753SOL     OW23602   4.741   3.763   0.753
 7753SOL    HW123603   4.669   3.768   0.684
 7753SOL    HW223604   4.717   3.694   0.822
 7754SOL     OW23605   5.153   4.897   0.867
 7754SOL    HW123606   5.098   4.813   0.860
 7754SOL    HW223607   5.179   4.926   0.775
 7755SOL     OW23608   5.190   4.314   0.992
 7755SOL    HW123609   5.160   4.219   0.999
 7755SOL    HW223610   5.263   4.330   1.058
 7756SOL     OW23611   5.581   4.557   0.377
 7756SOL    HW123612   5.623   4.493   0.441
 7756SOL    HW223613   5.543   4.506   0.299
 7757SOL     OW23614   4.212   5.109   0.174
 7757SOL    HW123615   4.125   5.094   0.221
 7757SOL    HW223616   4.195   5.135   0.079
 7758SOL     OW23617   5.388   5.004   0.657
 7758SOL    HW123618   5.487   5.012   0.671
 7758SOL    HW223619   5.343   5.088   0.688
 7759SOL     OW23620   5.114   4.299   0.078
 7759SOL    HW123621   5.060   4.278   0.159
 7759SOL    HW223622   5.205   4.258   0.087
 7760SOL     OW23623   4.251   3.980   0.328
 7760SOL    HW123624   4.278   3.921   0.253
 7760SOL    HW223625   4.251   4.075   0.297
 7761SOL     OW23626   5.478   4.947   1.588
 7761SOL    HW123627   5.569   4.908   1.575
 7761SOL    HW223628   5.486   5.043   1.612
 7762SOL     OW23629   4.788   5.071   1.340
 7762SOL    HW123630   4.708   5.048   1.395
 7762SOL    HW223631   4.871   5.045   1.389
 7763SOL     OW23632   5.316   5.353   1.625
 7763SOL    HW123633   5.343   5.387   1.535
 7763SOL    HW223634   5.395   5.315   1.671
 7764SOL     OW23635   4.835   4.919   1.100
 7764SOL    HW123636   4.795   4.963   1.181
 7764SOL    HW223637   4.794   4.956   1.017
 7765SOL     OW23638   5.362   4.823   1.079
 7765SOL    HW123639   5.367   4.904   1.138
 7765SOL    HW223640   5.276   4.825   1.028
 7766SOL     OW23641   4.639   3.813   1.402
 7766SOL    HW123642   4.664   3.793   1.307
 7766SOL    HW223643   4.711   3.869   1.444
 7767SOL     OW23644   4.704   4.840   1.719
 7767SOL    HW123645   4.605   4.846   1.729
 7767SOL    HW223646   4.727   4.760   1.663
 7768SOL     OW23647   4.429   4.774   0.368
 7768SOL    HW123648   4.415   4.781   0.467
 7768SOL    HW223649   4.513   4.723   0.350
 7769SOL     OW23650   4.134   4.537   1.251
 7769SOL    HW123651   4.220   4.549   1.301
 7769SOL    HW223652   4.092   4.450   1.278
 7770SOL     OW23653   4.998   4.110   1.262
 7770SOL    HW123654   5.019   4.184   1.326
 7770SOL    HW223655   4.909   4.127   1.219
 7771SOL     OW23656   3.788   5.288   1.331
 7771SOL    HW123657   3.742   5.370   1.297
 7771SOL    HW223658   3.886   5.307   1.340
 7772SOL     OW23659   4.091   4.824   0.501
 7772SOL    HW123660   4.084   4.907   0.445
 7772SOL    HW223661   4.095   4.744   0.441
 7773SOL     OW23662   4.290   4.261   0.865
 7773SOL    HW123663   4.302   4.327   0.791
 7773SOL    HW223664   4.336   4.295   0.948
 7774SOL     OW23665   4.976   5.072   0.388
 7774SOL    HW123666   5.026   5.149   0.428
 7774SOL    HW223667   4.881   5.074   0.420
 7775SOL     OW23668   4.996   5.169   1.142
 7775SOL    HW123669   5.043   5.182   1.229
 7775SOL    HW223670   4.930   5.095   1.151
 7776SOL     OW23671   5.306   4.363   0.472
 7776SOL    HW123672   5.275   4.424   0.545
 7776SOL    HW223673   5.356   4.415   0.403
 7777SOL     OW23674   4.078   5.234   1.329
 7777SOL    HW123675   4.057   5.190   1.242
 7777SOL    HW223676   4.175   5.260   1.332
 7778SOL     OW23677   4.126   4.475   1.598
 7778SOL    HW123678   4.194   4.530   1.551
 7778SOL    HW223679   4.166   4.387   1.625
 7779SOL     OW23680   5.311   4.503   1.670
 7779SOL    HW123681   5.219   4.541   1.665
 7779SOL    HW223682   5.371   4.550   1.605
 7780SOL     OW23683   4.737   3.829   1.770
 7780SOL    HW123684   4.743   3.914   1.718
 7780SOL    HW223685   4.769   3.753   1.713
 7781SOL     OW23686   4.228   3.774   1.740
 7781SOL    HW123687   4.186   3.717   1.670
 7781SOL    HW223688   4.162   3.843   1.772
 7782SOL     OW23689   4.297   4.594   1.029
 7782SOL    HW123690   4.341   4.683   1.020
 7782SOL    HW223691   4.234   4.594   1.106
 7783SOL     OW23692   5.084   4.586   1.045
 7783SOL    HW123693   5.009   4.586   0.979
 7783SOL    HW223694   5.121   4.494   1.054
 7784SOL     OW23695   4.933   4.249   0.275
 7784SOL    HW123696   4.946   4.165   0.329
 7784SOL    HW223697   4.904   4.323   0.335
 7785SOL     OW23698   4.031   3.937   1.231
 7785SOL    HW123699   4.008   3.974   1.321
 7785SOL    HW223700   4.001   3.842   1.225
 7786SOL     OW23701   3.761   5.034   1.282
 7786SOL    HW123702   3.814   4.985   1.350
 7786SOL    HW223703   3.783   5.132   1.287
 7787SOL     OW23704   4.456   4.358   1.064
 7787SOL    HW123705   4.515   4.332   0.988
 7787SOL    HW223706   4.428   4.454   1.053
 7788SOL     OW23707   5.452   4.659   1.854
 7788SOL    HW123708   5.406   4.652   1.765
 7788SOL    HW223709   5.390   4.703   1.920
 7789SOL     OW23710   4.031   3.787   0.618
 7789SOL    HW123711   4.020   3.881   0.651
 7789SOL    HW223712   4.026   3.724   0.695
 7790SOL     OW23713   5.346   4.091   0.374
 7790SOL    HW123714   5.348   4.015   0.438
 7790SOL    HW223715   5.298   4.168   0.414
 7791SOL     OW23716   4.747   4.490   0.966
 7791SOL    HW123717   4.762   4.511   1.062
 7791SOL    HW223718   4.717   4.395   0.957
 7792SOL     OW23719   4.704   5.297   1.700
 7792SOL    HW123720   4.684   5.341   1.612
 7792SOL    HW223721   4.743   5.206   1.684
 7793SOL     OW23722   5.583   5.242   1.605
 7793SOL    HW123723   5.597   5.269   1.510
 7793SOL    HW223724   5.666   5.264   1.658
 7794SOL     OW23725   4.074   4.622   1.804
 7794SOL    HW123726   4.150   4.666   1.852
 7794SOL    HW223727   4.109   4.575   1.722
 7795SOL     OW23728   5.027   4.562   0.042
 7795SOL    HW123729   5.061   4.469   0.057
 7795SOL    HW223730   5.045   4.589  -0.053
 7796SOL     OW23731   4.792   5.057   0.849
 7796SOL    HW123732   4.799   4.973   0.794
 7796SOL    HW223733   4.854   5.126   0.813
 7797SOL     OW23734   4.043   4.534   0.949
 7797SOL    HW123735   4.136   4.570   0.954
 7797SOL    HW223736   4.037   4.449   1.001
 7798SOL     OW23737   4.063   4.233   1.006
 7798SOL    HW123738   4.011   4.150   0.989
 7798SOL    HW223739   4.140   4.238   0.942
 7799SOL     OW23740   4.862   4.104   1.678
 7799SOL    HW123741   4.817   4.167   1.742
 7799SOL    HW223742   4.955   4.135   1.661
 7800SOL     OW23743   4.884   3.931   1.477
 7800SOL    HW123744   4.884   3.995   1.554
 7800SOL    HW223745   4.912   3.979   1.394
 7801SOL     OW23746   3.732   5.050   0.200
 7801SOL    HW123747   3.639   5.071   0.169
 7801SOL    HW223748   3.742   4.951   0.213
 7802SOL     OW23749   3.812   5.525   0.927
 7802SOL    HW123750   3.770   5.439   0.900
 7802SOL    HW223751   3.906   5.528   0.893
 7803SOL     OW23752   4.228   5.292   0.910
 7803SOL    HW123753   4.294   5.366   0.919
 7803SOL    HW223754   4.272   5.213   0.868
 7804SOL     OW23755   4.726   4.520   1.238
 7804SOL    HW123756   4.767   4.488   1.324
 7804SOL    HW223757   4.630   4.493   1.235
 7805SOL     OW23758   3.764   4.268   1.114
 7805SOL    HW123759   3.849   4.235   1.073
 7805SOL    HW223760   3.777   4.283   1.212
 7806SOL     OW23761   3.913   4.244   1.722
 7806SOL    HW123762   3.972   4.204   1.652
 7806SOL    HW223763   3.855   4.315   1.681
 7807SOL     OW23764   5.093   4.674   1.660
 7807SOL    HW123765   5.132   4.763   1.680
 7807SOL    HW223766   5.103   4.654   1.563
 7808SOL     OW23767   4.539   4.296   0.325
 7808SOL    HW123768   4.546   4.207   0.279
 7808SOL    HW223769   4.445   4.330   0.317
 7809SOL     OW23770   5.381   4.328   1.206
 7809SOL    HW123771   5.343   4.259   1.268
 7809SOL    HW223772   5.463   4.292   1.162
 7810SOL     OW23773   3.976   5.288   1.744
 7810SOL    HW123774   3.946   5.345   1.820
 7810SOL    HW223775   3.969   5.191   1.770
 7811SOL     OW23776   4.395   4.188   1.269
 7811SOL    HW123777   4.361   4.099   1.239
 7811SOL    HW223778   4.421   4.242   1.189
 7812SOL     OW23779   4.654   5.402   1.465
 7812SOL    HW123780   4.630   5.384   1.370
 7812SOL    HW223781   4.684   5.496   1.475
 7813SOL     OW23782   4.197   4.224   0.191
 7813SOL    HW123783   4.258   4.304   0.195
 7813SOL    HW223784   4.102   4.255   0.198
 7814SOL     OW23785   3.883   4.861   1.466
 7814SOL    HW123786   3.905   4.800   1.542
 7814SOL    HW223787   3.893   4.812   1.380
 7815SOL     OW23788   5.071   4.783   1.234
 7815SOL    HW123789   5.095   4.720   1.160
 7815SOL    HW223790   4.981   4.823   1.216
 7816SOL     OW23791   5.026   4.579   0.309
 7816SOL    HW123792   4.940   4.548   0.351
 7816SOL    HW223793   5.022   4.565   0.210
 7817SOL     OW23794   5.483   5.471   1.154
 7817SOL    HW123795   5.544   5.501   1.081
 7817SOL    HW223796   5.445   5.382   1.132
 7818SOL     OW23797   4.976   5.455   1.128
 7818SOL    HW123798   5.060   5.460   1.074
 7818SOL    HW223799   4.953   5.359   1.146
 7819SOL     OW23800   3.807   4.982   1.022
 7819SOL    HW123801   3.802   4.981   1.122
 7819SOL    HW223802   3.724   4.941   0.984
 7820SOL     OW23803   5.450   3.859   0.523
 7820SOL    HW123804   5.523   3.842   0.456
 7820SOL    HW223805   5.419   3.772   0.561
 7821SOL     OW23806   5.112   5.297   0.477
 7821SOL    HW123807   5.179   5.309   0.403
 7821SOL    HW223808   5.072   5.386   0.500
 7822SOL     OW23809   3.854   5.518   1.851
 7822SOL    HW123810   3.813   5.444   1.904
 7822SOL    HW223811   3.918   5.569   1.909
 7823SOL     OW23812   5.004   4.651   0.672
 7823SOL    HW123813   5.064   4.570   0.674
 7823SOL    HW223814   5.044   4.720   0.612
 7824SOL     OW23815   4.554   4.997   1.422
 7824SOL    HW123816   4.549   5.030   1.517
 7824SOL    HW223817   4.468   5.016   1.376
 7825SOL     OW23818   4.396   5.340   0.154
 7825SOL    HW123819   4.405   5.350   0.055
 7825SOL    HW223820   4.356   5.251   0.175
 7826SOL     OW23821   5.374   5.444   1.394
 7826SOL    HW123822   5.427   5.454   1.310
 7826SOL    HW223823   5.347   5.534   1.428
 7827SOL     OW23824   5.565   3.899   0.963
 7827SOL    HW123825   5.604   3.814   0.927
 7827SOL    HW223826   5.467   3.901   0.944
 7828SOL     OW23827   3.987   4.050   0.720
 7828SOL    HW123828   3.908   4.101   0.686
 7828SOL    HW223829   3.978   4.035   0.818
 7829SOL     OW23830   4.918   5.336   0.031
 7829SOL    HW123831   4.924   5.243   0.068
 7829SOL    HW223832   4.859   5.336  -0.049
 7830SOL     OW23833   4.546   4.726   1.372
 7830SOL    HW123834   4.586   4.725   1.280
 7830SOL    HW223835   4.556   4.818   1.412
 7831SOL     OW23836   4.640   4.634   0.291
 7831SOL    HW123837   4.703   4.672   0.223
 7831SOL    HW223838   4.680   4.551   0.330
 7832SOL     OW23839   5.228   5.331   0.044
 7832SOL    HW123840   5.136   5.368   0.051
 7832SOL    HW223841   5.266   5.351  -0.046
 7833SOL     OW23842   4.096   5.012   1.490
 7833SOL    HW123843   4.083   5.105   1.456
 7833SOL    HW223844   4.012   4.960   1.477
 7834SOL     OW23845   5.338   5.016   1.289
 7834SOL    HW123846   5.398   5.019   1.369
 7834SOL    HW223847   5.263   5.080   1.302
 7835SOL     OW23848   4.763   4.822   0.696
 7835SOL    HW123849   4.693   4.775   0.750
 7835SOL    HW223850   4.822   4.754   0.653
 7836SOL     OW23851   4.738   3.960   0.971
 7836SOL    HW123852   4.730   3.924   0.878
 7836SOL    HW223853   4.736   3.884   1.036
 7837SOL     OW23854   4.314   5.211   0.491
 7837SOL    HW123855   4.356   5.153   0.421
 7837SOL    HW223856   4.270   5.290   0.447
 7838SOL     OW23857   5.433   4.109   1.381
 7838SOL    HW123858   5.506   4.178   1.385
 7838SOL    HW223859   5.461   4.034   1.322
 7839SOL     OW23860   3.979   5.072   0.290
 7839SOL    HW123861   3.883   5.073   0.263
 7839SOL    HW223862   3.991   5.125   0.374
 7840SOL     OW23863   3.829   4.737   1.726
 7840SOL    HW123864   3.752   4.704   1.780
 7840SOL    HW223865   3.914   4.707   1.768
 7841SOL     OW23866   4.396   3.927   1.489
 7841SOL    HW123867   4.486   3.911   1.449
 7841SOL    HW223868   4.404   3.932   1.588
 7842SOL     OW23869   5.164   4.580   1.398
 7842SOL    HW123870   5.107   4.632   1.335
 7842SOL    HW223871   5.260   4.592   1.374
 7843SOL     OW23872   3.796   3.890   0.318
 7843SOL    HW123873   3.779   3.973   0.264
 7843SOL    HW223874   3.886   3.853   0.296
 7844SOL     OW23875   4.907   5.059   0.119
 7844SOL    HW123876   4.808   5.048   0.121
 7844SOL    HW223877   4.941   5.074   0.212
 7845SOL     OW23878   4.337   4.566   1.431
 7845SOL    HW123879   4.393   4.647   1.414
 7845SOL    HW223880   4.396   4.486   1.434
 7846SOL     OW23881   5.217   5.491   0.959
 7846SOL    HW123882   5.250   5.555   0.890
 7846SOL    HW223883   5.283   5.485   1.034
 7847SOL     OW23884   4.440   4.289   1.708
 7847SOL    HW123885   4.459   4.354   1.782
 7847SOL    HW223886   4.500   4.209   1.717
 7848SOL     OW23887   5.174   4.944   1.633
 7848SOL    HW123888   5.165   4.934   1.732
 7848SOL    HW223889   5.270   4.937   1.607
 7849SOL     OW23890   4.114   5.465   1.560
 7849SOL    HW123891   4.023   5.506   1.558
 7849SOL    HW223892   4.107   5.371   1.592
 7850SOL     OW23893   5.398   4.607   1.254
 7850SOL    HW123894   5.371   4.518   1.217
 7850SOL    HW223895   5.399   4.675   1.181
 7851SOL     OW23896   4.949   4.049   0.449
 7851SOL    HW123897   5.014   3.975   0.438
 7851SOL    HW223898   4.969   4.099   0.533
 7852SOL     OW23899   4.318   4.469   0.652
 7852SOL    HW123900   4.368   4.554   0.633
 7852SOL    HW223901   4.230   4.471   0.604
 7853SOL     OW23902   5.501   4.066   1.642
 7853SOL    HW123903   5.484   4.097   1.548
 7853SOL    HW223904   5.417   4.029   1.680
 7854SOL     OW23905   5.454   4.658   1.517
 7854SOL    HW123906   5.492   4.749   1.532
 7854SOL    HW223907   5.446   4.641   1.418
 7855SOL     OW23908   4.583   5.098   0.016
 7855SOL    HW123909   4.537   5.113   0.104
 7855SOL    HW223910   4.627   5.183  -0.014
 7856SOL     OW23911   4.385   5.514   0.953
 7856SOL    HW123912   4.339   5.602   0.940
 7856SOL    HW223913   4.484   5.526   0.946
 7857SOL     OW23914   4.583   4.680   0.861
 7857SOL    HW123915   4.637   4.611   0.909
 7857SOL    HW223916   4.551   4.749   0.927
 7858SOL     OW23917   4.807   4.708   0.087
 7858SOL    HW123918   4.784   4.761   0.005
 7858SOL    HW223919   4.888   4.652   0.068
 7859SOL     OW23920   5.585   5.293   0.851
 7859SOL    HW123921   5.514   5.281   0.781
 7859SOL    HW223922   5.586   5.214   0.911
 7860SOL     OW23923   3.945   5.038   1.844
 7860SOL    HW123924   3.880   4.965   1.823
 7860SOL    HW223925   3.949   5.052   1.942
 7861SOL     OW23926   3.803   4.964   0.653
 7861SOL    HW123927   3.802   4.917   0.741
 7861SOL    HW223928   3.885   4.936   0.602
 7862SOL     OW23929   4.396   5.115   1.624
 7862SOL    HW123930   4.318   5.065   1.662
 7862SOL    HW223931   4.393   5.210   1.655
 7863SOL     OW23932   5.548   3.916   1.227
 7863SOL    HW123933   5.544   3.826   1.271
 7863SOL    HW223934   5.551   3.905   1.128
 7864SOL     OW23935   4.152   4.148   0.520
 7864SOL    HW123936   4.182   4.076   0.458
 7864SOL    HW223937   4.113   4.108   0.603
 7865SOL     OW23938   5.429   5.211   1.104
 7865SOL    HW123939   5.336   5.186   1.077
 7865SOL    HW223940   5.455   5.161   1.186
 7866SOL     OW23941   4.041   4.271   1.280
 7866SOL    HW123942   4.079   4.212   1.352
 7866SOL    HW223943   4.081   4.245   1.192
 7867SOL     OW23944   4.536   5.310   0.687
 7867SOL    HW123945   4.568   5.320   0.593
 7867SOL    HW223946   4.457   5.248   0.689
 7868SOL     OW23947   5.148   3.938   1.112
 7868SOL    HW123948   5.200   3.873   1.167
 7868SOL    HW223949   5.099   4.001   1.173
 7869SOL     OW23950   4.725   3.758   1.154
 7869SOL    HW123951   4.662   3.686   1.123
 7869SOL    HW223952   4.818   3.722   1.154
 7870SOL     OW23953   4.494   5.054   0.301
 7870SOL    HW123954   4.448   4.967   0.318
 7870SOL    HW223955   4.585   5.051   0.342
 7871SOL     OW23956   4.342   5.291   1.284
 7871SOL    HW123957   4.337   5.373   1.341
 7871SOL    HW223958   4.431   5.288   1.239
 7872SOL     OW23959   5.024   4.177   0.691
 7872SOL    HW123960   4.965   4.257   0.695
 7872SOL    HW223961   5.039   4.142   0.784
 7873SOL     OW23962   5.317   3.945   0.882
 7873SOL    HW123963   5.233   3.944   0.936
 7873SOL    HW223964   5.319   4.028   0.826
 7874SOL     OW23965   3.763   4.801   0.300
 7874SOL    HW123966   3.862   4.790   0.291
 7874SOL    HW223967   3.723   4.715   0.332
 7875SOL     OW23968   4.599   5.370   0.337
 7875SOL    HW123969   4.522   5.335   0.283
 7875SOL    HW223970   4.567   5.441   0.399
 7876SOL     OW23971   3.954   4.352   1.975
 7876SOL    HW123972   3.861   4.350   2.012
 7876SOL    HW223973   3.955   4.313   1.883
 7877SOL     OW23974   3.949   3.999   2.858
 7877SOL    HW123975   3.984   3.982   2.950
 7877SOL    HW223976   3.861   3.954   2.846
 7878SOL     OW23977   3.743   4.092   2.509
 7878SOL    HW123978   3.661   4.135   2.548
 7878SOL    HW223979   3.715   4.019   2.446
 7879SOL     OW23980   4.293   4.999   3.027
 7879SOL    HW123981   4.200   4.992   2.990
 7879SOL    HW223982   4.304   5.088   3.071
 7880SOL     OW23983   5.279   5.235   2.565
 7880SOL    HW123984   5.222   5.219   2.646
 7880SOL    HW223985   5.220   5.245   2.485
 7881SOL     OW23986   4.859   4.427   2.579
 7881SOL    HW123987   4.916   4.505   2.554
 7881SOL    HW223988   4.799   4.453   2.655
 7882SOL     OW23989   5.479   4.331   2.093
 7882SOL    HW123990   5.467   4.318   1.994
 7882SOL    HW223991   5.449   4.250   2.142
 7883SOL     OW23992   4.492   4.868   2.885
 7883SOL    HW123993   4.414   4.885   2.945
 7883SOL    HW223994   4.526   4.955   2.849
 7884SOL     OW23995   4.574   4.522   3.685
 7884SOL    HW123996   4.570   4.598   3.750
 7884SOL    HW223997   4.596   4.558   3.594
 7885SOL     OW23998   4.409   4.736   2.527
 7885SOL    HW123999   4.478   4.720   2.597
 7885SOL    HW224000   4.336   4.793   2.565
 7886SOL     OW24001   4.410   4.885   3.665
 7886SOL    HW124002   4.470   4.964   3.679
 7886SOL    HW224003   4.324   4.916   3.624
 7887SOL     OW24004   4.059   5.159   2.923
 7887SOL    HW124005   3.981   5.128   2.870
 7887SOL    HW224006   4.117   5.217   2.866
 7888SOL     OW24007   5.184   5.229   3.201
 7888SOL    HW124008   5.208   5.323   3.227
 7888SOL    HW224009   5.168   5.175   3.283
 7889SOL     OW24010   4.162   4.116   3.361
 7889SOL    HW124011   4.244   4.060   3.370
 7889SOL    HW224012   4.081   4.058   3.365
 7890SOL     OW24013   5.327   4.171   2.599
 7890SOL    HW124014   5.253   4.217   2.549
 7890SOL    HW224015   5.378   4.239   2.652
 7891SOL     OW24016   3.955   5.437   2.345
 7891SOL    HW124017   3.989   5.514   2.399
 7891SOL    HW224018   3.999   5.437   2.255
 7892SOL     OW24019   4.851   5.065   3.552
 7892SOL    HW124020   4.898   5.065   3.640
 7892SOL    HW224021   4.803   4.978   3.541
 7893SOL     OW24022   3.954   5.158   2.400
 7893SOL    HW124023   3.928   5.254   2.400
 7893SOL    HW224024   3.883   5.104   2.445
 7894SOL     OW24025   3.964   4.815   2.748
 7894SOL    HW124026   3.978   4.731   2.800
 7894SOL    HW224027   3.909   4.879   2.803
 7895SOL     OW24028   4.344   5.510   3.301
 7895SOL    HW124029   4.252   5.493   3.336
 7895SOL    HW224030   4.372   5.602   3.327
 7896SOL     OW24031   4.330   4.688   1.985
 7896SOL    HW124032   4.337   4.772   1.931
 7896SOL    HW224033   4.376   4.701   2.073
 7897SOL     OW24034   5.318   3.838   3.342
 7897SOL    HW124035   5.300   3.905   3.270
 7897SOL    HW224036   5.315   3.884   3.431
 7898SOL     OW24037   3.846   4.367   2.425
 7898SOL    HW124038   3.801   4.279   2.442
 7898SOL    HW224039   3.845   4.421   2.509
 7899SOL     OW24040   5.566   5.491   2.221
 7899SOL    HW124041   5.620   5.462   2.301
 7899SOL    HW224042   5.596   5.581   2.192
 7900SOL     OW24043   3.751   5.320   1.979
 7900SOL    HW124044   3.732   5.224   2.000
 7900SOL    HW224045   3.718   5.378   2.054
 7901SOL     OW24046   5.413   4.646   2.474
 7901SOL    HW124047   5.508   4.617   2.482
 7901SOL    HW224048   5.405   4.711   2.399
 7902SOL     OW24049   5.365   4.832   2.294
 7902SOL    HW124050   5.451   4.834   2.242
 7902SOL    HW224051   5.379   4.879   2.382
 7903SOL     OW24052   3.837   4.461   3.459
 7903SOL    HW124053   3.925   4.448   3.504
 7903SOL    HW224054   3.824   4.558   3.437
 7904SOL     OW24055   4.337   5.089   2.588
 7904SOL    HW124056   4.288   5.002   2.597
 7904SOL    HW224057   4.314   5.132   2.501
 7905SOL     OW24058   5.017   4.952   3.285
 7905SOL    HW124059   5.054   4.879   3.227
 7905SOL    HW224060   5.069   4.957   3.370
 7906SOL     OW24061   4.533   3.728   2.364
 7906SOL    HW124062   4.573   3.819   2.355
 7906SOL    HW224063   4.433   3.736   2.370
 7907SOL     OW24064   5.249   4.723   2.052
 7907SOL    HW124065   5.186   4.647   2.065
 7907SOL    HW224066   5.297   4.741   2.138
 7908SOL     OW24067   4.911   5.516   3.478
 7908SOL    HW124068   4.935   5.576   3.402
 7908SOL    HW224069   4.918   5.421   3.448
 7909SOL     OW24070   4.041   3.975   3.663
 7909SOL    HW124071   4.112   4.046   3.669
 7909SOL    HW224072   3.953   4.014   3.691
 7910SOL     OW24073   5.190   5.141   2.815
 7910SOL    HW124074   5.131   5.147   2.895
 7910SOL    HW224075   5.175   5.053   2.769
 7911SOL     OW24076   4.322   4.453   2.132
 7911SOL    HW124077   4.346   4.522   2.064
 7911SOL    HW224078   4.244   4.486   2.186
 7912SOL     OW24079   5.005   4.069   2.806
 7912SOL    HW124080   4.919   4.019   2.793
 7912SOL    HW224081   5.067   4.015   2.862
 7913SOL     OW24082   4.531   4.329   3.327
 7913SOL    HW124083   4.484   4.326   3.416
 7913SOL    HW224084   4.480   4.274   3.261
 7914SOL     OW24085   5.118   4.193   3.536
 7914SOL    HW124086   5.098   4.236   3.624
 7914SOL    HW224087   5.196   4.131   3.545
 7915SOL     OW24088   4.697   4.614   3.434
 7915SOL    HW124089   4.743   4.530   3.405
 7915SOL    HW224090   4.641   4.648   3.359
 7916SOL     OW24091   4.715   4.134   3.104
 7916SOL    HW124092   4.638   4.168   3.158
 7916SOL    HW224093   4.681   4.083   3.025
 7917SOL     OW24094   4.765   4.425   2.291
 7917SOL    HW124095   4.791   4.421   2.387
 7917SOL    HW224096   4.680   4.374   2.277
 7918SOL     OW24097   3.800   4.535   2.651
 7918SOL    HW124098   3.899   4.523   2.660
 7918SOL    HW224099   3.776   4.630   2.672
 7919SOL     OW24100   4.589   4.072   2.057
 7919SOL    HW124101   4.648   4.135   2.008
 7919SOL    HW224102   4.608   3.978   2.028
 7920SOL     OW24103   5.443   4.309   3.693
 7920SOL    HW124104   5.417   4.398   3.657
 7920SOL    HW224105   5.441   4.241   3.620
 7921SOL     OW24106   4.274   3.920   2.747
 7921SOL    HW124107   4.269   3.915   2.847
 7921SOL    HW224108   4.276   4.016   2.718
 7922SOL     OW24109   5.519   4.790   2.735
 7922SOL    HW124110   5.457   4.775   2.659
 7922SOL    HW224111   5.467   4.801   2.820
 7923SOL     OW24112   4.951   5.274   3.368
 7923SOL    HW124113   4.957   5.197   3.432
 7923SOL    HW224114   4.899   5.248   3.288
 7924SOL     OW24115   4.045   4.667   2.104
 7924SOL    HW124116   4.127   4.706   2.062
 7924SOL    HW224117   4.018   4.585   2.055
 7925SOL     OW24118   5.182   4.459   2.590
 7925SOL    HW124119   5.177   4.394   2.665
 7925SOL    HW224120   5.262   4.518   2.603
 7926SOL     OW24121   4.185   4.990   3.589
 7926SOL    HW124122   4.135   4.991   3.503
 7926SOL    HW224123   4.122   4.972   3.665
 7927SOL     OW24124   3.926   4.009   3.360
 7927SOL    HW124125   3.846   4.069   3.347
 7927SOL    HW224126   3.916   3.960   3.446
 7928SOL     OW24127   5.356   5.101   1.943
 7928SOL    HW124128   5.324   5.195   1.933
 7928SOL    HW224129   5.280   5.038   1.931
 7929SOL     OW24130   4.188   5.467   2.185
 7929SOL    HW124131   4.221   5.506   2.271
 7929SOL    HW224132   4.264   5.460   2.120
 7930SOL     OW24133   5.124   3.831   2.288
 7930SOL    HW124134   5.100   3.794   2.198
 7930SOL    HW224135   5.223   3.847   2.292
 7931SOL     OW24136   4.106   4.424   2.342
 7931SOL    HW124137   4.151   4.334   2.339
 7931SOL    HW224138   4.012   4.413   2.375
 7932SOL     OW24139   5.271   3.946   3.591
 7932SOL    HW124140   5.266   3.983   3.683
 7932SOL    HW224141   5.199   3.877   3.579
 7933SOL     OW24142   4.338   3.846   1.979
 7933SOL    HW124143   4.436   3.824   1.986
 7933SOL    HW224144   4.307   3.829   1.886
 7934SOL     OW24145   4.505   3.988   3.611
 7934SOL    HW124146   4.572   3.927   3.654
 7934SOL    HW224147   4.432   4.007   3.676
 7935SOL     OW24148   5.075   4.314   3.295
 7935SOL    HW124149   5.103   4.271   3.380
 7935SOL    HW224150   5.100   4.410   3.296
 7936SOL     OW24151   4.527   5.126   2.786
 7936SOL    HW124152   4.617   5.140   2.744
 7936SOL    HW224153   4.456   5.128   2.715
 7937SOL     OW24154   4.646   4.227   2.761
 7937SOL    HW124155   4.621   4.218   2.665
 7937SOL    HW224156   4.694   4.145   2.792
 7938SOL     OW24157   4.263   3.788   2.374
 7938SOL    HW124158   4.182   3.789   2.432
 7938SOL    HW224159   4.266   3.871   2.319
 7939SOL     OW24160   5.158   4.912   1.903
 7939SOL    HW124161   5.190   4.836   1.960
 7939SOL    HW224162   5.066   4.939   1.933
 7940SOL     OW24163   4.021   3.759   2.033
 7940SOL    HW124164   4.070   3.843   2.012
 7940SOL    HW224165   4.083   3.694   2.078
 7941SOL     OW24166   4.659   3.960   2.342
 7941SOL    HW124167   4.611   4.001   2.264
 7941SOL    HW224168   4.758   3.958   2.323
 7942SOL     OW24169   4.800   4.407   3.326
 7942SOL    HW124170   4.720   4.346   3.329
 7942SOL    HW224171   4.881   4.354   3.302
 7943SOL     OW24172   4.951   5.294   2.655
 7943SOL    HW124173   4.972   5.368   2.590
 7943SOL    HW224174   5.019   5.294   2.728
 7944SOL     OW24175   4.183   4.876   2.603
 7944SOL    HW124176   4.112   4.849   2.668
 7944SOL    HW224177   4.157   4.848   2.510
 7945SOL     OW24178   4.756   4.273   1.878
 7945SOL    HW124179   4.715   4.355   1.839
 7945SOL    HW224180   4.820   4.299   1.951
 7946SOL     OW24181   3.802   4.280   3.248
 7946SOL    HW124182   3.894   4.279   3.207
 7946SOL    HW224183   3.796   4.354   3.315
 7947SOL     OW24184   4.285   3.946   3.009
 7947SOL    HW124185   4.323   3.862   3.046
 7947SOL    HW224186   4.197   3.965   3.053
 7948SOL     OW24187   4.590   4.178   2.504
 7948SOL    HW124188   4.558   4.250   2.442
 7948SOL    HW224189   4.614   4.097   2.451
 7949SOL     OW24190   4.741   3.763   2.615
 7949SOL    HW124191   4.669   3.768   2.546
 7949SOL    HW224192   4.717   3.694   2.684
 7950SOL     OW24193   5.153   4.897   2.729
 7950SOL    HW124194   5.098   4.813   2.722
 7950SOL    HW224195   5.179   4.926   2.637
 7951SOL     OW24196   5.190   4.314   2.854
 7951SOL    HW124197   5.160   4.219   2.861
 7951SOL    HW224198   5.263   4.330   2.920
 7952SOL     OW24199   5.581   4.557   2.239
 7952SOL    HW124200   5.623   4.493   2.303
 7952SOL    HW224201   5.543   4.506   2.161
 7953SOL     OW24202   4.212   5.109   2.036
 7953SOL    HW124203   4.125   5.094   2.083
 7953SOL    HW224204   4.195   5.135   1.941
 7954SOL     OW24205   5.388   5.004   2.519
 7954SOL    HW124206   5.487   5.012   2.533
 7954SOL    HW224207   5.343   5.088   2.550
 7955SOL     OW24208   5.114   4.299   1.940
 7955SOL    HW124209   5.060   4.278   2.021
 7955SOL    HW224210   5.205   4.258   1.949
 7956SOL     OW24211   4.251   3.980   2.190
 7956SOL    HW124212   4.278   3.921   2.115
 7956SOL    HW224213   4.251   4.075   2.159
 7957SOL     OW24214   5.478   4.947   3.450
 7957SOL    HW124215   5.569   4.908   3.437
 7957SOL    HW224216   5.486   5.043   3.474
 7958SOL     OW24217   4.788   5.071   3.202
 7958SOL    HW124218   4.708   5.048   3.257
 7958SOL    HW224219   4.871   5.045   3.251
 7959SOL     OW24220   5.316   5.353   3.487
 7959SOL    HW124221   5.343   5.387   3.397
 7959SOL    HW224222   5.395   5.315   3.533
 7960SOL     OW24223   4.835   4.919   2.962
 7960SOL    HW124224   4.795   4.963   3.043
 7960SOL    HW224225   4.794   4.956   2.879
 7961SOL     OW24226   5.362   4.823   2.941
 7961SOL    HW124227   5.367   4.904   3.000
 7961SOL    HW224228   5.276   4.825   2.890
 7962SOL     OW24229   4.639   3.813   3.264
 7962SOL    HW124230   4.664   3.793   3.169
 7962SOL    HW224231   4.711   3.869   3.306
 7963SOL     OW24232   4.704   4.840   3.581
 7963SOL    HW124233   4.605   4.846   3.591
 7963SOL    HW224234   4.727   4.760   3.525
 7964SOL     OW24235   4.429   4.774   2.230
 7964SOL    HW124236   4.415   4.781   2.329
 7964SOL    HW224237   4.513   4.723   2.212
 7965SOL     OW24238   4.134   4.537   3.113
 7965SOL    HW124239   4.220   4.549   3.163
 7965SOL    HW224240   4.092   4.450   3.140
 7966SOL     OW24241   4.998   4.110   3.124
 7966SOL    HW124242   5.019   4.184   3.188
 7966SOL    HW224243   4.909   4.127   3.081
 7967SOL     OW24244   4.091   4.824   2.363
 7967SOL    HW124245   4.084   4.907   2.307
 7967SOL    HW224246   4.095   4.744   2.303
 7968SOL     OW24247   4.290   4.261   2.727
 7968SOL    HW124248   4.302   4.327   2.653
 7968SOL    HW224249   4.336   4.295   2.810
 7969SOL     OW24250   4.996   5.169   3.004
 7969SOL    HW124251   5.043   5.182   3.091
 7969SOL    HW224252   4.930   5.095   3.013
 7970SOL     OW24253   5.306   4.363   2.334
 7970SOL    HW124254   5.275   4.424   2.407
 7970SOL    HW224255   5.356   4.415   2.265
 7971SOL     OW24256   4.126   4.475   3.460
 7971SOL    HW124257   4.194   4.530   3.413
 7971SOL    HW224258   4.166   4.387   3.487
 7972SOL     OW24259   5.311   4.503   3.532
 7972SOL    HW124260   5.219   4.541   3.527
 7972SOL    HW224261   5.371   4.550   3.467
 7973SOL     OW24262   4.737   3.829   3.632
 7973SOL    HW124263   4.743   3.914   3.580
 7973SOL    HW224264   4.769   3.753   3.575
 7974SOL     OW24265   4.228   3.774   3.602
 7974SOL    HW124266   4.186   3.717   3.532
 7974SOL    HW224267   4.162   3.843   3.634
 7975SOL     OW24268   4.297   4.594   2.891
 7975SOL    HW124269   4.341   4.683   2.882
 7975SOL    HW224270   4.234   4.594   2.968
 7976SOL     OW24271   5.084   4.586   2.907
 7976SOL    HW124272   5.009   4.586   2.841
 7976SOL    HW224273   5.121   4.494   2.916
 7977SOL     OW24274   4.933   4.249   2.137
 7977SOL    HW124275   4.946   4.165   2.191
 7977SOL    HW224276   4.904   4.323   2.197
 7978SOL     OW24277   4.031   3.937   3.093
 7978SOL    HW124278   4.008   3.974   3.183
 7978SOL    HW224279   4.001   3.842   3.087
 7979SOL     OW24280   4.456   4.358   2.926
 7979SOL    HW124281   4.515   4.332   2.850
 7979SOL    HW224282   4.428   4.454   2.915
 7980SOL     OW24283   5.452   4.659   3.716
 7980SOL    HW124284   5.406   4.652   3.627
 7980SOL    HW224285   5.390   4.703   3.782
 7981SOL     OW24286   4.031   3.787   2.480
 7981SOL    HW124287   4.020   3.881   2.513
 7981SOL    HW224288   4.026   3.724   2.557
 7982SOL     OW24289   5.346   4.091   2.236
 7982SOL    HW124290   5.348   4.015   2.300
 7982SOL    HW224291   5.298   4.168   2.276
 7983SOL     OW24292   4.747   4.490   2.828
 7983SOL    HW124293   4.762   4.511   2.924
 7983SOL    HW224294   4.717   4.395   2.819
 7984SOL     OW24295   4.704   5.297   3.562
 7984SOL    HW124296   4.684   5.341   3.474
 7984SOL    HW224297   4.743   5.206   3.546
 7985SOL     OW24298   5.583   5.242   3.467
 7985SOL    HW124299   5.597   5.269   3.372
 7985SOL    HW224300   5.666   5.264   3.520
 7986SOL     OW24301   4.074   4.622   3.666
 7986SOL    HW124302   4.150   4.666   3.714
 7986SOL    HW224303   4.109   4.575   3.584
 7987SOL     OW24304   5.264   3.998   1.987
 7987SOL    HW124305   5.203   3.923   2.010
 7987SOL    HW224306   5.286   4.050   2.070
 7988SOL     OW24307   5.027   4.562   1.904
 7988SOL    HW124308   5.061   4.469   1.919
 7988SOL    HW224309   5.045   4.589   1.809
 7989SOL     OW24310   4.792   5.057   2.711
 7989SOL    HW124311   4.799   4.973   2.656
 7989SOL    HW224312   4.854   5.126   2.675
 7990SOL     OW24313   4.043   4.534   2.811
 7990SOL    HW124314   4.136   4.570   2.816
 7990SOL    HW224315   4.037   4.449   2.863
 7991SOL     OW24316   4.063   4.233   2.868
 7991SOL    HW124317   4.011   4.150   2.851
 7991SOL    HW224318   4.140   4.238   2.804
 7992SOL     OW24319   4.862   4.104   3.540
 7992SOL    HW124320   4.817   4.167   3.604
 7992SOL    HW224321   4.955   4.135   3.523
 7993SOL     OW24322   4.884   3.931   3.339
 7993SOL    HW124323   4.884   3.995   3.416
 7993SOL    HW224324   4.912   3.979   3.256
 7994SOL     OW24325   3.732   5.050   2.062
 7994SOL    HW124326   3.639   5.071   2.031
 7994SOL    HW224327   3.742   4.951   2.075
 7995SOL     OW24328   4.726   4.520   3.100
 7995SOL    HW124329   4.767   4.488   3.186
 7995SOL    HW224330   4.630   4.493   3.097
 7996SOL     OW24331   3.764   4.268   2.976
 7996SOL    HW124332   3.849   4.235   2.935
 7996SOL    HW224333   3.777   4.283   3.074
 7997SOL     OW24334   3.913   4.244   3.584
 7997SOL    HW124335   3.972   4.204   3.514
 7997SOL    HW224336   3.855   4.315   3.543
 7998SOL     OW24337   5.093   4.674   3.522
 7998SOL    HW124338   5.132   4.763   3.542
 7998SOL    HW224339   5.103   4.654   3.425
 7999SOL     OW24340   4.539   4.296   2.187
 7999SOL    HW124341   4.546   4.207   2.141
 7999SOL    HW224342   4.445   4.330   2.179
 8000SOL     OW24343   5.381   4.328   3.068
 8000SOL    HW124344   5.343   4.259   3.130
 8000SOL    HW224345   5.463   4.292   3.024
 8001SOL     OW24346   4.395   4.188   3.131
 8001SOL    HW124347   4.361   4.099   3.101
 8001SOL    HW224348   4.421   4.242   3.051
 8002SOL     OW24349   4.654   5.402   3.327
 8002SOL    HW124350   4.630   5.384   3.232
 8002SOL    HW224351   4.684   5.496   3.337
 8003SOL     OW24352   4.197   4.224   2.053
 8003SOL    HW124353   4.258   4.304   2.057
 8003SOL    HW224354   4.102   4.255   2.060
 8004SOL     OW24355   5.071   4.783   3.096
 8004SOL    HW124356   5.095   4.720   3.022
 8004SOL    HW224357   4.981   4.823   3.078
 8005SOL     OW24358   5.026   4.579   2.171
 8005SOL    HW124359   4.940   4.548   2.213
 8005SOL    HW224360   5.022   4.565   2.072
 8006SOL     OW24361   5.483   5.471   3.016
 8006SOL    HW124362   5.544   5.501   2.943
 8006SOL    HW224363   5.445   5.382   2.994
 8007SOL     OW24364   4.976   5.455   2.990
 8007SOL    HW124365   5.060   5.460   2.936
 8007SOL    HW224366   4.953   5.359   3.008
 8008SOL     OW24367   3.807   4.982   2.884
 8008SOL    HW124368   3.802   4.981   2.984
 8008SOL    HW224369   3.724   4.941   2.846
 8009SOL     OW24370   5.450   3.859   2.385
 8009SOL    HW124371   5.523   3.842   2.318
 8009SOL    HW224372   5.419   3.772   2.423
 8010SOL     OW24373   5.112   5.297   2.339
 8010SOL    HW124374   5.179   5.309   2.265
 8010SOL    HW224375   5.072   5.386   2.362
 8011SOL     OW24376   4.554   4.997   3.284
 8011SOL    HW124377   4.549   5.030   3.379
 8011SOL    HW224378   4.468   5.016   3.238
 8012SOL     OW24379   4.396   5.340   2.016
 8012SOL    HW124380   4.405   5.350   1.917
 8012SOL    HW224381   4.356   5.251   2.037
 8013SOL     OW24382   5.374   5.444   3.256
 8013SOL    HW124383   5.427   5.454   3.172
 8013SOL    HW224384   5.347   5.534   3.290
 8014SOL     OW24385   5.565   3.899   2.825
 8014SOL    HW124386   5.604   3.814   2.789
 8014SOL    HW224387   5.467   3.901   2.806
 8015SOL     OW24388   3.987   4.050   2.582
 8015SOL    HW124389   3.908   4.101   2.548
 8015SOL    HW224390   3.978   4.035   2.680
 8016SOL     OW24391   4.546   4.726   3.234
 8016SOL    HW124392   4.586   4.725   3.142
 8016SOL    HW224393   4.556   4.818   3.274
 8017SOL     OW24394   4.640   4.634   2.153
 8017SOL    HW124395   4.703   4.672   2.085
 8017SOL    HW224396   4.680   4.551   2.192
 8018SOL     OW24397   5.228   5.331   1.906
 8018SOL    HW124398   5.136   5.368   1.913
 8018SOL    HW224399   5.266   5.351   1.816
 8019SOL     OW24400   5.338   5.016   3.151
 8019SOL    HW124401   5.398   5.019   3.231
 8019SOL    HW224402   5.263   5.080   3.164
 8020SOL     OW24403   4.738   3.960   2.833
 8020SOL    HW124404   4.730   3.924   2.740
 8020SOL    HW224405   4.736   3.884   2.898
 8021SOL     OW24406   4.314   5.211   2.353
 8021SOL    HW124407   4.356   5.153   2.283
 8021SOL    HW224408   4.270   5.290   2.309
 8022SOL     OW24409   5.433   4.109   3.243
 8022SOL    HW124410   5.506   4.178   3.247
 8022SOL    HW224411   5.461   4.034   3.184
 8023SOL     OW24412   3.979   5.072   2.152
 8023SOL    HW124413   3.883   5.073   2.125
 8023SOL    HW224414   3.991   5.125   2.236
 8024SOL     OW24415   3.829   4.737   3.588
 8024SOL    HW124416   3.752   4.704   3.642
 8024SOL    HW224417   3.914   4.707   3.630
 8025SOL     OW24418   4.396   3.927   3.351
 8025SOL    HW124419   4.486   3.911   3.311
 8025SOL    HW224420   4.404   3.932   3.450
 8026SOL     OW24421   3.799   4.069   1.895
 8026SOL    HW124422   3.707   4.041   1.866
 8026SOL    HW224423   3.830   4.146   1.839
 8027SOL     OW24424   5.164   4.580   3.260
 8027SOL    HW124425   5.107   4.632   3.197
 8027SOL    HW224426   5.260   4.592   3.236
 8028SOL     OW24427   3.796   3.890   2.180
 8028SOL    HW124428   3.779   3.973   2.126
 8028SOL    HW224429   3.886   3.853   2.158
 8029SOL     OW24430   4.907   5.059   1.981
 8029SOL    HW124431   4.808   5.048   1.983
 8029SOL    HW224432   4.941   5.074   2.074
 8030SOL     OW24433   4.337   4.566   3.293
 8030SOL    HW124434   4.393   4.647   3.276
 8030SOL    HW224435   4.396   4.486   3.296
 8031SOL     OW24436   5.217   5.491   2.821
 8031SOL    HW124437   5.250   5.555   2.752
 8031SOL    HW224438   5.283   5.485   2.896
 8032SOL     OW24439   4.440   4.289   3.570
 8032SOL    HW124440   4.459   4.354   3.644
 8032SOL    HW224441   4.500   4.209   3.579
 8033SOL     OW24442   5.398   4.607   3.116
 8033SOL    HW124443   5.371   4.518   3.079
 8033SOL    HW224444   5.399   4.675   3.043
 8034SOL     OW24445   4.949   4.049   2.311
 8034SOL    HW124446   5.014   3.975   2.300
 8034SOL    HW224447   4.969   4.099   2.395
 8035SOL     OW24448   4.318   4.469   2.514
 8035SOL    HW124449   4.368   4.554   2.495
 8035SOL    HW224450   4.230   4.471   2.466
 8036SOL     OW24451   5.501   4.066   3.504
 8036SOL    HW124452   5.484   4.097   3.410
 8036SOL    HW224453   5.417   4.029   3.542
 8037SOL     OW24454   5.454   4.658   3.379
 8037SOL    HW124455   5.492   4.749   3.394
 8037SOL    HW224456   5.446   4.641   3.280
 8038SOL     OW24457   4.583   5.098   1.878
 8038SOL    HW124458   4.537   5.113   1.966
 8038SOL    HW224459   4.627   5.183   1.848
 8039SOL     OW24460   4.583   4.680   2.723
 8039SOL    HW124461   4.637   4.611   2.771
 8039SOL    HW224462   4.551   4.749   2.789
 8040SOL     OW24463   4.807   4.708   1.949
 8040SOL    HW124464   4.784   4.761   1.867
 8040SOL    HW224465   4.888   4.652   1.930
 8041SOL     OW24466   5.585   5.293   2.713
 8041SOL    HW124467   5.514   5.281   2.643
 8041SOL    HW224468   5.586   5.214   2.773
 8042SOL     OW24469   3.945   5.038   3.706
 8042SOL    HW124470   3.880   4.965   3.685
 8042SOL    HW224471   3.949   5.052   3.804
 8043SOL     OW24472   3.803   4.964   2.515
 8043SOL    HW124473   3.802   4.917   2.603
 8043SOL    HW224474   3.885   4.936   2.464
 8044SOL     OW24475   4.396   5.115   3.486
 8044SOL    HW124476   4.318   5.065   3.524
 8044SOL    HW224477   4.393   5.210   3.517
 8045SOL     OW24478   5.548   3.916   3.089
 8045SOL    HW124479   5.544   3.826   3.133
 8045SOL    HW224480   5.551   3.905   2.990
 8046SOL     OW24481   4.152   4.148   2.382
 8046SOL    HW124482   4.182   4.076   2.320
 8046SOL    HW224483   4.113   4.108   2.465
 8047SOL     OW24484   5.429   5.211   2.966
 8047SOL    HW124485   5.336   5.186   2.939
 8047SOL    HW224486   5.455   5.161   3.048
 8048SOL     OW24487   4.041   4.271   3.142
 8048SOL    HW124488   4.079   4.212   3.214
 8048SOL    HW224489   4.081   4.245   3.054
 8049SOL     OW24490   5.148   3.938   2.974
 8049SOL    HW124491   5.200   3.873   3.029
 8049SOL    HW224492   5.099   4.001   3.035
 8050SOL     OW24493   4.725   3.758   3.016
 8050SOL    HW124494   4.662   3.686   2.985
 8050SOL    HW224495   4.818   3.722   3.016
 8051SOL     OW24496   4.494   5.054   2.163
 8051SOL    HW124497   4.448   4.967   2.180
 8051SOL    HW224498   4.585   5.051   2.204
 8052SOL     OW24499   5.076   3.776   2.030
 8052SOL    HW124500   5.111   3.735   1.946
 8052SOL    HW224501   4.986   3.738   2.050
 8053SOL     OW24502   5.024   4.177   2.553
 8053SOL    HW124503   4.965   4.257   2.557
 8053SOL    HW224504   5.039   4.142   2.646
 8054SOL     OW24505   5.317   3.945   2.744
 8054SOL    HW124506   5.233   3.944   2.798
 8054SOL    HW224507   5.319   4.028   2.688
 8055SOL     OW24508   3.763   4.801   2.162
 8055SOL    HW124509   3.862   4.790   2.153
 8055SOL    HW224510   3.723   4.715   2.194
 8056SOL     OW24511   3.954   4.352   3.837
 8056SOL    HW124512   3.861   4.350   3.874
 8056SOL    HW224513   3.955   4.313   3.745
 8057SOL     OW24514   3.949   3.999   4.720
 8057SOL    HW124515   3.984   3.982   4.812
 8057SOL    HW224516   3.861   3.954   4.708
 8058SOL     OW24517   3.743   4.092   4.371
 8058SOL    HW124518   3.661   4.135   4.410
 8058SOL    HW224519   3.715   4.019   4.308
 8059SOL     OW24520   4.293   4.999   4.889
 8059SOL    HW124521   4.200   4.992   4.852
 8059SOL    HW224522   4.304   5.088   4.933
 8060SOL     OW24523   5.279   5.235   4.427
 8060SOL    HW124524   5.222   5.219   4.508
 8060SOL    HW224525   5.220   5.245   4.347
 8061SOL     OW24526   4.859   4.427   4.441
 8061SOL    HW124527   4.916   4.505   4.416
 8061SOL    HW224528   4.799   4.453   4.517
 8062SOL     OW24529   5.479   4.331   3.955
 8062SOL    HW124530   5.467   4.318   3.856
 8062SOL    HW224531   5.449   4.250   4.004
 8063SOL     OW24532   4.492   4.868   4.747
 8063SOL    HW124533   4.414   4.885   4.807
 8063SOL    HW224534   4.526   4.955   4.711
 8064SOL     OW24535   4.574   4.522   5.547
 8064SOL    HW124536   4.570   4.598   5.612
 8064SOL    HW224537   4.596   4.558   5.456
 8065SOL     OW24538   4.409   4.736   4.389
 8065SOL    HW124539   4.478   4.720   4.459
 8065SOL    HW224540   4.336   4.793   4.427
 8066SOL     OW24541   4.410   4.885   5.527
 8066SOL    HW124542   4.470   4.964   5.541
 8066SOL    HW224543   4.324   4.916   5.486
 8067SOL     OW24544   4.059   5.159   4.785
 8067SOL    HW124545   3.981   5.128   4.732
 8067SOL    HW224546   4.117   5.217   4.728
 8068SOL     OW24547   5.184   5.229   5.063
 8068SOL    HW124548   5.208   5.323   5.089
 8068SOL    HW224549   5.168   5.175   5.145
 8069SOL     OW24550   4.162   4.116   5.223
 8069SOL    HW124551   4.244   4.060   5.232
 8069SOL    HW224552   4.081   4.058   5.227
 8070SOL     OW24553   5.327   4.171   4.461
 8070SOL    HW124554   5.253   4.217   4.411
 8070SOL    HW224555   5.378   4.239   4.514
 8071SOL     OW24556   4.851   5.065   5.414
 8071SOL    HW124557   4.898   5.065   5.502
 8071SOL    HW224558   4.803   4.978   5.403
 8072SOL     OW24559   3.964   4.815   4.610
 8072SOL    HW124560   3.978   4.731   4.662
 8072SOL    HW224561   3.909   4.879   4.665
 8073SOL     OW24562   4.344   5.510   5.163
 8073SOL    HW124563   4.252   5.493   5.198
 8073SOL    HW224564   4.372   5.602   5.189
 8074SOL     OW24565   4.330   4.688   3.847
 8074SOL    HW124566   4.337   4.772   3.793
 8074SOL    HW224567   4.376   4.701   3.935
 8075SOL     OW24568   5.318   3.838   5.204
 8075SOL    HW124569   5.300   3.905   5.132
 8075SOL    HW224570   5.315   3.884   5.293
 8076SOL     OW24571   3.846   4.367   4.287
 8076SOL    HW124572   3.801   4.279   4.304
 8076SOL    HW224573   3.845   4.421   4.371
 8077SOL     OW24574   5.566   5.491   4.083
 8077SOL    HW124575   5.620   5.462   4.163
 8077SOL    HW224576   5.596   5.581   4.054
 8078SOL     OW24577   5.365   4.832   4.156
 8078SOL    HW124578   5.451   4.834   4.104
 8078SOL    HW224579   5.379   4.879   4.244
 8079SOL     OW24580   3.837   4.461   5.321
 8079SOL    HW124581   3.925   4.448   5.366
 8079SOL    HW224582   3.824   4.558   5.299
 8080SOL     OW24583   4.337   5.089   4.450
 8080SOL    HW124584   4.288   5.002   4.459
 8080SOL    HW224585   4.314   5.132   4.363
 8081SOL     OW24586   5.017   4.952   5.147
 8081SOL    HW124587   5.054   4.879   5.089
 8081SOL    HW224588   5.069   4.957   5.232
 8082SOL     OW24589   4.533   3.728   4.226
 8082SOL    HW124590   4.573   3.819   4.217
 8082SOL    HW224591   4.433   3.736   4.232
 8083SOL     OW24592   3.921   4.700   4.988
 8083SOL    HW124593   4.010   4.655   4.974
 8083SOL    HW224594   3.848   4.635   4.969
 8084SOL     OW24595   5.249   4.723   3.914
 8084SOL    HW124596   5.186   4.647   3.927
 8084SOL    HW224597   5.297   4.741   4.000
 8085SOL     OW24598   4.911   5.516   5.340
 8085SOL    HW124599   4.935   5.576   5.264
 8085SOL    HW224600   4.918   5.421   5.310
 8086SOL     OW24601   4.041   3.975   5.525
 8086SOL    HW124602   4.112   4.046   5.531
 8086SOL    HW224603   3.953   4.014   5.553
 8087SOL     OW24604   5.190   5.141   4.677
 8087SOL    HW124605   5.131   5.147   4.757
 8087SOL    HW224606   5.175   5.053   4.631
 8088SOL     OW24607   5.391   5.438   4.296
 8088SOL    HW124608   5.350   5.415   4.208
 8088SOL    HW224609   5.373   5.364   4.361
 8089SOL     OW24610   4.322   4.453   3.994
 8089SOL    HW124611   4.346   4.522   3.926
 8089SOL    HW224612   4.244   4.486   4.048
 8090SOL     OW24613   5.005   4.069   4.668
 8090SOL    HW124614   4.919   4.019   4.655
 8090SOL    HW224615   5.067   4.015   4.724
 8091SOL     OW24616   5.300   5.386   4.031
 8091SOL    HW124617   5.389   5.432   4.034
 8091SOL    HW224618   5.279   5.362   3.936
 8092SOL     OW24619   4.531   4.329   5.189
 8092SOL    HW124620   4.484   4.326   5.278
 8092SOL    HW224621   4.480   4.274   5.123
 8093SOL     OW24622   5.118   4.193   5.398
 8093SOL    HW124623   5.098   4.236   5.486
 8093SOL    HW224624   5.196   4.131   5.407
 8094SOL     OW24625   4.697   4.614   5.296
 8094SOL    HW124626   4.743   4.530   5.267
 8094SOL    HW224627   4.641   4.648   5.221
 8095SOL     OW24628   4.715   4.134   4.966
 8095SOL    HW124629   4.638   4.168   5.020
 8095SOL    HW224630   4.681   4.083   4.887
 8096SOL     OW24631   4.765   4.425   4.153
 8096SOL    HW124632   4.791   4.421   4.249
 8096SOL    HW224633   4.680   4.374   4.139
 8097SOL     OW24634   3.800   4.535   4.513
 8097SOL    HW124635   3.899   4.523   4.522
 8097SOL    HW224636   3.776   4.630   4.534
 8098SOL     OW24637   3.854   5.545   5.295
 8098SOL    HW124638   3.844   5.530   5.394
 8098SOL    HW224639   3.768   5.581   5.259
 8099SOL     OW24640   4.589   4.072   3.919
 8099SOL    HW124641   4.648   4.135   3.870
 8099SOL    HW224642   4.608   3.978   3.890
 8100SOL     OW24643   5.443   4.309   5.555
 8100SOL    HW124644   5.417   4.398   5.519
 8100SOL    HW224645   5.441   4.241   5.482
 8101SOL     OW24646   5.086   4.868   4.269
 8101SOL    HW124647   5.169   4.839   4.221
 8101SOL    HW224648   5.037   4.935   4.213
 8102SOL     OW24649   4.274   3.920   4.609
 8102SOL    HW124650   4.269   3.915   4.709
 8102SOL    HW224651   4.276   4.016   4.580
 8103SOL     OW24652   4.732   5.180   4.201
 8103SOL    HW124653   4.686   5.252   4.149
 8103SOL    HW224654   4.728   5.200   4.299
 8104SOL     OW24655   4.075   5.525   4.577
 8104SOL    HW124656   4.125   5.439   4.583
 8104SOL    HW224657   4.140   5.602   4.574
 8105SOL     OW24658   5.519   4.790   4.597
 8105SOL    HW124659   5.457   4.775   4.521
 8105SOL    HW224660   5.467   4.801   4.682
 8106SOL     OW24661   4.951   5.274   5.230
 8106SOL    HW124662   4.957   5.197   5.294
 8106SOL    HW224663   4.899   5.248   5.150
 8107SOL     OW24664   4.045   4.667   3.966
 8107SOL    HW124665   4.127   4.706   3.924
 8107SOL    HW224666   4.018   4.585   3.917
 8108SOL     OW24667   5.182   4.459   4.452
 8108SOL    HW124668   5.177   4.394   4.527
 8108SOL    HW224669   5.262   4.518   4.465
 8109SOL     OW24670   4.185   4.990   5.451
 8109SOL    HW124671   4.135   4.991   5.365
 8109SOL    HW224672   4.122   4.972   5.527
 8110SOL     OW24673   4.835   5.500   3.961
 8110SOL    HW124674   4.775   5.438   4.011
 8110SOL    HW224675   4.866   5.456   3.876
 8111SOL     OW24676   3.926   4.009   5.222
 8111SOL    HW124677   3.846   4.069   5.209
 8111SOL    HW224678   3.916   3.960   5.308
 8112SOL     OW24679   5.356   5.101   3.805
 8112SOL    HW124680   5.324   5.195   3.795
 8112SOL    HW224681   5.280   5.038   3.793
 8113SOL     OW24682   5.124   3.831   4.150
 8113SOL    HW124683   5.100   3.794   4.060
 8113SOL    HW224684   5.223   3.847   4.154
 8114SOL     OW24685   3.973   5.509   4.965
 8114SOL    HW124686   4.030   5.444   5.015
 8114SOL    HW224687   3.957   5.476   4.872
 8115SOL     OW24688   4.664   5.422   4.628
 8115SOL    HW124689   4.744   5.365   4.649
 8115SOL    HW224690   4.615   5.382   4.551
 8116SOL     OW24691   4.106   4.424   4.204
 8116SOL    HW124692   4.151   4.334   4.201
 8116SOL    HW224693   4.012   4.413   4.237
 8117SOL     OW24694   5.271   3.946   5.453
 8117SOL    HW124695   5.266   3.983   5.545
 8117SOL    HW224696   5.199   3.877   5.441
 8118SOL     OW24697   4.338   3.846   3.841
 8118SOL    HW124698   4.436   3.824   3.848
 8118SOL    HW224699   4.307   3.829   3.748
 8119SOL     OW24700   4.505   3.988   5.473
 8119SOL    HW124701   4.572   3.927   5.516
 8119SOL    HW224702   4.432   4.007   5.538
 8120SOL     OW24703   4.612   5.238   4.919
 8120SOL    HW124704   4.589   5.213   4.825
 8120SOL    HW224705   4.673   5.169   4.958
 8121SOL     OW24706   5.075   4.314   5.157
 8121SOL    HW124707   5.103   4.271   5.242
 8121SOL    HW224708   5.100   4.410   5.158
 8122SOL     OW24709   4.527   5.126   4.648
 8122SOL    HW124710   4.617   5.140   4.606
 8122SOL    HW224711   4.456   5.128   4.577
 8123SOL     OW24712   4.646   4.227   4.623
 8123SOL    HW124713   4.621   4.218   4.527
 8123SOL    HW224714   4.694   4.145   4.654
 8124SOL     OW24715   4.263   3.788   4.236
 8124SOL    HW124716   4.182   3.789   4.294
 8124SOL    HW224717   4.266   3.871   4.181
 8125SOL     OW24718   5.158   4.912   3.765
 8125SOL    HW124719   5.190   4.836   3.822
 8125SOL    HW224720   5.066   4.939   3.795
 8126SOL     OW24721   4.021   3.759   3.895
 8126SOL    HW124722   4.070   3.843   3.874
 8126SOL    HW224723   4.083   3.694   3.940
 8127SOL     OW24724   4.659   3.960   4.204
 8127SOL    HW124725   4.611   4.001   4.126
 8127SOL    HW224726   4.758   3.958   4.185
 8128SOL     OW24727   4.800   4.407   5.188
 8128SOL    HW124728   4.720   4.346   5.191
 8128SOL    HW224729   4.881   4.354   5.164
 8129SOL     OW24730   4.951   5.294   4.517
 8129SOL    HW124731   4.972   5.368   4.452
 8129SOL    HW224732   5.019   5.294   4.590
 8130SOL     OW24733   4.183   4.876   4.465
 8130SOL    HW124734   4.112   4.849   4.530
 8130SOL    HW224735   4.157   4.848   4.372
 8131SOL     OW24736   4.995   5.521   4.315
 8131SOL    HW124737   5.039   5.585   4.251
 8131SOL    HW224738   4.945   5.573   4.385
 8132SOL     OW24739   4.756   4.273   3.740
 8132SOL    HW124740   4.715   4.355   3.701
 8132SOL    HW224741   4.820   4.299   3.813
 8133SOL     OW24742   3.802   4.280   5.110
 8133SOL    HW124743   3.894   4.279   5.069
 8133SOL    HW224744   3.796   4.354   5.177
 8134SOL     OW24745   4.285   3.946   4.871
 8134SOL    HW124746   4.323   3.862   4.908
 8134SOL    HW224747   4.197   3.965   4.915
 8135SOL     OW24748   4.590   4.178   4.366
 8135SOL    HW124749   4.558   4.250   4.304
 8135SOL    HW224750   4.614   4.097   4.313
 8136SOL     OW24751   4.741   3.763   4.477
 8136SOL    HW124752   4.669   3.768   4.408
 8136SOL    HW224753   4.717   3.694   4.546
 8137SOL     OW24754   5.153   4.897   4.591
 8137SOL    HW124755   5.098   4.813   4.584
 8137SOL    HW224756   5.179   4.926   4.499
 8138SOL     OW24757   5.190   4.314   4.716
 8138SOL    HW124758   5.160   4.219   4.723
 8138SOL    HW224759   5.263   4.330   4.782
 8139SOL     OW24760   5.581   4.557   4.101
 8139SOL    HW124761   5.623   4.493   4.165
 8139SOL    HW224762   5.543   4.506   4.023
 8140SOL     OW24763   4.212   5.109   3.898
 8140SOL    HW124764   4.125   5.094   3.945
 8140SOL    HW224765   4.195   5.135   3.803
 8141SOL     OW24766   5.388   5.004   4.381
 8141SOL    HW124767   5.487   5.012   4.395
 8141SOL    HW224768   5.343   5.088   4.412
 8142SOL     OW24769   5.114   4.299   3.802
 8142SOL    HW124770   5.060   4.278   3.883
 8142SOL    HW224771   5.205   4.258   3.811
 8143SOL     OW24772   4.251   3.980   4.052
 8143SOL    HW124773   4.278   3.921   3.977
 8143SOL    HW224774   4.251   4.075   4.021
 8144SOL     OW24775   5.478   4.947   5.312
 8144SOL    HW124776   5.569   4.908   5.299
 8144SOL    HW224777   5.486   5.043   5.336
 8145SOL     OW24778   4.788   5.071   5.064
 8145SOL    HW124779   4.708   5.048   5.119
 8145SOL    HW224780   4.871   5.045   5.113
 8146SOL     OW24781   5.316   5.353   5.349
 8146SOL    HW124782   5.343   5.387   5.259
 8146SOL    HW224783   5.395   5.315   5.395
 8147SOL     OW24784   4.835   4.919   4.824
 8147SOL    HW124785   4.795   4.963   4.905
 8147SOL    HW224786   4.794   4.956   4.741
 8148SOL     OW24787   5.362   4.823   4.803
 8148SOL    HW124788   5.367   4.904   4.862
 8148SOL    HW224789   5.276   4.825   4.752
 8149SOL     OW24790   4.639   3.813   5.126
 8149SOL    HW124791   4.664   3.793   5.031
 8149SOL    HW224792   4.711   3.869   5.168
 8150SOL     OW24793   4.704   4.840   5.443
 8150SOL    HW124794   4.605   4.846   5.453
 8150SOL    HW224795   4.727   4.760   5.387
 8151SOL     OW24796   4.429   4.774   4.092
 8151SOL    HW124797   4.415   4.781   4.191
 8151SOL    HW224798   4.513   4.723   4.074
 8152SOL     OW24799   4.134   4.537   4.975
 8152SOL    HW124800   4.220   4.549   5.025
 8152SOL    HW224801   4.092   4.450   5.002
 8153SOL     OW24802   4.998   4.110   4.986
 8153SOL    HW124803   5.019   4.184   5.050
 8153SOL    HW224804   4.909   4.127   4.943
 8154SOL     OW24805   3.788   5.288   5.055
 8154SOL    HW124806   3.742   5.370   5.021
 8154SOL    HW224807   3.886   5.307   5.064
 8155SOL     OW24808   4.290   4.261   4.589
 8155SOL    HW124809   4.302   4.327   4.515
 8155SOL    HW224810   4.336   4.295   4.672
 8156SOL     OW24811   4.976   5.072   4.112
 8156SOL    HW124812   5.026   5.149   4.152
 8156SOL    HW224813   4.881   5.074   4.144
 8157SOL     OW24814   4.996   5.169   4.866
 8157SOL    HW124815   5.043   5.182   4.953
 8157SOL    HW224816   4.930   5.095   4.875
 8158SOL     OW24817   5.306   4.363   4.196
 8158SOL    HW124818   5.275   4.424   4.269
 8158SOL    HW224819   5.356   4.415   4.127
 8159SOL     OW24820   4.078   5.234   5.053
 8159SOL    HW124821   4.057   5.190   4.966
 8159SOL    HW224822   4.175   5.260   5.056
 8160SOL     OW24823   4.126   4.475   5.322
 8160SOL    HW124824   4.194   4.530   5.275
 8160SOL    HW224825   4.166   4.387   5.349
 8161SOL     OW24826   5.311   4.503   5.394
 8161SOL    HW124827   5.219   4.541   5.389
 8161SOL    HW224828   5.371   4.550   5.329
 8162SOL     OW24829   4.737   3.829   5.494
 8162SOL    HW124830   4.743   3.914   5.442
 8162SOL    HW224831   4.769   3.753   5.437
 8163SOL     OW24832   4.228   3.774   5.464
 8163SOL    HW124833   4.186   3.717   5.394
 8163SOL    HW224834   4.162   3.843   5.496
 8164SOL     OW24835   4.297   4.594   4.753
 8164SOL    HW124836   4.341   4.683   4.744
 8164SOL    HW224837   4.234   4.594   4.830
 8165SOL     OW24838   5.084   4.586   4.769
 8165SOL    HW124839   5.009   4.586   4.703
 8165SOL    HW224840   5.121   4.494   4.778
 8166SOL     OW24841   4.933   4.249   3.999
 8166SOL    HW124842   4.946   4.165   4.053
 8166SOL    HW224843   4.904   4.323   4.059
 8167SOL     OW24844   4.031   3.937   4.955
 8167SOL    HW124845   4.008   3.974   5.045
 8167SOL    HW224846   4.001   3.842   4.949
 8168SOL     OW24847   3.761   5.034   5.006
 8168SOL    HW124848   3.814   4.985   5.074
 8168SOL    HW224849   3.783   5.132   5.011
 8169SOL     OW24850   4.456   4.358   4.788
 8169SOL    HW124851   4.515   4.332   4.712
 8169SOL    HW224852   4.428   4.454   4.777
 8170SOL     OW24853   5.452   4.659   5.578
 8170SOL    HW124854   5.406   4.652   5.489
 8170SOL    HW224855   5.390   4.703   5.644
 8171SOL     OW24856   4.031   3.787   4.342
 8171SOL    HW124857   4.020   3.881   4.375
 8171SOL    HW224858   4.026   3.724   4.419
 8172SOL     OW24859   5.346   4.091   4.098
 8172SOL    HW124860   5.348   4.015   4.162
 8172SOL    HW224861   5.298   4.168   4.138
 8173SOL     OW24862   4.747   4.490   4.690
 8173SOL    HW124863   4.762   4.511   4.786
 8173SOL    HW224864   4.717   4.395   4.681
 8174SOL     OW24865   4.704   5.297   5.424
 8174SOL    HW124866   4.684   5.341   5.336
 8174SOL    HW224867   4.743   5.206   5.408
 8175SOL     OW24868   5.583   5.242   5.329
 8175SOL    HW124869   5.597   5.269   5.234
 8175SOL    HW224870   5.666   5.264   5.382
 8176SOL     OW24871   4.074   4.622   5.528
 8176SOL    HW124872   4.150   4.666   5.576
 8176SOL    HW224873   4.109   4.575   5.446
 8177SOL     OW24874   5.264   3.998   3.849
 8177SOL    HW124875   5.203   3.923   3.872
 8177SOL    HW224876   5.286   4.050   3.932
 8178SOL     OW24877   5.027   4.562   3.766
 8178SOL    HW124878   5.061   4.469   3.781
 8178SOL    HW224879   5.045   4.589   3.671
 8179SOL     OW24880   4.792   5.057   4.573
 8179SOL    HW124881   4.799   4.973   4.518
 8179SOL    HW224882   4.854   5.126   4.537
 8180SOL     OW24883   4.043   4.534   4.673
 8180SOL    HW124884   4.136   4.570   4.678
 8180SOL    HW224885   4.037   4.449   4.725
 8181SOL     OW24886   4.063   4.233   4.730
 8181SOL    HW124887   4.011   4.150   4.713
 8181SOL    HW224888   4.140   4.238   4.666
 8182SOL     OW24889   4.862   4.104   5.402
 8182SOL    HW124890   4.817   4.167   5.466
 8182SOL    HW224891   4.955   4.135   5.385
 8183SOL     OW24892   4.884   3.931   5.201
 8183SOL    HW124893   4.884   3.995   5.278
 8183SOL    HW224894   4.912   3.979   5.118
 8184SOL     OW24895   3.812   5.525   4.651
 8184SOL    HW124896   3.770   5.439   4.624
 8184SOL    HW224897   3.906   5.528   4.617
 8185SOL     OW24898   4.228   5.292   4.634
 8185SOL    HW124899   4.294   5.366   4.643
 8185SOL    HW224900   4.272   5.213   4.592
 8186SOL     OW24901   4.726   4.520   4.962
 8186SOL    HW124902   4.767   4.488   5.048
 8186SOL    HW224903   4.630   4.493   4.959
 8187SOL     OW24904   3.764   4.268   4.838
 8187SOL    HW124905   3.849   4.235   4.797
 8187SOL    HW224906   3.777   4.283   4.936
 8188SOL     OW24907   3.913   4.244   5.446
 8188SOL    HW124908   3.972   4.204   5.376
 8188SOL    HW224909   3.855   4.315   5.405
 8189SOL     OW24910   5.093   4.674   5.384
 8189SOL    HW124911   5.132   4.763   5.404
 8189SOL    HW224912   5.103   4.654   5.287
 8190SOL     OW24913   4.539   4.296   4.049
 8190SOL    HW124914   4.546   4.207   4.003
 8190SOL    HW224915   4.445   4.330   4.041
 8191SOL     OW24916   5.381   4.328   4.930
 8191SOL    HW124917   5.343   4.259   4.992
 8191SOL    HW224918   5.463   4.292   4.886
 8192SOL     OW24919   3.976   5.288   5.468
 8192SOL    HW124920   3.946   5.345   5.544
 8192SOL    HW224921   3.969   5.191   5.494
 8193SOL     OW24922   4.395   4.188   4.993
 8193SOL    HW124923   4.361   4.099   4.963
 8193SOL    HW224924   4.421   4.242   4.913
 8194SOL     OW24925   4.654   5.402   5.189
 8194SOL    HW124926   4.630   5.384   5.094
 8194SOL    HW224927   4.684   5.496   5.199
 8195SOL     OW24928   4.197   4.224   3.915
 8195SOL    HW124929   4.258   4.304   3.919
 8195SOL    HW224930   4.102   4.255   3.922
 8196SOL     OW24931   5.071   4.783   4.958
 8196SOL    HW124932   5.095   4.720   4.884
 8196SOL    HW224933   4.981   4.823   4.940
 8197SOL     OW24934   5.026   4.579   4.033
 8197SOL    HW124935   4.940   4.548   4.075
 8197SOL    HW224936   5.022   4.565   3.934
 8198SOL     OW24937   5.483   5.471   4.878
 8198SOL    HW124938   5.544   5.501   4.805
 8198SOL    HW224939   5.445   5.382   4.856
 8199SOL     OW24940   4.976   5.455   4.852
 8199SOL    HW124941   5.060   5.460   4.798
 8199SOL    HW224942   4.953   5.359   4.870
 8200SOL     OW24943   3.807   4.982   4.746
 8200SOL    HW124944   3.802   4.981   4.846
 8200SOL    HW224945   3.724   4.941   4.708
 8201SOL     OW24946   4.412   5.386   5.440
 8201SOL    HW124947   4.356   5.467   5.449
 8201SOL    HW224948   4.464   5.390   5.354
 8202SOL     OW24949   5.450   3.859   4.247
 8202SOL    HW124950   5.523   3.842   4.180
 8202SOL    HW224951   5.419   3.772   4.285
 8203SOL     OW24952   5.112   5.297   4.201
 8203SOL    HW124953   5.179   5.309   4.127
 8203SOL    HW224954   5.072   5.386   4.224
 8204SOL     OW24955   3.854   5.518   5.575
 8204SOL    HW124956   3.813   5.444   5.628
 8204SOL    HW224957   3.918   5.569   5.633
 8205SOL     OW24958   5.004   4.651   4.396
 8205SOL    HW124959   5.064   4.570   4.398
 8205SOL    HW224960   5.044   4.720   4.336
 8206SOL     OW24961   4.554   4.997   5.146
 8206SOL    HW124962   4.549   5.030   5.241
 8206SOL    HW224963   4.468   5.016   5.100
 8207SOL     OW24964   5.374   5.444   5.118
 8207SOL    HW124965   5.427   5.454   5.034
 8207SOL    HW224966   5.347   5.534   5.152
 8208SOL     OW24967   5.565   3.899   4.687
 8208SOL    HW124968   5.604   3.814   4.651
 8208SOL    HW224969   5.467   3.901   4.668
 8209SOL     OW24970   3.987   4.050   4.444
 8209SOL    HW124971   3.908   4.101   4.410
 8209SOL    HW224972   3.978   4.035   4.542
 8210SOL     OW24973   4.918   5.336   3.755
 8210SOL    HW124974   4.924   5.243   3.792
 8210SOL    HW224975   4.859   5.336   3.675
 8211SOL     OW24976   4.546   4.726   5.096
 8211SOL    HW124977   4.586   4.725   5.004
 8211SOL    HW224978   4.556   4.818   5.136
 8212SOL     OW24979   4.640   4.634   4.015
 8212SOL    HW124980   4.703   4.672   3.947
 8212SOL    HW224981   4.680   4.551   4.054
 8213SOL     OW24982   5.228   5.331   3.768
 8213SOL    HW124983   5.136   5.368   3.775
 8213SOL    HW224984   5.266   5.351   3.678
 8214SOL     OW24985   4.096   5.012   5.214
 8214SOL    HW124986   4.083   5.105   5.180
 8214SOL    HW224987   4.012   4.960   5.201
 8215SOL     OW24988   5.338   5.016   5.013
 8215SOL    HW124989   5.398   5.019   5.093
 8215SOL    HW224990   5.263   5.080   5.026
 8216SOL     OW24991   4.763   4.822   4.420
 8216SOL    HW124992   4.693   4.775   4.474
 8216SOL    HW224993   4.822   4.754   4.377
 8217SOL     OW24994   4.738   3.960   4.695
 8217SOL    HW124995   4.730   3.924   4.602
 8217SOL    HW224996   4.736   3.884   4.760
 8218SOL     OW24997   4.314   5.211   4.215
 8218SOL    HW124998   4.356   5.153   4.145
 8218SOL    HW224999   4.270   5.290   4.171
 8219SOL     OW25000   5.433   4.109   5.105
 8219SOL    HW125001   5.506   4.178   5.109
 8219SOL    HW225002   5.461   4.034   5.046
 8220SOL     OW25003   3.829   4.737   5.450
 8220SOL    HW125004   3.752   4.704   5.504
 8220SOL    HW225005   3.914   4.707   5.492
 8221SOL     OW25006   4.396   3.927   5.213
 8221SOL    HW125007   4.486   3.911   5.173
 8221SOL    HW225008   4.404   3.932   5.312
 8222SOL     OW25009   3.799   4.069   3.757
 8222SOL    HW125010   3.707   4.041   3.728
 8222SOL    HW225011   3.830   4.146   3.701
 8223SOL     OW25012   5.164   4.580   5.122
 8223SOL    HW125013   5.107   4.632   5.059
 8223SOL    HW225014   5.260   4.592   5.098
 8224SOL     OW25015   3.796   3.890   4.042
 8224SOL    HW125016   3.779   3.973   3.988
 8224SOL    HW225017   3.886   3.853   4.020
 8225SOL     OW25018   4.907   5.059   3.843
 8225SOL    HW125019   4.808   5.048   3.845
 8225SOL    HW225020   4.941   5.074   3.936
 8226SOL     OW25021   4.337   4.566   5.155
 8226SOL    HW125022   4.393   4.647   5.138
 8226SOL    HW225023   4.396   4.486   5.158
 8227SOL     OW25024   5.217   5.491   4.683
 8227SOL    HW125025   5.250   5.555   4.614
 8227SOL    HW225026   5.283   5.485   4.758
 8228SOL     OW25027   4.440   4.289   5.432
 8228SOL    HW125028   4.459   4.354   5.506
 8228SOL    HW225029   4.500   4.209   5.441
 8229SOL     OW25030   5.174   4.944   5.357
 8229SOL    HW125031   5.165   4.934   5.456
 8229SOL    HW225032   5.270   4.937   5.331
 8230SOL     OW25033   4.114   5.465   5.284
 8230SOL    HW125034   4.023   5.506   5.282
 8230SOL    HW225035   4.107   5.371   5.316
 8231SOL     OW25036   5.398   4.607   4.978
 8231SOL    HW125037   5.371   4.518   4.941
 8231SOL    HW225038   5.399   4.675   4.905
 8232SOL     OW25039   4.949   4.049   4.173
 8232SOL    HW125040   5.014   3.975   4.162
 8232SOL    HW225041   4.969   4.099   4.257
 8233SOL     OW25042   4.318   4.469   4.376
 8233SOL    HW125043   4.368   4.554   4.357
 8233SOL    HW225044   4.230   4.471   4.328
 8234SOL     OW25045   5.501   4.066   5.366
 8234SOL    HW125046   5.484   4.097   5.272
 8234SOL    HW225047   5.417   4.029   5.404
 8235SOL     OW25048   5.454   4.658   5.241
 8235SOL    HW125049   5.492   4.749   5.256
 8235SOL    HW225050   5.446   4.641   5.142
 8236SOL     OW25051   4.583   5.098   3.740
 8236SOL    HW125052   4.537   5.113   3.828
 8236SOL    HW225053   4.627   5.183   3.710
 8237SOL     OW25054   4.385   5.514   4.677
 8237SOL    HW125055   4.339   5.602   4.664
 8237SOL    HW225056   4.484   5.526   4.670
 8238SOL     OW25057   4.583   4.680   4.585
 8238SOL    HW125058   4.637   4.611   4.633
 8238SOL    HW225059   4.551   4.749   4.651
 8239SOL     OW25060   4.807   4.708   3.811
 8239SOL    HW125061   4.784   4.761   3.729
 8239SOL    HW225062   4.888   4.652   3.792
 8240SOL     OW25063   5.585   5.293   4.575
 8240SOL    HW125064   5.514   5.281   4.505
 8240SOL    HW225065   5.586   5.214   4.635
 8241SOL     OW25066   3.945   5.038   5.568
 8241SOL    HW125067   3.880   4.965   5.547
 8241SOL    HW225068   3.949   5.052   5.666
 8242SOL     OW25069   4.396   5.115   5.348
 8242SOL    HW125070   4.318   5.065   5.386
 8242SOL    HW225071   4.393   5.210   5.379
 8243SOL     OW25072   5.548   3.916   4.951
 8243SOL    HW125073   5.544   3.826   4.995
 8243SOL    HW225074   5.551   3.905   4.852
 8244SOL     OW25075   4.152   4.148   4.244
 8244SOL    HW125076   4.182   4.076   4.182
 8244SOL    HW225077   4.113   4.108   4.327
 8245SOL     OW25078   5.429   5.211   4.828
 8245SOL    HW125079   5.336   5.186   4.801
 8245SOL    HW225080   5.455   5.161   4.910
 8246SOL     OW25081   4.041   4.271   5.004
 8246SOL    HW125082   4.079   4.212   5.076
 8246SOL    HW225083   4.081   4.245   4.916
 8247SOL     OW25084   4.536   5.310   4.411
 8247SOL    HW125085   4.568   5.320   4.317
 8247SOL    HW225086   4.457   5.248   4.413
 8248SOL     OW25087   5.148   3.938   4.836
 8248SOL    HW125088   5.200   3.873   4.891
 8248SOL    HW225089   5.099   4.001   4.897
 8249SOL     OW25090   4.725   3.758   4.878
 8249SOL    HW125091   4.662   3.686   4.847
 8249SOL    HW225092   4.818   3.722   4.878
 8250SOL     OW25093   4.494   5.054   4.025
 8250SOL    HW125094   4.448   4.967   4.042
 8250SOL    HW225095   4.585   5.051   4.066
 8251SOL     OW25096   4.342   5.291   5.008
 8251SOL    HW125097   4.337   5.373   5.065
 8251SOL    HW225098   4.431   5.288   4.963
 8252SOL     OW25099   5.076   3.776   3.892
 8252SOL    HW125100   5.111   3.735   3.808
 8252SOL    HW225101   4.986   3.738   3.912
 8253SOL     OW25102   5.024   4.177   4.415
 8253SOL    HW125103   4.965   4.257   4.419
 8253SOL    HW225104   5.039   4.142   4.508
 8254SOL     OW25105   5.317   3.945   4.606
 8254SOL    HW125106   5.233   3.944   4.660
 8254SOL    HW225107   5.319   4.028   4.550
 8255SOL     OW25108   3.763   4.801   4.024
 8255SOL    HW125109   3.862   4.790   4.015
 8255SOL    HW225110   3.723   4.715   4.056
 8256SOL     OW25111   4.599   5.370   4.061
 8256SOL    HW125112   4.522   5.335   4.007
 8256SOL    HW225113   4.567   5.441   4.123
 8257SOL     OW25114   3.954   4.352   5.699
 8257SOL    HW125115   3.861   4.350   5.736
 8257SOL    HW225116   3.955   4.313   5.607
 8258SOL     OW25117   3.949   3.999   6.582
 8258SOL    HW125118   3.984   3.982   6.674
 8258SOL    HW225119   3.861   3.954   6.570
 8259SOL     OW25120   3.743   4.092   6.233
 8259SOL    HW125121   3.661   4.135   6.272
 8259SOL    HW225122   3.715   4.019   6.170
 8260SOL     OW25123   4.293   4.999   6.751
 8260SOL    HW125124   4.200   4.992   6.714
 8260SOL    HW225125   4.304   5.088   6.795
 8261SOL     OW25126   5.279   5.235   6.289
 8261SOL    HW125127   5.222   5.219   6.370
 8261SOL    HW225128   5.220   5.245   6.209
 8262SOL     OW25129   4.859   4.427   6.303
 8262SOL    HW125130   4.916   4.505   6.278
 8262SOL    HW225131   4.799   4.453   6.379
 8263SOL     OW25132   5.479   4.331   5.817
 8263SOL    HW125133   5.467   4.318   5.718
 8263SOL    HW225134   5.449   4.250   5.866
 8264SOL     OW25135   4.492   4.868   6.609
 8264SOL    HW125136   4.414   4.885   6.669
 8264SOL    HW225137   4.526   4.955   6.573
 8265SOL     OW25138   4.409   4.736   6.251
 8265SOL    HW125139   4.478   4.720   6.321
 8265SOL    HW225140   4.336   4.793   6.289
 8266SOL     OW25141   4.059   5.159   6.647
 8266SOL    HW125142   3.981   5.128   6.594
 8266SOL    HW225143   4.117   5.217   6.590
 8267SOL     OW25144   5.327   4.171   6.323
 8267SOL    HW125145   5.253   4.217   6.273
 8267SOL    HW225146   5.378   4.239   6.376
 8268SOL     OW25147   3.955   5.437   6.069
 8268SOL    HW125148   3.989   5.514   6.123
 8268SOL    HW225149   3.999   5.437   5.979
 8269SOL     OW25150   3.954   5.158   6.124
 8269SOL    HW125151   3.928   5.254   6.124
 8269SOL    HW225152   3.883   5.104   6.169
 8270SOL     OW25153   3.964   4.815   6.472
 8270SOL    HW125154   3.978   4.731   6.524
 8270SOL    HW225155   3.909   4.879   6.527
 8271SOL     OW25156   4.330   4.688   5.709
 8271SOL    HW125157   4.337   4.772   5.655
 8271SOL    HW225158   4.376   4.701   5.797
 8272SOL     OW25159   3.846   4.367   6.149
 8272SOL    HW125160   3.801   4.279   6.166
 8272SOL    HW225161   3.845   4.421   6.233
 8273SOL     OW25162   5.566   5.491   5.945
 8273SOL    HW125163   5.620   5.462   6.025
 8273SOL    HW225164   5.596   5.581   5.916
 8274SOL     OW25165   3.751   5.320   5.703
 8274SOL    HW125166   3.732   5.224   5.724
 8274SOL    HW225167   3.718   5.378   5.778
 8275SOL     OW25168   5.413   4.646   6.198
 8275SOL    HW125169   5.508   4.617   6.206
 8275SOL    HW225170   5.405   4.711   6.123
 8276SOL     OW25171   5.365   4.832   6.018
 8276SOL    HW125172   5.451   4.834   5.966
 8276SOL    HW225173   5.379   4.879   6.106
 8277SOL     OW25174   4.337   5.089   6.312
 8277SOL    HW125175   4.288   5.002   6.321
 8277SOL    HW225176   4.314   5.132   6.225
 8278SOL     OW25177   4.533   3.728   6.088
 8278SOL    HW125178   4.573   3.819   6.079
 8278SOL    HW225179   4.433   3.736   6.094
 8279SOL     OW25180   5.249   4.723   5.776
 8279SOL    HW125181   5.186   4.647   5.789
 8279SOL    HW225182   5.297   4.741   5.862
 8280SOL     OW25183   5.391   5.438   6.158
 8280SOL    HW125184   5.350   5.415   6.070
 8280SOL    HW225185   5.373   5.364   6.223
 8281SOL     OW25186   4.322   4.453   5.856
 8281SOL    HW125187   4.346   4.522   5.788
 8281SOL    HW225188   4.244   4.486   5.910
 8282SOL     OW25189   5.005   4.069   6.530
 8282SOL    HW125190   4.919   4.019   6.517
 8282SOL    HW225191   5.067   4.015   6.586
 8283SOL     OW25192   5.300   5.386   5.893
 8283SOL    HW125193   5.389   5.432   5.896
 8283SOL    HW225194   5.279   5.362   5.798
 8284SOL     OW25195   4.715   4.134   6.828
 8284SOL    HW125196   4.638   4.168   6.882
 8284SOL    HW225197   4.681   4.083   6.749
 8285SOL     OW25198   4.765   4.425   6.015
 8285SOL    HW125199   4.791   4.421   6.111
 8285SOL    HW225200   4.680   4.374   6.001
 8286SOL     OW25201   3.800   4.535   6.375
 8286SOL    HW125202   3.899   4.523   6.384
 8286SOL    HW225203   3.776   4.630   6.396
 8287SOL     OW25204   4.589   4.072   5.781
 8287SOL    HW125205   4.648   4.135   5.732
 8287SOL    HW225206   4.608   3.978   5.752
 8288SOL     OW25207   5.086   4.868   6.131
 8288SOL    HW125208   5.169   4.839   6.083
 8288SOL    HW225209   5.037   4.935   6.075
 8289SOL     OW25210   4.732   5.180   6.063
 8289SOL    HW125211   4.686   5.252   6.011
 8289SOL    HW225212   4.728   5.200   6.161
 8290SOL     OW25213   4.075   5.525   6.439
 8290SOL    HW125214   4.125   5.439   6.445
 8290SOL    HW225215   4.140   5.602   6.436
 8291SOL     OW25216   5.519   4.790   6.459
 8291SOL    HW125217   5.457   4.775   6.383
 8291SOL    HW225218   5.467   4.801   6.544
 8292SOL     OW25219   4.045   4.667   5.828
 8292SOL    HW125220   4.127   4.706   5.786
 8292SOL    HW225221   4.018   4.585   5.779
 8293SOL     OW25222   5.182   4.459   6.314
 8293SOL    HW125223   5.177   4.394   6.389
 8293SOL    HW225224   5.262   4.518   6.327
 8294SOL     OW25225   4.835   5.500   5.823
 8294SOL    HW125226   4.775   5.438   5.873
 8294SOL    HW225227   4.866   5.456   5.738
 8295SOL     OW25228   5.356   5.101   5.667
 8295SOL    HW125229   5.324   5.195   5.657
 8295SOL    HW225230   5.280   5.038   5.655
 8296SOL     OW25231   4.188   5.467   5.909
 8296SOL    HW125232   4.221   5.506   5.995
 8296SOL    HW225233   4.264   5.460   5.844
 8297SOL     OW25234   5.124   3.831   6.012
 8297SOL    HW125235   5.100   3.794   5.922
 8297SOL    HW225236   5.223   3.847   6.016
 8298SOL     OW25237   3.973   5.509   6.827
 8298SOL    HW125238   4.030   5.444   6.877
 8298SOL    HW225239   3.957   5.476   6.734
 8299SOL     OW25240   4.664   5.422   6.490
 8299SOL    HW125241   4.744   5.365   6.511
 8299SOL    HW225242   4.615   5.382   6.413
 8300SOL     OW25243   4.106   4.424   6.066
 8300SOL    HW125244   4.151   4.334   6.063
 8300SOL    HW225245   4.012   4.413   6.099
 8301SOL     OW25246   4.338   3.846   5.703
 8301SOL    HW125247   4.436   3.824   5.710
 8301SOL    HW225248   4.307   3.829   5.610
 8302SOL     OW25249   4.612   5.238   6.781
 8302SOL    HW125250   4.589   5.213   6.687
 8302SOL    HW225251   4.673   5.169   6.820
 8303SOL     OW25252   4.527   5.126   6.510
 8303SOL    HW125253   4.617   5.140   6.468
 8303SOL    HW225254   4.456   5.128   6.439
 8304SOL     OW25255   4.263   3.788   6.098
 8304SOL    HW125256   4.182   3.789   6.156
 8304SOL    HW225257   4.266   3.871   6.043
 8305SOL     OW25258   5.158   4.912   5.627
 8305SOL    HW125259   5.190   4.836   5.684
 8305SOL    HW225260   5.066   4.939   5.657
 8306SOL     OW25261   4.021   3.759   5.757
 8306SOL    HW125262   4.070   3.843   5.736
 8306SOL    HW225263   4.083   3.694   5.802
 8307SOL     OW25264   4.659   3.960   6.066
 8307SOL    HW125265   4.611   4.001   5.988
 8307SOL    HW225266   4.758   3.958   6.047
 8308SOL     OW25267   4.951   5.294   6.379
 8308SOL    HW125268   4.972   5.368   6.314
 8308SOL    HW225269   5.019   5.294   6.452
 8309SOL     OW25270   4.183   4.876   6.327
 8309SOL    HW125271   4.112   4.849   6.392
 8309SOL    HW225272   4.157   4.848   6.234
 8310SOL     OW25273   4.995   5.521   6.177
 8310SOL    HW125274   5.039   5.585   6.113
 8310SOL    HW225275   4.945   5.573   6.247
 8311SOL     OW25276   4.756   4.273   5.602
 8311SOL    HW125277   4.715   4.355   5.563
 8311SOL    HW225278   4.820   4.299   5.675
 8312SOL     OW25279   4.590   4.178   6.228
 8312SOL    HW125280   4.558   4.250   6.166
 8312SOL    HW225281   4.614   4.097   6.175
 8313SOL     OW25282   4.741   3.763   6.339
 8313SOL    HW125283   4.669   3.768   6.270
 8313SOL    HW225284   4.717   3.694   6.408
 8314SOL     OW25285   5.153   4.897   6.453
 8314SOL    HW125286   5.098   4.813   6.446
 8314SOL    HW225287   5.179   4.926   6.361
 8315SOL     OW25288   5.190   4.314   6.578
 8315SOL    HW125289   5.160   4.219   6.585
 8315SOL    HW225290   5.263   4.330   6.644
 8316SOL     OW25291   4.212   5.109   5.760
 8316SOL    HW125292   4.125   5.094   5.807
 8316SOL    HW225293   4.195   5.135   5.665
 8317SOL     OW25294   5.388   5.004   6.243
 8317SOL    HW125295   5.487   5.012   6.257
 8317SOL    HW225296   5.343   5.088   6.274
 8318SOL     OW25297   5.114   4.299   5.664
 8318SOL    HW125298   5.060   4.278   5.745
 8318SOL    HW225299   5.205   4.258   5.673
 8319SOL     OW25300   4.251   3.980   5.914
 8319SOL    HW125301   4.278   3.921   5.839
 8319SOL    HW225302   4.251   4.075   5.883
 8320SOL     OW25303   4.835   4.919   6.686
 8320SOL    HW125304   4.795   4.963   6.767
 8320SOL    HW225305   4.794   4.956   6.603
 8321SOL     OW25306   4.429   4.774   5.954
 8321SOL    HW125307   4.415   4.781   6.053
 8321SOL    HW225308   4.513   4.723   5.936
 8322SOL     OW25309   4.091   4.824   6.087
 8322SOL    HW125310   4.084   4.907   6.031
 8322SOL    HW225311   4.095   4.744   6.027
 8323SOL     OW25312   4.290   4.261   6.451
 8323SOL    HW125313   4.302   4.327   6.377
 8323SOL    HW225314   4.336   4.295   6.534
 8324SOL     OW25315   4.976   5.072   5.974
 8324SOL    HW125316   5.026   5.149   6.014
 8324SOL    HW225317   4.881   5.074   6.006
 8325SOL     OW25318   4.996   5.169   6.728
 8325SOL    HW125319   5.043   5.182   6.815
 8325SOL    HW225320   4.930   5.095   6.737
 8326SOL     OW25321   5.306   4.363   6.058
 8326SOL    HW125322   5.275   4.424   6.131
 8326SOL    HW225323   5.356   4.415   5.989
 8327SOL     OW25324   4.297   4.594   6.615
 8327SOL    HW125325   4.341   4.683   6.606
 8327SOL    HW225326   4.234   4.594   6.692
 8328SOL     OW25327   5.084   4.586   6.631
 8328SOL    HW125328   5.009   4.586   6.565
 8328SOL    HW225329   5.121   4.494   6.640
 8329SOL     OW25330   4.933   4.249   5.861
 8329SOL    HW125331   4.946   4.165   5.915
 8329SOL    HW225332   4.904   4.323   5.921
 8330SOL     OW25333   4.456   4.358   6.650
 8330SOL    HW125334   4.515   4.332   6.574
 8330SOL    HW225335   4.428   4.454   6.639
 8331SOL     OW25336   4.031   3.787   6.204
 8331SOL    HW125337   4.020   3.881   6.237
 8331SOL    HW225338   4.026   3.724   6.281
 8332SOL     OW25339   5.346   4.091   5.960
 8332SOL    HW125340   5.348   4.015   6.024
 8332SOL    HW225341   5.298   4.168   6.000
 8333SOL     OW25342   4.747   4.490   6.552
 8333SOL    HW125343   4.762   4.511   6.648
 8333SOL    HW225344   4.717   4.395   6.543
 8334SOL     OW25345   5.264   3.998   5.711
 8334SOL    HW125346   5.203   3.923   5.734
 8334SOL    HW225347   5.286   4.050   5.794
 8335SOL     OW25348   5.027   4.562   5.628
 8335SOL    HW125349   5.061   4.469   5.643
 8335SOL    HW225350   5.045   4.589   5.533
 8336SOL     OW25351   4.792   5.057   6.435
 8336SOL    HW125352   4.799   4.973   6.380
 8336SOL    HW225353   4.854   5.126   6.399
 8337SOL     OW25354   4.043   4.534   6.535
 8337SOL    HW125355   4.136   4.570   6.540
 8337SOL    HW225356   4.037   4.449   6.587
 8338SOL     OW25357   4.063   4.233   6.592
 8338SOL    HW125358   4.011   4.150   6.575
 8338SOL    HW225359   4.140   4.238   6.528
 8339SOL     OW25360   3.732   5.050   5.786
 8339SOL    HW125361   3.639   5.071   5.755
 8339SOL    HW225362   3.742   4.951   5.799
 8340SOL     OW25363   3.812   5.525   6.513
 8340SOL    HW125364   3.770   5.439   6.486
 8340SOL    HW225365   3.906   5.528   6.479
 8341SOL     OW25366   4.228   5.292   6.496
 8341SOL    HW125367   4.294   5.366   6.505
 8341SOL    HW225368   4.272   5.213   6.454
 8342SOL     OW25369   3.764   4.268   6.700
 8342SOL    HW125370   3.849   4.235   6.659
 8342SOL    HW225371   3.777   4.283   6.798
 8343SOL     OW25372   4.539   4.296   5.911
 8343SOL    HW125373   4.546   4.207   5.865
 8343SOL    HW225374   4.445   4.330   5.903
 8344SOL     OW25375   4.197   4.224   5.777
 8344SOL    HW125376   4.258   4.304   5.781
 8344SOL    HW225377   4.102   4.255   5.784
 8345SOL     OW25378   5.071   4.783   6.820
 8345SOL    HW125379   5.095   4.720   6.746
 8345SOL    HW225380   4.981   4.823   6.802
 8346SOL     OW25381   5.026   4.579   5.895
 8346SOL    HW125382   4.940   4.548   5.937
 8346SOL    HW225383   5.022   4.565   5.796
 8347SOL     OW25384   4.976   5.455   6.714
 8347SOL    HW125385   5.060   5.460   6.660
 8347SOL    HW225386   4.953   5.359   6.732
 8348SOL     OW25387   3.807   4.982   6.608
 8348SOL    HW125388   3.802   4.981   6.708
 8348SOL    HW225389   3.724   4.941   6.570
 8349SOL     OW25390   5.450   3.859   6.109
 8349SOL    HW125391   5.523   3.842   6.042
 8349SOL    HW225392   5.419   3.772   6.147
 8350SOL     OW25393   5.112   5.297   6.063
 8350SOL    HW125394   5.179   5.309   5.989
 8350SOL    HW225395   5.072   5.386   6.086
 8351SOL     OW25396   5.004   4.651   6.258
 8351SOL    HW125397   5.064   4.570   6.260
 8351SOL    HW225398   5.044   4.720   6.198
 8352SOL     OW25399   4.396   5.340   5.740
 8352SOL    HW125400   4.405   5.350   5.641
 8352SOL    HW225401   4.356   5.251   5.761
 8353SOL     OW25402   5.565   3.899   6.549
 8353SOL    HW125403   5.604   3.814   6.513
 8353SOL    HW225404   5.467   3.901   6.530
 8354SOL     OW25405   3.987   4.050   6.306
 8354SOL    HW125406   3.908   4.101   6.272
 8354SOL    HW225407   3.978   4.035   6.404
 8355SOL     OW25408   4.918   5.336   5.617
 8355SOL    HW125409   4.924   5.243   5.654
 8355SOL    HW225410   4.859   5.336   5.537
 8356SOL     OW25411   4.640   4.634   5.877
 8356SOL    HW125412   4.703   4.672   5.809
 8356SOL    HW225413   4.680   4.551   5.916
 8357SOL     OW25414   5.228   5.331   5.630
 8357SOL    HW125415   5.136   5.368   5.637
 8357SOL    HW225416   5.266   5.351   5.540
 8358SOL     OW25417   4.763   4.822   6.282
 8358SOL    HW125418   4.693   4.775   6.336
 8358SOL    HW225419   4.822   4.754   6.239
 8359SOL     OW25420   4.314   5.211   6.077
 8359SOL    HW125421   4.356   5.153   6.007
 8359SOL    HW225422   4.270   5.290   6.033
 8360SOL     OW25423   3.979   5.072   5.876
 8360SOL    HW125424   3.883   5.073   5.849
 8360SOL    HW225425   3.991   5.125   5.960
 8361SOL     OW25426   3.799   4.069   5.619
 8361SOL    HW125427   3.707   4.041   5.590
 8361SOL    HW225428   3.830   4.146   5.563
 8362SOL     OW25429   3.796   3.890   5.904
 8362SOL    HW125430   3.779   3.973   5.850
 8362SOL    HW225431   3.886   3.853   5.882
 8363SOL     OW25432   4.907   5.059   5.705
 8363SOL    HW125433   4.808   5.048   5.707
 8363SOL    HW225434   4.941   5.074   5.798
 8364SOL     OW25435   5.398   4.607   6.840
 8364SOL    HW125436   5.371   4.518   6.803
 8364SOL    HW225437   5.399   4.675   6.767
 8365SOL     OW25438   4.949   4.049   6.035
 8365SOL    HW125439   5.014   3.975   6.024
 8365SOL    HW225440   4.969   4.099   6.119
 8366SOL     OW25441   4.318   4.469   6.238
 8366SOL    HW125442   4.368   4.554   6.219
 8366SOL    HW225443   4.230   4.471   6.190
 8367SOL     OW25444   4.583   5.098   5.602
 8367SOL    HW125445   4.537   5.113   5.690
 8367SOL    HW225446   4.627   5.183   5.572
 8368SOL     OW25447   4.385   5.514   6.539
 8368SOL    HW125448   4.339   5.602   6.526
 8368SOL    HW225449   4.484   5.526   6.532
 8369SOL     OW25450   4.583   4.680   6.447
 8369SOL    HW125451   4.637   4.611   6.495
 8369SOL    HW225452   4.551   4.749   6.513
 8370SOL     OW25453   4.807   4.708   5.673
 8370SOL    HW125454   4.784   4.761   5.591
 8370SOL    HW225455   4.888   4.652   5.654
 8371SOL     OW25456   5.585   5.293   6.437
 8371SOL    HW125457   5.514   5.281   6.367
 8371SOL    HW225458   5.586   5.214   6.497
 8372SOL     OW25459   3.803   4.964   6.239
 8372SOL    HW125460   3.802   4.917   6.327
 8372SOL    HW225461   3.885   4.936   6.188
 8373SOL     OW25462   4.152   4.148   6.106
 8373SOL    HW125463   4.182   4.076   6.044
 8373SOL    HW225464   4.113   4.108   6.189
 8374SOL     OW25465   4.041   4.271   6.866
 8374SOL    HW125466   4.079   4.212   6.938
 8374SOL    HW225467   4.081   4.245   6.778
 8375SOL     OW25468   4.536   5.310   6.273
 8375SOL    HW125469   4.568   5.320   6.179
 8375SOL    HW225470   4.457   5.248   6.275
 8376SOL     OW25471   4.494   5.054   5.887
 8376SOL    HW125472   4.448   4.967   5.904
 8376SOL    HW225473   4.585   5.051   5.928
 8377SOL     OW25474   5.076   3.776   5.754
 8377SOL    HW125475   5.111   3.735   5.670
 8377SOL    HW225476   4.986   3.738   5.774
 8378SOL     OW25477   5.024   4.177   6.277
 8378SOL    HW125478   4.965   4.257   6.281
 8378SOL    HW225479   5.039   4.142   6.370
 8379SOL     OW25480   3.763   4.801   5.886
 8379SOL    HW125481   3.862   4.790   5.877
 8379SOL    HW225482   3.723   4.715   5.918
 8380SOL     OW25483   4.599   5.370   5.923
 8380SOL    HW125484   4.522   5.335   5.869
 8380SOL    HW225485   4.567   5.441   5.985
 8381SOL     OW25486   3.954   6.214   0.113
 8381SOL    HW125487   3.861   6.212   0.150
 8381SOL    HW225488   3.955   6.175   0.021
 8382SOL     OW25489   3.949   5.861   0.996
 8382SOL    HW125490   3.984   5.844   1.088
 8382SOL    HW225491   3.861   5.816   0.984
 8383SOL     OW25492   3.743   5.954   0.647
 8383SOL    HW125493   3.661   5.997   0.686
 8383SOL    HW225494   3.715   5.881   0.584
 8384SOL     OW25495   4.293   6.861   1.165
 8384SOL    HW125496   4.200   6.854   1.128
 8384SOL    HW225497   4.304   6.950   1.209
 8385SOL     OW25498   5.279   7.097   0.703
 8385SOL    HW125499   5.222   7.081   0.784
 8385SOL    HW225500   5.220   7.107   0.623
 8386SOL     OW25501   4.859   6.289   0.717
 8386SOL    HW125502   4.916   6.367   0.692
 8386SOL    HW225503   4.799   6.315   0.793
 8387SOL     OW25504   4.492   6.730   1.023
 8387SOL    HW125505   4.414   6.747   1.083
 8387SOL    HW225506   4.526   6.817   0.987
 8388SOL     OW25507   4.574   6.384   1.823
 8388SOL    HW125508   4.570   6.460   1.888
 8388SOL    HW225509   4.596   6.420   1.732
 8389SOL     OW25510   4.409   6.598   0.665
 8389SOL    HW125511   4.478   6.582   0.735
 8389SOL    HW225512   4.336   6.655   0.703
 8390SOL     OW25513   4.410   6.747   1.803
 8390SOL    HW125514   4.470   6.826   1.817
 8390SOL    HW225515   4.324   6.778   1.762
 8391SOL     OW25516   4.059   7.021   1.061
 8391SOL    HW125517   3.981   6.990   1.008
 8391SOL    HW225518   4.117   7.079   1.004
 8392SOL     OW25519   5.184   7.091   1.339
 8392SOL    HW125520   5.208   7.185   1.365
 8392SOL    HW225521   5.168   7.037   1.421
 8393SOL     OW25522   4.162   5.978   1.499
 8393SOL    HW125523   4.244   5.922   1.508
 8393SOL    HW225524   4.081   5.920   1.503
 8394SOL     OW25525   5.327   6.033   0.737
 8394SOL    HW125526   5.253   6.079   0.687
 8394SOL    HW225527   5.378   6.101   0.790
 8395SOL     OW25528   3.955   7.299   0.483
 8395SOL    HW125529   3.989   7.376   0.537
 8395SOL    HW225530   3.999   7.299   0.393
 8396SOL     OW25531   4.851   6.927   1.690
 8396SOL    HW125532   4.898   6.927   1.778
 8396SOL    HW225533   4.803   6.840   1.679
 8397SOL     OW25534   3.954   7.020   0.538
 8397SOL    HW125535   3.928   7.116   0.538
 8397SOL    HW225536   3.883   6.966   0.583
 8398SOL     OW25537   3.964   6.677   0.886
 8398SOL    HW125538   3.978   6.593   0.938
 8398SOL    HW225539   3.909   6.741   0.941
 8399SOL     OW25540   4.344   7.372   1.439
 8399SOL    HW125541   4.252   7.355   1.474
 8399SOL    HW225542   4.372   7.464   1.465
 8400SOL     OW25543   4.330   6.550   0.123
 8400SOL    HW125544   4.337   6.634   0.069
 8400SOL    HW225545   4.376   6.563   0.211
 8401SOL     OW25546   3.846   6.229   0.563
 8401SOL    HW125547   3.801   6.141   0.580
 8401SOL    HW225548   3.845   6.283   0.647
 8402SOL     OW25549   3.751   7.182   0.117
 8402SOL    HW125550   3.732   7.086   0.138
 8402SOL    HW225551   3.718   7.240   0.192
 8403SOL     OW25552   5.413   6.508   0.612
 8403SOL    HW125553   5.508   6.479   0.620
 8403SOL    HW225554   5.405   6.573   0.537
 8404SOL     OW25555   5.365   6.694   0.432
 8404SOL    HW125556   5.451   6.696   0.380
 8404SOL    HW225557   5.379   6.741   0.520
 8405SOL     OW25558   3.837   6.323   1.597
 8405SOL    HW125559   3.925   6.310   1.642
 8405SOL    HW225560   3.824   6.420   1.575
 8406SOL     OW25561   4.337   6.951   0.726
 8406SOL    HW125562   4.288   6.864   0.735
 8406SOL    HW225563   4.314   6.994   0.639
 8407SOL     OW25564   5.017   6.814   1.423
 8407SOL    HW125565   5.054   6.741   1.365
 8407SOL    HW225566   5.069   6.819   1.508
 8408SOL     OW25567   4.533   5.590   0.502
 8408SOL    HW125568   4.573   5.681   0.493
 8408SOL    HW225569   4.433   5.598   0.508
 8409SOL     OW25570   3.921   6.562   1.264
 8409SOL    HW125571   4.010   6.517   1.250
 8409SOL    HW225572   3.848   6.497   1.245
 8410SOL     OW25573   5.249   6.585   0.190
 8410SOL    HW125574   5.186   6.509   0.203
 8410SOL    HW225575   5.297   6.603   0.276
 8411SOL     OW25576   4.911   7.378   1.616
 8411SOL    HW125577   4.935   7.438   1.540
 8411SOL    HW225578   4.918   7.283   1.586
 8412SOL     OW25579   4.041   5.837   1.801
 8412SOL    HW125580   4.112   5.908   1.807
 8412SOL    HW225581   3.953   5.876   1.829
 8413SOL     OW25582   5.190   7.003   0.953
 8413SOL    HW125583   5.131   7.009   1.033
 8413SOL    HW225584   5.175   6.915   0.907
 8414SOL     OW25585   5.391   7.300   0.572
 8414SOL    HW125586   5.350   7.277   0.484
 8414SOL    HW225587   5.373   7.226   0.637
 8415SOL     OW25588   4.322   6.315   0.270
 8415SOL    HW125589   4.346   6.384   0.202
 8415SOL    HW225590   4.244   6.348   0.324
 8416SOL     OW25591   5.005   5.931   0.944
 8416SOL    HW125592   4.919   5.881   0.931
 8416SOL    HW225593   5.067   5.877   1.000
 8417SOL     OW25594   5.300   7.248   0.307
 8417SOL    HW125595   5.389   7.294   0.310
 8417SOL    HW225596   5.279   7.224   0.212
 8418SOL     OW25597   4.531   6.191   1.465
 8418SOL    HW125598   4.484   6.188   1.554
 8418SOL    HW225599   4.480   6.136   1.399
 8419SOL     OW25600   5.118   6.055   1.674
 8419SOL    HW125601   5.098   6.098   1.762
 8419SOL    HW225602   5.196   5.993   1.683
 8420SOL     OW25603   4.697   6.476   1.572
 8420SOL    HW125604   4.743   6.392   1.543
 8420SOL    HW225605   4.641   6.510   1.497
 8421SOL     OW25606   4.765   6.287   0.429
 8421SOL    HW125607   4.791   6.283   0.525
 8421SOL    HW225608   4.680   6.236   0.415
 8422SOL     OW25609   3.800   6.397   0.789
 8422SOL    HW125610   3.899   6.385   0.798
 8422SOL    HW225611   3.776   6.492   0.810
 8423SOL     OW25612   3.854   7.407   1.571
 8423SOL    HW125613   3.844   7.392   1.670
 8423SOL    HW225614   3.768   7.443   1.535
 8424SOL     OW25615   4.589   5.934   0.195
 8424SOL    HW125616   4.648   5.997   0.146
 8424SOL    HW225617   4.608   5.840   0.166
 8425SOL     OW25618   5.443   6.171   1.831
 8425SOL    HW125619   5.417   6.260   1.795
 8425SOL    HW225620   5.441   6.103   1.758
 8426SOL     OW25621   5.086   6.730   0.545
 8426SOL    HW125622   5.169   6.701   0.497
 8426SOL    HW225623   5.037   6.797   0.489
 8427SOL     OW25624   4.274   5.782   0.885
 8427SOL    HW125625   4.269   5.777   0.985
 8427SOL    HW225626   4.276   5.878   0.856
 8428SOL     OW25627   4.732   7.042   0.477
 8428SOL    HW125628   4.686   7.114   0.425
 8428SOL    HW225629   4.728   7.062   0.575
 8429SOL     OW25630   4.075   7.387   0.853
 8429SOL    HW125631   4.125   7.301   0.859
 8429SOL    HW225632   4.140   7.464   0.850
 8430SOL     OW25633   5.519   6.652   0.873
 8430SOL    HW125634   5.457   6.637   0.797
 8430SOL    HW225635   5.467   6.663   0.958
 8431SOL     OW25636   4.951   7.136   1.506
 8431SOL    HW125637   4.957   7.059   1.570
 8431SOL    HW225638   4.899   7.110   1.426
 8432SOL     OW25639   4.045   6.529   0.242
 8432SOL    HW125640   4.127   6.568   0.200
 8432SOL    HW225641   4.018   6.447   0.193
 8433SOL     OW25642   5.182   6.321   0.728
 8433SOL    HW125643   5.177   6.256   0.803
 8433SOL    HW225644   5.262   6.380   0.741
 8434SOL     OW25645   4.185   6.852   1.727
 8434SOL    HW125646   4.135   6.853   1.641
 8434SOL    HW225647   4.122   6.834   1.803
 8435SOL     OW25648   3.926   5.871   1.498
 8435SOL    HW125649   3.846   5.931   1.485
 8435SOL    HW225650   3.916   5.822   1.584
 8436SOL     OW25651   4.188   7.329   0.323
 8436SOL    HW125652   4.221   7.368   0.409
 8436SOL    HW225653   4.264   7.322   0.258
 8437SOL     OW25654   5.124   5.693   0.426
 8437SOL    HW125655   5.100   5.656   0.336
 8437SOL    HW225656   5.223   5.709   0.430
 8438SOL     OW25657   3.973   7.371   1.241
 8438SOL    HW125658   4.030   7.306   1.291
 8438SOL    HW225659   3.957   7.338   1.148
 8439SOL     OW25660   4.664   7.284   0.904
 8439SOL    HW125661   4.744   7.227   0.925
 8439SOL    HW225662   4.615   7.244   0.827
 8440SOL     OW25663   4.106   6.286   0.480
 8440SOL    HW125664   4.151   6.196   0.477
 8440SOL    HW225665   4.012   6.275   0.513
 8441SOL     OW25666   5.271   5.808   1.729
 8441SOL    HW125667   5.266   5.845   1.821
 8441SOL    HW225668   5.199   5.739   1.717
 8442SOL     OW25669   4.338   5.708   0.117
 8442SOL    HW125670   4.436   5.686   0.124
 8442SOL    HW225671   4.307   5.691   0.024
 8443SOL     OW25672   4.612   7.100   1.195
 8443SOL    HW125673   4.589   7.075   1.101
 8443SOL    HW225674   4.673   7.031   1.234
 8444SOL     OW25675   5.075   6.176   1.433
 8444SOL    HW125676   5.103   6.133   1.518
 8444SOL    HW225677   5.100   6.272   1.434
 8445SOL     OW25678   4.527   6.988   0.924
 8445SOL    HW125679   4.617   7.002   0.882
 8445SOL    HW225680   4.456   6.990   0.853
 8446SOL     OW25681   4.646   6.089   0.899
 8446SOL    HW125682   4.621   6.080   0.803
 8446SOL    HW225683   4.694   6.007   0.930
 8447SOL     OW25684   4.263   5.650   0.512
 8447SOL    HW125685   4.182   5.651   0.570
 8447SOL    HW225686   4.266   5.733   0.457
 8448SOL     OW25687   5.158   6.774   0.041
 8448SOL    HW125688   5.190   6.698   0.098
 8448SOL    HW225689   5.066   6.801   0.071
 8449SOL     OW25690   4.021   5.621   0.171
 8449SOL    HW125691   4.070   5.705   0.150
 8449SOL    HW225692   4.083   5.556   0.216
 8450SOL     OW25693   4.659   5.822   0.480
 8450SOL    HW125694   4.611   5.863   0.402
 8450SOL    HW225695   4.758   5.820   0.461
 8451SOL     OW25696   4.800   6.269   1.464
 8451SOL    HW125697   4.720   6.208   1.467
 8451SOL    HW225698   4.881   6.216   1.440
 8452SOL     OW25699   4.951   7.156   0.793
 8452SOL    HW125700   4.972   7.230   0.728
 8452SOL    HW225701   5.019   7.156   0.866
 8453SOL     OW25702   4.183   6.738   0.741
 8453SOL    HW125703   4.112   6.711   0.806
 8453SOL    HW225704   4.157   6.710   0.648
 8454SOL     OW25705   4.756   6.135   0.016
 8454SOL    HW125706   4.715   6.217  -0.023
 8454SOL    HW225707   4.820   6.161   0.089
 8455SOL     OW25708   3.802   6.142   1.386
 8455SOL    HW125709   3.894   6.141   1.345
 8455SOL    HW225710   3.796   6.216   1.453
 8456SOL     OW25711   4.285   5.808   1.147
 8456SOL    HW125712   4.323   5.724   1.184
 8456SOL    HW225713   4.197   5.827   1.191
 8457SOL     OW25714   4.590   6.040   0.642
 8457SOL    HW125715   4.558   6.112   0.580
 8457SOL    HW225716   4.614   5.959   0.589
 8458SOL     OW25717   4.741   5.625   0.753
 8458SOL    HW125718   4.669   5.630   0.684
 8458SOL    HW225719   4.717   5.556   0.822
 8459SOL     OW25720   5.153   6.759   0.867
 8459SOL    HW125721   5.098   6.675   0.860
 8459SOL    HW225722   5.179   6.788   0.775
 8460SOL     OW25723   5.190   6.176   0.992
 8460SOL    HW125724   5.160   6.081   0.999
 8460SOL    HW225725   5.263   6.192   1.058
 8461SOL     OW25726   5.581   6.419   0.377
 8461SOL    HW125727   5.623   6.355   0.441
 8461SOL    HW225728   5.543   6.368   0.299
 8462SOL     OW25729   4.212   6.971   0.174
 8462SOL    HW125730   4.125   6.956   0.221
 8462SOL    HW225731   4.195   6.997   0.079
 8463SOL     OW25732   5.388   6.866   0.657
 8463SOL    HW125733   5.487   6.874   0.671
 8463SOL    HW225734   5.343   6.950   0.688
 8464SOL     OW25735   5.114   6.161   0.078
 8464SOL    HW125736   5.060   6.140   0.159
 8464SOL    HW225737   5.205   6.120   0.087
 8465SOL     OW25738   4.251   5.842   0.328
 8465SOL    HW125739   4.278   5.783   0.253
 8465SOL    HW225740   4.251   5.937   0.297
 8466SOL     OW25741   5.478   6.809   1.588
 8466SOL    HW125742   5.569   6.770   1.575
 8466SOL    HW225743   5.486   6.905   1.612
 8467SOL     OW25744   4.788   6.933   1.340
 8467SOL    HW125745   4.708   6.910   1.395
 8467SOL    HW225746   4.871   6.907   1.389
 8468SOL     OW25747   5.316   7.215   1.625
 8468SOL    HW125748   5.343   7.249   1.535
 8468SOL    HW225749   5.395   7.177   1.671
 8469SOL     OW25750   4.835   6.781   1.100
 8469SOL    HW125751   4.795   6.825   1.181
 8469SOL    HW225752   4.794   6.818   1.017
 8470SOL     OW25753   5.362   6.685   1.079
 8470SOL    HW125754   5.367   6.766   1.138
 8470SOL    HW225755   5.276   6.687   1.028
 8471SOL     OW25756   4.639   5.675   1.402
 8471SOL    HW125757   4.664   5.655   1.307
 8471SOL    HW225758   4.711   5.731   1.444
 8472SOL     OW25759   4.704   6.702   1.719
 8472SOL    HW125760   4.605   6.708   1.729
 8472SOL    HW225761   4.727   6.622   1.663
 8473SOL     OW25762   4.429   6.636   0.368
 8473SOL    HW125763   4.415   6.643   0.467
 8473SOL    HW225764   4.513   6.585   0.350
 8474SOL     OW25765   4.134   6.399   1.251
 8474SOL    HW125766   4.220   6.411   1.301
 8474SOL    HW225767   4.092   6.312   1.278
 8475SOL     OW25768   3.788   7.150   1.331
 8475SOL    HW125769   3.742   7.232   1.297
 8475SOL    HW225770   3.886   7.169   1.340
 8476SOL     OW25771   4.091   6.686   0.501
 8476SOL    HW125772   4.084   6.769   0.445
 8476SOL    HW225773   4.095   6.606   0.441
 8477SOL     OW25774   4.290   6.123   0.865
 8477SOL    HW125775   4.302   6.189   0.791
 8477SOL    HW225776   4.336   6.157   0.948
 8478SOL     OW25777   4.976   6.934   0.388
 8478SOL    HW125778   5.026   7.011   0.428
 8478SOL    HW225779   4.881   6.936   0.420
 8479SOL     OW25780   4.996   7.031   1.142
 8479SOL    HW125781   5.043   7.044   1.229
 8479SOL    HW225782   4.930   6.957   1.151
 8480SOL     OW25783   5.306   6.225   0.472
 8480SOL    HW125784   5.275   6.286   0.545
 8480SOL    HW225785   5.356   6.277   0.403
 8481SOL     OW25786   4.078   7.096   1.329
 8481SOL    HW125787   4.057   7.052   1.242
 8481SOL    HW225788   4.175   7.122   1.332
 8482SOL     OW25789   4.126   6.337   1.598
 8482SOL    HW125790   4.194   6.392   1.551
 8482SOL    HW225791   4.166   6.249   1.625
 8483SOL     OW25792   5.311   6.365   1.670
 8483SOL    HW125793   5.219   6.403   1.665
 8483SOL    HW225794   5.371   6.412   1.605
 8484SOL     OW25795   4.737   5.691   1.770
 8484SOL    HW125796   4.743   5.776   1.718
 8484SOL    HW225797   4.769   5.615   1.713
 8485SOL     OW25798   4.228   5.636   1.740
 8485SOL    HW125799   4.186   5.579   1.670
 8485SOL    HW225800   4.162   5.705   1.772
 8486SOL     OW25801   4.297   6.456   1.029
 8486SOL    HW125802   4.341   6.545   1.020
 8486SOL    HW225803   4.234   6.456   1.106
 8487SOL     OW25804   5.084   6.448   1.045
 8487SOL    HW125805   5.009   6.448   0.979
 8487SOL    HW225806   5.121   6.356   1.054
 8488SOL     OW25807   4.933   6.111   0.275
 8488SOL    HW125808   4.946   6.027   0.329
 8488SOL    HW225809   4.904   6.185   0.335
 8489SOL     OW25810   4.031   5.799   1.231
 8489SOL    HW125811   4.008   5.836   1.321
 8489SOL    HW225812   4.001   5.704   1.225
 8490SOL     OW25813   3.761   6.896   1.282
 8490SOL    HW125814   3.814   6.847   1.350
 8490SOL    HW225815   3.783   6.994   1.287
 8491SOL     OW25816   4.456   6.220   1.064
 8491SOL    HW125817   4.515   6.194   0.988
 8491SOL    HW225818   4.428   6.316   1.053
 8492SOL     OW25819   5.452   6.521   1.854
 8492SOL    HW125820   5.406   6.514   1.765
 8492SOL    HW225821   5.390   6.565   1.920
 8493SOL     OW25822   4.031   5.649   0.618
 8493SOL    HW125823   4.020   5.743   0.651
 8493SOL    HW225824   4.026   5.586   0.695
 8494SOL     OW25825   5.346   5.953   0.374
 8494SOL    HW125826   5.348   5.877   0.438
 8494SOL    HW225827   5.298   6.030   0.414
 8495SOL     OW25828   4.747   6.352   0.966
 8495SOL    HW125829   4.762   6.373   1.062
 8495SOL    HW225830   4.717   6.257   0.957
 8496SOL     OW25831   4.704   7.159   1.700
 8496SOL    HW125832   4.684   7.203   1.612
 8496SOL    HW225833   4.743   7.068   1.684
 8497SOL     OW25834   5.583   7.104   1.605
 8497SOL    HW125835   5.597   7.131   1.510
 8497SOL    HW225836   5.666   7.126   1.658
 8498SOL     OW25837   4.074   6.484   1.804
 8498SOL    HW125838   4.150   6.528   1.852
 8498SOL    HW225839   4.109   6.437   1.722
 8499SOL     OW25840   5.264   5.860   0.125
 8499SOL    HW125841   5.203   5.785   0.148
 8499SOL    HW225842   5.286   5.912   0.208
 8500SOL     OW25843   5.027   6.424   0.042
 8500SOL    HW125844   5.061   6.331   0.057
 8500SOL    HW225845   5.045   6.451  -0.053
 8501SOL     OW25846   4.792   6.919   0.849
 8501SOL    HW125847   4.799   6.835   0.794
 8501SOL    HW225848   4.854   6.988   0.813
 8502SOL     OW25849   4.043   6.396   0.949
 8502SOL    HW125850   4.136   6.432   0.954
 8502SOL    HW225851   4.037   6.311   1.001
 8503SOL     OW25852   4.063   6.095   1.006
 8503SOL    HW125853   4.011   6.012   0.989
 8503SOL    HW225854   4.140   6.100   0.942
 8504SOL     OW25855   4.862   5.966   1.678
 8504SOL    HW125856   4.817   6.029   1.742
 8504SOL    HW225857   4.955   5.997   1.661
 8505SOL     OW25858   3.732   6.912   0.200
 8505SOL    HW125859   3.639   6.933   0.169
 8505SOL    HW225860   3.742   6.813   0.213
 8506SOL     OW25861   3.812   7.387   0.927
 8506SOL    HW125862   3.770   7.301   0.900
 8506SOL    HW225863   3.906   7.390   0.893
 8507SOL     OW25864   4.228   7.154   0.910
 8507SOL    HW125865   4.294   7.228   0.919
 8507SOL    HW225866   4.272   7.075   0.868
 8508SOL     OW25867   4.726   6.382   1.238
 8508SOL    HW125868   4.767   6.350   1.324
 8508SOL    HW225869   4.630   6.355   1.235
 8509SOL     OW25870   3.764   6.130   1.114
 8509SOL    HW125871   3.849   6.097   1.073
 8509SOL    HW225872   3.777   6.145   1.212
 8510SOL     OW25873   3.913   6.106   1.722
 8510SOL    HW125874   3.972   6.066   1.652
 8510SOL    HW225875   3.855   6.177   1.681
 8511SOL     OW25876   5.093   6.536   1.660
 8511SOL    HW125877   5.132   6.625   1.680
 8511SOL    HW225878   5.103   6.516   1.563
 8512SOL     OW25879   4.539   6.158   0.325
 8512SOL    HW125880   4.546   6.069   0.279
 8512SOL    HW225881   4.445   6.192   0.317
 8513SOL     OW25882   5.381   6.190   1.206
 8513SOL    HW125883   5.343   6.121   1.268
 8513SOL    HW225884   5.463   6.154   1.162
 8514SOL     OW25885   3.976   7.150   1.744
 8514SOL    HW125886   3.946   7.207   1.820
 8514SOL    HW225887   3.969   7.053   1.770
 8515SOL     OW25888   4.395   6.050   1.269
 8515SOL    HW125889   4.361   5.961   1.239
 8515SOL    HW225890   4.421   6.104   1.189
 8516SOL     OW25891   4.654   7.264   1.465
 8516SOL    HW125892   4.630   7.246   1.370
 8516SOL    HW225893   4.684   7.358   1.475
 8517SOL     OW25894   4.197   6.086   0.191
 8517SOL    HW125895   4.258   6.166   0.195
 8517SOL    HW225896   4.102   6.117   0.198
 8518SOL     OW25897   3.883   6.723   1.466
 8518SOL    HW125898   3.905   6.662   1.542
 8518SOL    HW225899   3.893   6.674   1.380
 8519SOL     OW25900   5.071   6.645   1.234
 8519SOL    HW125901   5.095   6.582   1.160
 8519SOL    HW225902   4.981   6.685   1.216
 8520SOL     OW25903   5.026   6.441   0.309
 8520SOL    HW125904   4.940   6.410   0.351
 8520SOL    HW225905   5.022   6.427   0.210
 8521SOL     OW25906   5.483   7.333   1.154
 8521SOL    HW125907   5.544   7.363   1.081
 8521SOL    HW225908   5.445   7.244   1.132
 8522SOL     OW25909   4.976   7.317   1.128
 8522SOL    HW125910   5.060   7.322   1.074
 8522SOL    HW225911   4.953   7.221   1.146
 8523SOL     OW25912   3.807   6.844   1.022
 8523SOL    HW125913   3.802   6.843   1.122
 8523SOL    HW225914   3.724   6.803   0.984
 8524SOL     OW25915   4.412   7.248   1.716
 8524SOL    HW125916   4.356   7.329   1.725
 8524SOL    HW225917   4.464   7.252   1.630
 8525SOL     OW25918   4.627   5.672   0.133
 8525SOL    HW125919   4.678   5.673   0.047
 8525SOL    HW225920   4.683   5.630   0.204
 8526SOL     OW25921   5.450   5.721   0.523
 8526SOL    HW125922   5.523   5.704   0.456
 8526SOL    HW225923   5.419   5.634   0.561
 8527SOL     OW25924   5.112   7.159   0.477
 8527SOL    HW125925   5.179   7.171   0.403
 8527SOL    HW225926   5.072   7.248   0.500
 8528SOL     OW25927   3.854   7.380   1.851
 8528SOL    HW125928   3.813   7.306   1.904
 8528SOL    HW225929   3.918   7.431   1.909
 8529SOL     OW25930   5.004   6.513   0.672
 8529SOL    HW125931   5.064   6.432   0.674
 8529SOL    HW225932   5.044   6.582   0.612
 8530SOL     OW25933   4.554   6.859   1.422
 8530SOL    HW125934   4.549   6.892   1.517
 8530SOL    HW225935   4.468   6.878   1.376
 8531SOL     OW25936   4.396   7.202   0.154
 8531SOL    HW125937   4.405   7.212   0.055
 8531SOL    HW225938   4.356   7.113   0.175
 8532SOL     OW25939   5.374   7.306   1.394
 8532SOL    HW125940   5.427   7.316   1.310
 8532SOL    HW225941   5.347   7.396   1.428
 8533SOL     OW25942   5.565   5.761   0.963
 8533SOL    HW125943   5.604   5.676   0.927
 8533SOL    HW225944   5.467   5.763   0.944
 8534SOL     OW25945   3.987   5.912   0.720
 8534SOL    HW125946   3.908   5.963   0.686
 8534SOL    HW225947   3.978   5.897   0.818
 8535SOL     OW25948   4.918   7.198   0.031
 8535SOL    HW125949   4.924   7.105   0.068
 8535SOL    HW225950   4.859   7.198  -0.049
 8536SOL     OW25951   4.546   6.588   1.372
 8536SOL    HW125952   4.586   6.587   1.280
 8536SOL    HW225953   4.556   6.680   1.412
 8537SOL     OW25954   4.640   6.496   0.291
 8537SOL    HW125955   4.703   6.534   0.223
 8537SOL    HW225956   4.680   6.413   0.330
 8538SOL     OW25957   5.228   7.193   0.044
 8538SOL    HW125958   5.136   7.230   0.051
 8538SOL    HW225959   5.266   7.213  -0.046
 8539SOL     OW25960   4.096   6.874   1.490
 8539SOL    HW125961   4.083   6.967   1.456
 8539SOL    HW225962   4.012   6.822   1.477
 8540SOL     OW25963   5.338   6.878   1.289
 8540SOL    HW125964   5.398   6.881   1.369
 8540SOL    HW225965   5.263   6.942   1.302
 8541SOL     OW25966   4.763   6.684   0.696
 8541SOL    HW125967   4.693   6.637   0.750
 8541SOL    HW225968   4.822   6.616   0.653
 8542SOL     OW25969   4.738   5.822   0.971
 8542SOL    HW125970   4.730   5.786   0.878
 8542SOL    HW225971   4.736   5.746   1.036
 8543SOL     OW25972   4.314   7.073   0.491
 8543SOL    HW125973   4.356   7.015   0.421
 8543SOL    HW225974   4.270   7.152   0.447
 8544SOL     OW25975   5.433   5.971   1.381
 8544SOL    HW125976   5.506   6.040   1.385
 8544SOL    HW225977   5.461   5.896   1.322
 8545SOL     OW25978   3.979   6.934   0.290
 8545SOL    HW125979   3.883   6.935   0.263
 8545SOL    HW225980   3.991   6.987   0.374
 8546SOL     OW25981   3.829   6.599   1.726
 8546SOL    HW125982   3.752   6.566   1.780
 8546SOL    HW225983   3.914   6.569   1.768
 8547SOL     OW25984   3.799   5.931   0.033
 8547SOL    HW125985   3.707   5.903   0.004
 8547SOL    HW225986   3.830   6.008  -0.023
 8548SOL     OW25987   5.164   6.442   1.398
 8548SOL    HW125988   5.107   6.494   1.335
 8548SOL    HW225989   5.260   6.454   1.374
 8549SOL     OW25990   3.796   5.752   0.318
 8549SOL    HW125991   3.779   5.835   0.264
 8549SOL    HW225992   3.886   5.715   0.296
 8550SOL     OW25993   4.907   6.921   0.119
 8550SOL    HW125994   4.808   6.910   0.121
 8550SOL    HW225995   4.941   6.936   0.212
 8551SOL     OW25996   4.337   6.428   1.431
 8551SOL    HW125997   4.393   6.509   1.414
 8551SOL    HW225998   4.396   6.348   1.434
 8552SOL     OW25999   5.217   7.353   0.959
 8552SOL    HW126000   5.250   7.417   0.890
 8552SOL    HW226001   5.283   7.347   1.034
 8553SOL     OW26002   4.440   6.151   1.708
 8553SOL    HW126003   4.459   6.216   1.782
 8553SOL    HW226004   4.500   6.071   1.717
 8554SOL     OW26005   5.174   6.806   1.633
 8554SOL    HW126006   5.165   6.796   1.732
 8554SOL    HW226007   5.270   6.799   1.607
 8555SOL     OW26008   4.114   7.327   1.560
 8555SOL    HW126009   4.023   7.368   1.558
 8555SOL    HW226010   4.107   7.233   1.592
 8556SOL     OW26011   5.398   6.469   1.254
 8556SOL    HW126012   5.371   6.380   1.217
 8556SOL    HW226013   5.399   6.537   1.181
 8557SOL     OW26014   4.949   5.911   0.449
 8557SOL    HW126015   5.014   5.837   0.438
 8557SOL    HW226016   4.969   5.961   0.533
 8558SOL     OW26017   4.318   6.331   0.652
 8558SOL    HW126018   4.368   6.416   0.633
 8558SOL    HW226019   4.230   6.333   0.604
 8559SOL     OW26020   5.501   5.928   1.642
 8559SOL    HW126021   5.484   5.959   1.548
 8559SOL    HW226022   5.417   5.891   1.680
 8560SOL     OW26023   5.454   6.520   1.517
 8560SOL    HW126024   5.492   6.611   1.532
 8560SOL    HW226025   5.446   6.503   1.418
 8561SOL     OW26026   4.583   6.960   0.016
 8561SOL    HW126027   4.537   6.975   0.104
 8561SOL    HW226028   4.627   7.045  -0.014
 8562SOL     OW26029   4.385   7.376   0.953
 8562SOL    HW126030   4.339   7.464   0.940
 8562SOL    HW226031   4.484   7.388   0.946
 8563SOL     OW26032   4.583   6.542   0.861
 8563SOL    HW126033   4.637   6.473   0.909
 8563SOL    HW226034   4.551   6.611   0.927
 8564SOL     OW26035   4.807   6.570   0.087
 8564SOL    HW126036   4.784   6.623   0.005
 8564SOL    HW226037   4.888   6.514   0.068
 8565SOL     OW26038   5.585   7.155   0.851
 8565SOL    HW126039   5.514   7.143   0.781
 8565SOL    HW226040   5.586   7.076   0.911
 8566SOL     OW26041   3.945   6.900   1.844
 8566SOL    HW126042   3.880   6.827   1.823
 8566SOL    HW226043   3.949   6.914   1.942
 8567SOL     OW26044   3.803   6.826   0.653
 8567SOL    HW126045   3.802   6.779   0.741
 8567SOL    HW226046   3.885   6.798   0.602
 8568SOL     OW26047   4.396   6.977   1.624
 8568SOL    HW126048   4.318   6.927   1.662
 8568SOL    HW226049   4.393   7.072   1.655
 8569SOL     OW26050   5.548   5.778   1.227
 8569SOL    HW126051   5.544   5.688   1.271
 8569SOL    HW226052   5.551   5.767   1.128
 8570SOL     OW26053   4.152   6.010   0.520
 8570SOL    HW126054   4.182   5.938   0.458
 8570SOL    HW226055   4.113   5.970   0.603
 8571SOL     OW26056   5.429   7.073   1.104
 8571SOL    HW126057   5.336   7.048   1.077
 8571SOL    HW226058   5.455   7.023   1.186
 8572SOL     OW26059   4.041   6.133   1.280
 8572SOL    HW126060   4.079   6.074   1.352
 8572SOL    HW226061   4.081   6.107   1.192
 8573SOL     OW26062   4.536   7.172   0.687
 8573SOL    HW126063   4.568   7.182   0.593
 8573SOL    HW226064   4.457   7.110   0.689
 8574SOL     OW26065   4.725   5.620   1.154
 8574SOL    HW126066   4.662   5.548   1.123
 8574SOL    HW226067   4.818   5.584   1.154
 8575SOL     OW26068   4.494   6.916   0.301
 8575SOL    HW126069   4.448   6.829   0.318
 8575SOL    HW226070   4.585   6.913   0.342
 8576SOL     OW26071   4.342   7.153   1.284
 8576SOL    HW126072   4.337   7.235   1.341
 8576SOL    HW226073   4.431   7.150   1.239
 8577SOL     OW26074   5.076   5.638   0.168
 8577SOL    HW126075   5.111   5.597   0.084
 8577SOL    HW226076   4.986   5.600   0.188
 8578SOL     OW26077   5.024   6.039   0.691
 8578SOL    HW126078   4.965   6.119   0.695
 8578SOL    HW226079   5.039   6.004   0.784
 8579SOL     OW26080   5.317   5.807   0.882
 8579SOL    HW126081   5.233   5.806   0.936
 8579SOL    HW226082   5.319   5.890   0.826
 8580SOL     OW26083   3.763   6.663   0.300
 8580SOL    HW126084   3.862   6.652   0.291
 8580SOL    HW226085   3.723   6.577   0.332
 8581SOL     OW26086   4.599   7.232   0.337
 8581SOL    HW126087   4.522   7.197   0.283
 8581SOL    HW226088   4.567   7.303   0.399
 8582SOL     OW26089   3.954   6.214   1.975
 8582SOL    HW126090   3.861   6.212   2.012
 8582SOL    HW226091   3.955   6.175   1.883
 8583SOL     OW26092   3.743   5.954   2.509
 8583SOL    HW126093   3.661   5.997   2.548
 8583SOL    HW226094   3.715   5.881   2.446
 8584SOL     OW26095   4.293   6.861   3.027
 8584SOL    HW126096   4.200   6.854   2.990
 8584SOL    HW226097   4.304   6.950   3.071
 8585SOL     OW26098   5.279   7.097   2.565
 8585SOL    HW126099   5.222   7.081   2.646
 8585SOL    HW226100   5.220   7.107   2.485
 8586SOL     OW26101   4.859   6.289   2.579
 8586SOL    HW126102   4.916   6.367   2.554
 8586SOL    HW226103   4.799   6.315   2.655
 8587SOL     OW26104   5.479   6.193   2.093
 8587SOL    HW126105   5.467   6.180   1.994
 8587SOL    HW226106   5.449   6.112   2.142
 8588SOL     OW26107   4.492   6.730   2.885
 8588SOL    HW126108   4.414   6.747   2.945
 8588SOL    HW226109   4.526   6.817   2.849
 8589SOL     OW26110   4.574   6.384   3.685
 8589SOL    HW126111   4.570   6.460   3.750
 8589SOL    HW226112   4.596   6.420   3.594
 8590SOL     OW26113   4.409   6.598   2.527
 8590SOL    HW126114   4.478   6.582   2.597
 8590SOL    HW226115   4.336   6.655   2.565
 8591SOL     OW26116   4.410   6.747   3.665
 8591SOL    HW126117   4.470   6.826   3.679
 8591SOL    HW226118   4.324   6.778   3.624
 8592SOL     OW26119   5.184   7.091   3.201
 8592SOL    HW126120   5.208   7.185   3.227
 8592SOL    HW226121   5.168   7.037   3.283
 8593SOL     OW26122   5.327   6.033   2.599
 8593SOL    HW126123   5.253   6.079   2.549
 8593SOL    HW226124   5.378   6.101   2.652
 8594SOL     OW26125   3.955   7.299   2.345
 8594SOL    HW126126   3.989   7.376   2.399
 8594SOL    HW226127   3.999   7.299   2.255
 8595SOL     OW26128   4.851   6.927   3.552
 8595SOL    HW126129   4.898   6.927   3.640
 8595SOL    HW226130   4.803   6.840   3.541
 8596SOL     OW26131   3.954   7.020   2.400
 8596SOL    HW126132   3.928   7.116   2.400
 8596SOL    HW226133   3.883   6.966   2.445
 8597SOL     OW26134   3.964   6.677   2.748
 8597SOL    HW126135   3.978   6.593   2.800
 8597SOL    HW226136   3.909   6.741   2.803
 8598SOL     OW26137   4.344   7.372   3.301
 8598SOL    HW126138   4.252   7.355   3.336
 8598SOL    HW226139   4.372   7.464   3.327
 8599SOL     OW26140   4.330   6.550   1.985
 8599SOL    HW126141   4.337   6.634   1.931
 8599SOL    HW226142   4.376   6.563   2.073
 8600SOL     OW26143   5.318   5.700   3.342
 8600SOL    HW126144   5.300   5.767   3.270
 8600SOL    HW226145   5.315   5.746   3.431
 8601SOL     OW26146   3.846   6.229   2.425
 8601SOL    HW126147   3.801   6.141   2.442
 8601SOL    HW226148   3.845   6.283   2.509
 8602SOL     OW26149   5.566   7.353   2.221
 8602SOL    HW126150   5.620   7.324   2.301
 8602SOL    HW226151   5.596   7.443   2.192
 8603SOL     OW26152   3.751   7.182   1.979
 8603SOL    HW126153   3.732   7.086   2.000
 8603SOL    HW226154   3.718   7.240   2.054
 8604SOL     OW26155   5.413   6.508   2.474
 8604SOL    HW126156   5.508   6.479   2.482
 8604SOL    HW226157   5.405   6.573   2.399
 8605SOL     OW26158   5.365   6.694   2.294
 8605SOL    HW126159   5.451   6.696   2.242
 8605SOL    HW226160   5.379   6.741   2.382
 8606SOL     OW26161   3.837   6.323   3.459
 8606SOL    HW126162   3.925   6.310   3.504
 8606SOL    HW226163   3.824   6.420   3.437
 8607SOL     OW26164   4.337   6.951   2.588
 8607SOL    HW126165   4.288   6.864   2.597
 8607SOL    HW226166   4.314   6.994   2.501
 8608SOL     OW26167   5.017   6.814   3.285
 8608SOL    HW126168   5.054   6.741   3.227
 8608SOL    HW226169   5.069   6.819   3.370
 8609SOL     OW26170   3.921   6.562   3.126
 8609SOL    HW126171   4.010   6.517   3.112
 8609SOL    HW226172   3.848   6.497   3.107
 8610SOL     OW26173   5.249   6.585   2.052
 8610SOL    HW126174   5.186   6.509   2.065
 8610SOL    HW226175   5.297   6.603   2.138
 8611SOL     OW26176   4.911   7.378   3.478
 8611SOL    HW126177   4.935   7.438   3.402
 8611SOL    HW226178   4.918   7.283   3.448
 8612SOL     OW26179   5.190   7.003   2.815
 8612SOL    HW126180   5.131   7.009   2.895
 8612SOL    HW226181   5.175   6.915   2.769
 8613SOL     OW26182   5.391   7.300   2.434
 8613SOL    HW126183   5.350   7.277   2.346
 8613SOL    HW226184   5.373   7.226   2.499
 8614SOL     OW26185   4.322   6.315   2.132
 8614SOL    HW126186   4.346   6.384   2.064
 8614SOL    HW226187   4.244   6.348   2.186
 8615SOL     OW26188   5.300   7.248   2.169
 8615SOL    HW126189   5.389   7.294   2.172
 8615SOL    HW226190   5.279   7.224   2.074
 8616SOL     OW26191   4.531   6.191   3.327
 8616SOL    HW126192   4.484   6.188   3.416
 8616SOL    HW226193   4.480   6.136   3.261
 8617SOL     OW26194   5.118   6.055   3.536
 8617SOL    HW126195   5.098   6.098   3.624
 8617SOL    HW226196   5.196   5.993   3.545
 8618SOL     OW26197   4.697   6.476   3.434
 8618SOL    HW126198   4.743   6.392   3.405
 8618SOL    HW226199   4.641   6.510   3.359
 8619SOL     OW26200   4.765   6.287   2.291
 8619SOL    HW126201   4.791   6.283   2.387
 8619SOL    HW226202   4.680   6.236   2.277
 8620SOL     OW26203   3.800   6.397   2.651
 8620SOL    HW126204   3.899   6.385   2.660
 8620SOL    HW226205   3.776   6.492   2.672
 8621SOL     OW26206   3.854   7.407   3.433
 8621SOL    HW126207   3.844   7.392   3.532
 8621SOL    HW226208   3.768   7.443   3.397
 8622SOL     OW26209   5.443   6.171   3.693
 8622SOL    HW126210   5.417   6.260   3.657
 8622SOL    HW226211   5.441   6.103   3.620
 8623SOL     OW26212   5.086   6.730   2.407
 8623SOL    HW126213   5.169   6.701   2.359
 8623SOL    HW226214   5.037   6.797   2.351
 8624SOL     OW26215   4.732   7.042   2.339
 8624SOL    HW126216   4.686   7.114   2.287
 8624SOL    HW226217   4.728   7.062   2.437
 8625SOL     OW26218   4.075   7.387   2.715
 8625SOL    HW126219   4.125   7.301   2.721
 8625SOL    HW226220   4.140   7.464   2.712
 8626SOL     OW26221   5.519   6.652   2.735
 8626SOL    HW126222   5.457   6.637   2.659
 8626SOL    HW226223   5.467   6.663   2.820
 8627SOL     OW26224   4.951   7.136   3.368
 8627SOL    HW126225   4.957   7.059   3.432
 8627SOL    HW226226   4.899   7.110   3.288
 8628SOL     OW26227   4.045   6.529   2.104
 8628SOL    HW126228   4.127   6.568   2.062
 8628SOL    HW226229   4.018   6.447   2.055
 8629SOL     OW26230   5.182   6.321   2.590
 8629SOL    HW126231   5.177   6.256   2.665
 8629SOL    HW226232   5.262   6.380   2.603
 8630SOL     OW26233   4.185   6.852   3.589
 8630SOL    HW126234   4.135   6.853   3.503
 8630SOL    HW226235   4.122   6.834   3.665
 8631SOL     OW26236   5.356   6.963   1.943
 8631SOL    HW126237   5.324   7.057   1.933
 8631SOL    HW226238   5.280   6.900   1.931
 8632SOL     OW26239   4.188   7.329   2.185
 8632SOL    HW126240   4.221   7.368   2.271
 8632SOL    HW226241   4.264   7.322   2.120
 8633SOL     OW26242   3.973   7.371   3.103
 8633SOL    HW126243   4.030   7.306   3.153
 8633SOL    HW226244   3.957   7.338   3.010
 8634SOL     OW26245   4.664   7.284   2.766
 8634SOL    HW126246   4.744   7.227   2.787
 8634SOL    HW226247   4.615   7.244   2.689
 8635SOL     OW26248   4.106   6.286   2.342
 8635SOL    HW126249   4.151   6.196   2.339
 8635SOL    HW226250   4.012   6.275   2.375
 8636SOL     OW26251   5.271   5.808   3.591
 8636SOL    HW126252   5.266   5.845   3.683
 8636SOL    HW226253   5.199   5.739   3.579
 8637SOL     OW26254   4.505   5.850   3.611
 8637SOL    HW126255   4.572   5.789   3.654
 8637SOL    HW226256   4.432   5.869   3.676
 8638SOL     OW26257   4.612   7.100   3.057
 8638SOL    HW126258   4.589   7.075   2.963
 8638SOL    HW226259   4.673   7.031   3.096
 8639SOL     OW26260   5.075   6.176   3.295
 8639SOL    HW126261   5.103   6.133   3.380
 8639SOL    HW226262   5.100   6.272   3.296
 8640SOL     OW26263   4.527   6.988   2.786
 8640SOL    HW126264   4.617   7.002   2.744
 8640SOL    HW226265   4.456   6.990   2.715
 8641SOL     OW26266   4.646   6.089   2.761
 8641SOL    HW126267   4.621   6.080   2.665
 8641SOL    HW226268   4.694   6.007   2.792
 8642SOL     OW26269   5.158   6.774   1.903
 8642SOL    HW126270   5.190   6.698   1.960
 8642SOL    HW226271   5.066   6.801   1.933
 8643SOL     OW26272   4.021   5.621   2.033
 8643SOL    HW126273   4.070   5.705   2.012
 8643SOL    HW226274   4.083   5.556   2.078
 8644SOL     OW26275   4.800   6.269   3.326
 8644SOL    HW126276   4.720   6.208   3.329
 8644SOL    HW226277   4.881   6.216   3.302
 8645SOL     OW26278   4.951   7.156   2.655
 8645SOL    HW126279   4.972   7.230   2.590
 8645SOL    HW226280   5.019   7.156   2.728
 8646SOL     OW26281   4.183   6.738   2.603
 8646SOL    HW126282   4.112   6.711   2.668
 8646SOL    HW226283   4.157   6.710   2.510
 8647SOL     OW26284   3.802   6.142   3.248
 8647SOL    HW126285   3.894   6.141   3.207
 8647SOL    HW226286   3.796   6.216   3.315
 8648SOL     OW26287   4.590   6.040   2.504
 8648SOL    HW126288   4.558   6.112   2.442
 8648SOL    HW226289   4.614   5.959   2.451
 8649SOL     OW26290   5.153   6.759   2.729
 8649SOL    HW126291   5.098   6.675   2.722
 8649SOL    HW226292   5.179   6.788   2.637
 8650SOL     OW26293   5.190   6.176   2.854
 8650SOL    HW126294   5.160   6.081   2.861
 8650SOL    HW226295   5.263   6.192   2.920
 8651SOL     OW26296   5.581   6.419   2.239
 8651SOL    HW126297   5.623   6.355   2.303
 8651SOL    HW226298   5.543   6.368   2.161
 8652SOL     OW26299   4.212   6.971   2.036
 8652SOL    HW126300   4.125   6.956   2.083
 8652SOL    HW226301   4.195   6.997   1.941
 8653SOL     OW26302   5.388   6.866   2.519
 8653SOL    HW126303   5.487   6.874   2.533
 8653SOL    HW226304   5.343   6.950   2.550
 8654SOL     OW26305   5.114   6.161   1.940
 8654SOL    HW126306   5.060   6.140   2.021
 8654SOL    HW226307   5.205   6.120   1.949
 8655SOL     OW26308   5.478   6.809   3.450
 8655SOL    HW126309   5.569   6.770   3.437
 8655SOL    HW226310   5.486   6.905   3.474
 8656SOL     OW26311   4.788   6.933   3.202
 8656SOL    HW126312   4.708   6.910   3.257
 8656SOL    HW226313   4.871   6.907   3.251
 8657SOL     OW26314   5.316   7.215   3.487
 8657SOL    HW126315   5.343   7.249   3.397
 8657SOL    HW226316   5.395   7.177   3.533
 8658SOL     OW26317   4.835   6.781   2.962
 8658SOL    HW126318   4.795   6.825   3.043
 8658SOL    HW226319   4.794   6.818   2.879
 8659SOL     OW26320   5.362   6.685   2.941
 8659SOL    HW126321   5.367   6.766   3.000
 8659SOL    HW226322   5.276   6.687   2.890
 8660SOL     OW26323   4.704   6.702   3.581
 8660SOL    HW126324   4.605   6.708   3.591
 8660SOL    HW226325   4.727   6.622   3.525
 8661SOL     OW26326   4.429   6.636   2.230
 8661SOL    HW126327   4.415   6.643   2.329
 8661SOL    HW226328   4.513   6.585   2.212
 8662SOL     OW26329   4.134   6.399   3.113
 8662SOL    HW126330   4.220   6.411   3.163
 8662SOL    HW226331   4.092   6.312   3.140
 8663SOL     OW26332   4.998   5.972   3.124
 8663SOL    HW126333   5.019   6.046   3.188
 8663SOL    HW226334   4.909   5.989   3.081
 8664SOL     OW26335   3.788   7.150   3.193
 8664SOL    HW126336   3.742   7.232   3.159
 8664SOL    HW226337   3.886   7.169   3.202
 8665SOL     OW26338   4.091   6.686   2.363
 8665SOL    HW126339   4.084   6.769   2.307
 8665SOL    HW226340   4.095   6.606   2.303
 8666SOL     OW26341   4.290   6.123   2.727
 8666SOL    HW126342   4.302   6.189   2.653
 8666SOL    HW226343   4.336   6.157   2.810
 8667SOL     OW26344   4.976   6.934   2.250
 8667SOL    HW126345   5.026   7.011   2.290
 8667SOL    HW226346   4.881   6.936   2.282
 8668SOL     OW26347   4.996   7.031   3.004
 8668SOL    HW126348   5.043   7.044   3.091
 8668SOL    HW226349   4.930   6.957   3.013
 8669SOL     OW26350   5.306   6.225   2.334
 8669SOL    HW126351   5.275   6.286   2.407
 8669SOL    HW226352   5.356   6.277   2.265
 8670SOL     OW26353   4.078   7.096   3.191
 8670SOL    HW126354   4.057   7.052   3.104
 8670SOL    HW226355   4.175   7.122   3.194
 8671SOL     OW26356   5.311   6.365   3.532
 8671SOL    HW126357   5.219   6.403   3.527
 8671SOL    HW226358   5.371   6.412   3.467
 8672SOL     OW26359   4.737   5.691   3.632
 8672SOL    HW126360   4.743   5.776   3.580
 8672SOL    HW226361   4.769   5.615   3.575
 8673SOL     OW26362   4.297   6.456   2.891
 8673SOL    HW126363   4.341   6.545   2.882
 8673SOL    HW226364   4.234   6.456   2.968
 8674SOL     OW26365   5.084   6.448   2.907
 8674SOL    HW126366   5.009   6.448   2.841
 8674SOL    HW226367   5.121   6.356   2.916
 8675SOL     OW26368   4.933   6.111   2.137
 8675SOL    HW126369   4.946   6.027   2.191
 8675SOL    HW226370   4.904   6.185   2.197
 8676SOL     OW26371   3.761   6.896   3.144
 8676SOL    HW126372   3.814   6.847   3.212
 8676SOL    HW226373   3.783   6.994   3.149
 8677SOL     OW26374   4.456   6.220   2.926
 8677SOL    HW126375   4.515   6.194   2.850
 8677SOL    HW226376   4.428   6.316   2.915
 8678SOL     OW26377   5.452   6.521   3.716
 8678SOL    HW126378   5.406   6.514   3.627
 8678SOL    HW226379   5.390   6.565   3.782
 8679SOL     OW26380   5.346   5.953   2.236
 8679SOL    HW126381   5.348   5.877   2.300
 8679SOL    HW226382   5.298   6.030   2.276
 8680SOL     OW26383   4.747   6.352   2.828
 8680SOL    HW126384   4.762   6.373   2.924
 8680SOL    HW226385   4.717   6.257   2.819
 8681SOL     OW26386   4.704   7.159   3.562
 8681SOL    HW126387   4.684   7.203   3.474
 8681SOL    HW226388   4.743   7.068   3.546
 8682SOL     OW26389   5.583   7.104   3.467
 8682SOL    HW126390   5.597   7.131   3.372
 8682SOL    HW226391   5.666   7.126   3.520
 8683SOL     OW26392   4.074   6.484   3.666
 8683SOL    HW126393   4.150   6.528   3.714
 8683SOL    HW226394   4.109   6.437   3.584
 8684SOL     OW26395   5.027   6.424   1.904
 8684SOL    HW126396   5.061   6.331   1.919
 8684SOL    HW226397   5.045   6.451   1.809
 8685SOL     OW26398   4.792   6.919   2.711
 8685SOL    HW126399   4.799   6.835   2.656
 8685SOL    HW226400   4.854   6.988   2.675
 8686SOL     OW26401   4.043   6.396   2.811
 8686SOL    HW126402   4.136   6.432   2.816
 8686SOL    HW226403   4.037   6.311   2.863
 8687SOL     OW26404   4.063   6.095   2.868
 8687SOL    HW126405   4.011   6.012   2.851
 8687SOL    HW226406   4.140   6.100   2.804
 8688SOL     OW26407   4.862   5.966   3.540
 8688SOL    HW126408   4.817   6.029   3.604
 8688SOL    HW226409   4.955   5.997   3.523
 8689SOL     OW26410   4.884   5.793   3.339
 8689SOL    HW126411   4.884   5.857   3.416
 8689SOL    HW226412   4.912   5.841   3.256
 8690SOL     OW26413   3.732   6.912   2.062
 8690SOL    HW126414   3.639   6.933   2.031
 8690SOL    HW226415   3.742   6.813   2.075
 8691SOL     OW26416   3.812   7.387   2.789
 8691SOL    HW126417   3.770   7.301   2.762
 8691SOL    HW226418   3.906   7.390   2.755
 8692SOL     OW26419   4.228   7.154   2.772
 8692SOL    HW126420   4.294   7.228   2.781
 8692SOL    HW226421   4.272   7.075   2.730
 8693SOL     OW26422   4.726   6.382   3.100
 8693SOL    HW126423   4.767   6.350   3.186
 8693SOL    HW226424   4.630   6.355   3.097
 8694SOL     OW26425   3.764   6.130   2.976
 8694SOL    HW126426   3.849   6.097   2.935
 8694SOL    HW226427   3.777   6.145   3.074
 8695SOL     OW26428   5.093   6.536   3.522
 8695SOL    HW126429   5.132   6.625   3.542
 8695SOL    HW226430   5.103   6.516   3.425
 8696SOL     OW26431   4.539   6.158   2.187
 8696SOL    HW126432   4.546   6.069   2.141
 8696SOL    HW226433   4.445   6.192   2.179
 8697SOL     OW26434   5.381   6.190   3.068
 8697SOL    HW126435   5.343   6.121   3.130
 8697SOL    HW226436   5.463   6.154   3.024
 8698SOL     OW26437   3.976   7.150   3.606
 8698SOL    HW126438   3.946   7.207   3.682
 8698SOL    HW226439   3.969   7.053   3.632
 8699SOL     OW26440   4.654   7.264   3.327
 8699SOL    HW126441   4.630   7.246   3.232
 8699SOL    HW226442   4.684   7.358   3.337
 8700SOL     OW26443   4.197   6.086   2.053
 8700SOL    HW126444   4.258   6.166   2.057
 8700SOL    HW226445   4.102   6.117   2.060
 8701SOL     OW26446   3.883   6.723   3.328
 8701SOL    HW126447   3.905   6.662   3.404
 8701SOL    HW226448   3.893   6.674   3.242
 8702SOL     OW26449   5.071   6.645   3.096
 8702SOL    HW126450   5.095   6.582   3.022
 8702SOL    HW226451   4.981   6.685   3.078
 8703SOL     OW26452   5.026   6.441   2.171
 8703SOL    HW126453   4.940   6.410   2.213
 8703SOL    HW226454   5.022   6.427   2.072
 8704SOL     OW26455   5.483   7.333   3.016
 8704SOL    HW126456   5.544   7.363   2.943
 8704SOL    HW226457   5.445   7.244   2.994
 8705SOL     OW26458   4.976   7.317   2.990
 8705SOL    HW126459   5.060   7.322   2.936
 8705SOL    HW226460   4.953   7.221   3.008
 8706SOL     OW26461   3.807   6.844   2.884
 8706SOL    HW126462   3.802   6.843   2.984
 8706SOL    HW226463   3.724   6.803   2.846
 8707SOL     OW26464   4.412   7.248   3.578
 8707SOL    HW126465   4.356   7.329   3.587
 8707SOL    HW226466   4.464   7.252   3.492
 8708SOL     OW26467   5.112   7.159   2.339
 8708SOL    HW126468   5.179   7.171   2.265
 8708SOL    HW226469   5.072   7.248   2.362
 8709SOL     OW26470   3.854   7.380   3.713
 8709SOL    HW126471   3.813   7.306   3.766
 8709SOL    HW226472   3.918   7.431   3.771
 8710SOL     OW26473   5.004   6.513   2.534
 8710SOL    HW126474   5.064   6.432   2.536
 8710SOL    HW226475   5.044   6.582   2.474
 8711SOL     OW26476   4.554   6.859   3.284
 8711SOL    HW126477   4.549   6.892   3.379
 8711SOL    HW226478   4.468   6.878   3.238
 8712SOL     OW26479   4.396   7.202   2.016
 8712SOL    HW126480   4.405   7.212   1.917
 8712SOL    HW226481   4.356   7.113   2.037
 8713SOL     OW26482   5.374   7.306   3.256
 8713SOL    HW126483   5.427   7.316   3.172
 8713SOL    HW226484   5.347   7.396   3.290
 8714SOL     OW26485   5.565   5.761   2.825
 8714SOL    HW126486   5.604   5.676   2.789
 8714SOL    HW226487   5.467   5.763   2.806
 8715SOL     OW26488   3.987   5.912   2.582
 8715SOL    HW126489   3.908   5.963   2.548
 8715SOL    HW226490   3.978   5.897   2.680
 8716SOL     OW26491   4.918   7.198   1.893
 8716SOL    HW126492   4.924   7.105   1.930
 8716SOL    HW226493   4.859   7.198   1.813
 8717SOL     OW26494   4.546   6.588   3.234
 8717SOL    HW126495   4.586   6.587   3.142
 8717SOL    HW226496   4.556   6.680   3.274
 8718SOL     OW26497   4.640   6.496   2.153
 8718SOL    HW126498   4.703   6.534   2.085
 8718SOL    HW226499   4.680   6.413   2.192
 8719SOL     OW26500   5.228   7.193   1.906
 8719SOL    HW126501   5.136   7.230   1.913
 8719SOL    HW226502   5.266   7.213   1.816
 8720SOL     OW26503   4.096   6.874   3.352
 8720SOL    HW126504   4.083   6.967   3.318
 8720SOL    HW226505   4.012   6.822   3.339
 8721SOL     OW26506   5.338   6.878   3.151
 8721SOL    HW126507   5.398   6.881   3.231
 8721SOL    HW226508   5.263   6.942   3.164
 8722SOL     OW26509   4.763   6.684   2.558
 8722SOL    HW126510   4.693   6.637   2.612
 8722SOL    HW226511   4.822   6.616   2.515
 8723SOL     OW26512   4.314   7.073   2.353
 8723SOL    HW126513   4.356   7.015   2.283
 8723SOL    HW226514   4.270   7.152   2.309
 8724SOL     OW26515   5.433   5.971   3.243
 8724SOL    HW126516   5.506   6.040   3.247
 8724SOL    HW226517   5.461   5.896   3.184
 8725SOL     OW26518   3.979   6.934   2.152
 8725SOL    HW126519   3.883   6.935   2.125
 8725SOL    HW226520   3.991   6.987   2.236
 8726SOL     OW26521   3.829   6.599   3.588
 8726SOL    HW126522   3.752   6.566   3.642
 8726SOL    HW226523   3.914   6.569   3.630
 8727SOL     OW26524   4.396   5.789   3.351
 8727SOL    HW126525   4.486   5.773   3.311
 8727SOL    HW226526   4.404   5.794   3.450
 8728SOL     OW26527   3.799   5.931   1.895
 8728SOL    HW126528   3.707   5.903   1.866
 8728SOL    HW226529   3.830   6.008   1.839
 8729SOL     OW26530   5.164   6.442   3.260
 8729SOL    HW126531   5.107   6.494   3.197
 8729SOL    HW226532   5.260   6.454   3.236
 8730SOL     OW26533   3.796   5.752   2.180
 8730SOL    HW126534   3.779   5.835   2.126
 8730SOL    HW226535   3.886   5.715   2.158
 8731SOL     OW26536   4.907   6.921   1.981
 8731SOL    HW126537   4.808   6.910   1.983
 8731SOL    HW226538   4.941   6.936   2.074
 8732SOL     OW26539   4.337   6.428   3.293
 8732SOL    HW126540   4.393   6.509   3.276
 8732SOL    HW226541   4.396   6.348   3.296
 8733SOL     OW26542   5.217   7.353   2.821
 8733SOL    HW126543   5.250   7.417   2.752
 8733SOL    HW226544   5.283   7.347   2.896
 8734SOL     OW26545   4.440   6.151   3.570
 8734SOL    HW126546   4.459   6.216   3.644
 8734SOL    HW226547   4.500   6.071   3.579
 8735SOL     OW26548   5.174   6.806   3.495
 8735SOL    HW126549   5.165   6.796   3.594
 8735SOL    HW226550   5.270   6.799   3.469
 8736SOL     OW26551   4.114   7.327   3.422
 8736SOL    HW126552   4.023   7.368   3.420
 8736SOL    HW226553   4.107   7.233   3.454
 8737SOL     OW26554   5.398   6.469   3.116
 8737SOL    HW126555   5.371   6.380   3.079
 8737SOL    HW226556   5.399   6.537   3.043
 8738SOL     OW26557   4.949   5.911   2.311
 8738SOL    HW126558   5.014   5.837   2.300
 8738SOL    HW226559   4.969   5.961   2.395
 8739SOL     OW26560   5.501   5.928   3.504
 8739SOL    HW126561   5.484   5.959   3.410
 8739SOL    HW226562   5.417   5.891   3.542
 8740SOL     OW26563   5.454   6.520   3.379
 8740SOL    HW126564   5.492   6.611   3.394
 8740SOL    HW226565   5.446   6.503   3.280
 8741SOL     OW26566   4.583   6.960   1.878
 8741SOL    HW126567   4.537   6.975   1.966
 8741SOL    HW226568   4.627   7.045   1.848
 8742SOL     OW26569   4.385   7.376   2.815
 8742SOL    HW126570   4.339   7.464   2.802
 8742SOL    HW226571   4.484   7.388   2.808
 8743SOL     OW26572   4.583   6.542   2.723
 8743SOL    HW126573   4.637   6.473   2.771
 8743SOL    HW226574   4.551   6.611   2.789
 8744SOL     OW26575   4.807   6.570   1.949
 8744SOL    HW126576   4.784   6.623   1.867
 8744SOL    HW226577   4.888   6.514   1.930
 8745SOL     OW26578   5.585   7.155   2.713
 8745SOL    HW126579   5.514   7.143   2.643
 8745SOL    HW226580   5.586   7.076   2.773
 8746SOL     OW26581   3.945   6.900   3.706
 8746SOL    HW126582   3.880   6.827   3.685
 8746SOL    HW226583   3.949   6.914   3.804
 8747SOL     OW26584   3.803   6.826   2.515
 8747SOL    HW126585   3.802   6.779   2.603
 8747SOL    HW226586   3.885   6.798   2.464
 8748SOL     OW26587   4.396   6.977   3.486
 8748SOL    HW126588   4.318   6.927   3.524
 8748SOL    HW226589   4.393   7.072   3.517
 8749SOL     OW26590   5.548   5.778   3.089
 8749SOL    HW126591   5.544   5.688   3.133
 8749SOL    HW226592   5.551   5.767   2.990
 8750SOL     OW26593   5.429   7.073   2.966
 8750SOL    HW126594   5.336   7.048   2.939
 8750SOL    HW226595   5.455   7.023   3.048
 8751SOL     OW26596   4.041   6.133   3.142
 8751SOL    HW126597   4.079   6.074   3.214
 8751SOL    HW226598   4.081   6.107   3.054
 8752SOL     OW26599   4.536   7.172   2.549
 8752SOL    HW126600   4.568   7.182   2.455
 8752SOL    HW226601   4.457   7.110   2.551
 8753SOL     OW26602   5.148   5.800   2.974
 8753SOL    HW126603   5.200   5.735   3.029
 8753SOL    HW226604   5.099   5.863   3.035
 8754SOL     OW26605   4.494   6.916   2.163
 8754SOL    HW126606   4.448   6.829   2.180
 8754SOL    HW226607   4.585   6.913   2.204
 8755SOL     OW26608   4.342   7.153   3.146
 8755SOL    HW126609   4.337   7.235   3.203
 8755SOL    HW226610   4.431   7.150   3.101
 8756SOL     OW26611   5.024   6.039   2.553
 8756SOL    HW126612   4.965   6.119   2.557
 8756SOL    HW226613   5.039   6.004   2.646
 8757SOL     OW26614   3.763   6.663   2.162
 8757SOL    HW126615   3.862   6.652   2.153
 8757SOL    HW226616   3.723   6.577   2.194
 8758SOL     OW26617   4.599   7.232   2.199
 8758SOL    HW126618   4.522   7.197   2.145
 8758SOL    HW226619   4.567   7.303   2.261
 8759SOL     OW26620   3.949   5.861   4.720
 8759SOL    HW126621   3.984   5.844   4.812
 8759SOL    HW226622   3.861   5.816   4.708
 8760SOL     OW26623   4.293   6.861   4.889
 8760SOL    HW126624   4.200   6.854   4.852
 8760SOL    HW226625   4.304   6.950   4.933
 8761SOL     OW26626   5.279   7.097   4.427
 8761SOL    HW126627   5.222   7.081   4.508
 8761SOL    HW226628   5.220   7.107   4.347
 8762SOL     OW26629   4.859   6.289   4.441
 8762SOL    HW126630   4.916   6.367   4.416
 8762SOL    HW226631   4.799   6.315   4.517
 8763SOL     OW26632   5.479   6.193   3.955
 8763SOL    HW126633   5.467   6.180   3.856
 8763SOL    HW226634   5.449   6.112   4.004
 8764SOL     OW26635   4.492   6.730   4.747
 8764SOL    HW126636   4.414   6.747   4.807
 8764SOL    HW226637   4.526   6.817   4.711
 8765SOL     OW26638   4.574   6.384   5.547
 8765SOL    HW126639   4.570   6.460   5.612
 8765SOL    HW226640   4.596   6.420   5.456
 8766SOL     OW26641   4.409   6.598   4.389
 8766SOL    HW126642   4.478   6.582   4.459
 8766SOL    HW226643   4.336   6.655   4.427
 8767SOL     OW26644   4.410   6.747   5.527
 8767SOL    HW126645   4.470   6.826   5.541
 8767SOL    HW226646   4.324   6.778   5.486
 8768SOL     OW26647   4.059   7.021   4.785
 8768SOL    HW126648   3.981   6.990   4.732
 8768SOL    HW226649   4.117   7.079   4.728
 8769SOL     OW26650   5.184   7.091   5.063
 8769SOL    HW126651   5.208   7.185   5.089
 8769SOL    HW226652   5.168   7.037   5.145
 8770SOL     OW26653   4.162   5.978   5.223
 8770SOL    HW126654   4.244   5.922   5.232
 8770SOL    HW226655   4.081   5.920   5.227
 8771SOL     OW26656   5.327   6.033   4.461
 8771SOL    HW126657   5.253   6.079   4.411
 8771SOL    HW226658   5.378   6.101   4.514
 8772SOL     OW26659   3.955   7.299   4.207
 8772SOL    HW126660   3.989   7.376   4.261
 8772SOL    HW226661   3.999   7.299   4.117
 8773SOL     OW26662   4.851   6.927   5.414
 8773SOL    HW126663   4.898   6.927   5.502
 8773SOL    HW226664   4.803   6.840   5.403
 8774SOL     OW26665   3.954   7.020   4.262
 8774SOL    HW126666   3.928   7.116   4.262
 8774SOL    HW226667   3.883   6.966   4.307
 8775SOL     OW26668   3.964   6.677   4.610
 8775SOL    HW126669   3.978   6.593   4.662
 8775SOL    HW226670   3.909   6.741   4.665
 8776SOL     OW26671   4.344   7.372   5.163
 8776SOL    HW126672   4.252   7.355   5.198
 8776SOL    HW226673   4.372   7.464   5.189
 8777SOL     OW26674   4.330   6.550   3.847
 8777SOL    HW126675   4.337   6.634   3.793
 8777SOL    HW226676   4.376   6.563   3.935
 8778SOL     OW26677   5.318   5.700   5.204
 8778SOL    HW126678   5.300   5.767   5.132
 8778SOL    HW226679   5.315   5.746   5.293
 8779SOL     OW26680   3.846   6.229   4.287
 8779SOL    HW126681   3.801   6.141   4.304
 8779SOL    HW226682   3.845   6.283   4.371
 8780SOL     OW26683   5.566   7.353   4.083
 8780SOL    HW126684   5.620   7.324   4.163
 8780SOL    HW226685   5.596   7.443   4.054
 8781SOL     OW26686   3.751   7.182   3.841
 8781SOL    HW126687   3.732   7.086   3.862
 8781SOL    HW226688   3.718   7.240   3.916
 8782SOL     OW26689   5.413   6.508   4.336
 8782SOL    HW126690   5.508   6.479   4.344
 8782SOL    HW226691   5.405   6.573   4.261
 8783SOL     OW26692   5.365   6.694   4.156
 8783SOL    HW126693   5.451   6.696   4.104
 8783SOL    HW226694   5.379   6.741   4.244
 8784SOL     OW26695   3.837   6.323   5.321
 8784SOL    HW126696   3.925   6.310   5.366
 8784SOL    HW226697   3.824   6.420   5.299
 8785SOL     OW26698   4.337   6.951   4.450
 8785SOL    HW126699   4.288   6.864   4.459
 8785SOL    HW226700   4.314   6.994   4.363
 8786SOL     OW26701   5.017   6.814   5.147
 8786SOL    HW126702   5.054   6.741   5.089
 8786SOL    HW226703   5.069   6.819   5.232
 8787SOL     OW26704   4.533   5.590   4.226
 8787SOL    HW126705   4.573   5.681   4.217
 8787SOL    HW226706   4.433   5.598   4.232
 8788SOL     OW26707   3.921   6.562   4.988
 8788SOL    HW126708   4.010   6.517   4.974
 8788SOL    HW226709   3.848   6.497   4.969
 8789SOL     OW26710   5.249   6.585   3.914
 8789SOL    HW126711   5.186   6.509   3.927
 8789SOL    HW226712   5.297   6.603   4.000
 8790SOL     OW26713   4.911   7.378   5.340
 8790SOL    HW126714   4.935   7.438   5.264
 8790SOL    HW226715   4.918   7.283   5.310
 8791SOL     OW26716   4.041   5.837   5.525
 8791SOL    HW126717   4.112   5.908   5.531
 8791SOL    HW226718   3.953   5.876   5.553
 8792SOL     OW26719   5.190   7.003   4.677
 8792SOL    HW126720   5.131   7.009   4.757
 8792SOL    HW226721   5.175   6.915   4.631
 8793SOL     OW26722   5.391   7.300   4.296
 8793SOL    HW126723   5.350   7.277   4.208
 8793SOL    HW226724   5.373   7.226   4.361
 8794SOL     OW26725   4.322   6.315   3.994
 8794SOL    HW126726   4.346   6.384   3.926
 8794SOL    HW226727   4.244   6.348   4.048
 8795SOL     OW26728   5.005   5.931   4.668
 8795SOL    HW126729   4.919   5.881   4.655
 8795SOL    HW226730   5.067   5.877   4.724
 8796SOL     OW26731   5.300   7.248   4.031
 8796SOL    HW126732   5.389   7.294   4.034
 8796SOL    HW226733   5.279   7.224   3.936
 8797SOL     OW26734   4.531   6.191   5.189
 8797SOL    HW126735   4.484   6.188   5.278
 8797SOL    HW226736   4.480   6.136   5.123
 8798SOL     OW26737   5.118   6.055   5.398
 8798SOL    HW126738   5.098   6.098   5.486
 8798SOL    HW226739   5.196   5.993   5.407
 8799SOL     OW26740   4.697   6.476   5.296
 8799SOL    HW126741   4.743   6.392   5.267
 8799SOL    HW226742   4.641   6.510   5.221
 8800SOL     OW26743   4.715   5.996   4.966
 8800SOL    HW126744   4.638   6.030   5.020
 8800SOL    HW226745   4.681   5.945   4.887
 8801SOL     OW26746   4.765   6.287   4.153
 8801SOL    HW126747   4.791   6.283   4.249
 8801SOL    HW226748   4.680   6.236   4.139
 8802SOL     OW26749   3.800   6.397   4.513
 8802SOL    HW126750   3.899   6.385   4.522
 8802SOL    HW226751   3.776   6.492   4.534
 8803SOL     OW26752   3.854   7.407   5.295
 8803SOL    HW126753   3.844   7.392   5.394
 8803SOL    HW226754   3.768   7.443   5.259
 8804SOL     OW26755   4.589   5.934   3.919
 8804SOL    HW126756   4.648   5.997   3.870
 8804SOL    HW226757   4.608   5.840   3.890
 8805SOL     OW26758   5.443   6.171   5.555
 8805SOL    HW126759   5.417   6.260   5.519
 8805SOL    HW226760   5.441   6.103   5.482
 8806SOL     OW26761   5.086   6.730   4.269
 8806SOL    HW126762   5.169   6.701   4.221
 8806SOL    HW226763   5.037   6.797   4.213
 8807SOL     OW26764   4.274   5.782   4.609
 8807SOL    HW126765   4.269   5.777   4.709
 8807SOL    HW226766   4.276   5.878   4.580
 8808SOL     OW26767   4.732   7.042   4.201
 8808SOL    HW126768   4.686   7.114   4.149
 8808SOL    HW226769   4.728   7.062   4.299
 8809SOL     OW26770   4.075   7.387   4.577
 8809SOL    HW126771   4.125   7.301   4.583
 8809SOL    HW226772   4.140   7.464   4.574
 8810SOL     OW26773   5.519   6.652   4.597
 8810SOL    HW126774   5.457   6.637   4.521
 8810SOL    HW226775   5.467   6.663   4.682
 8811SOL     OW26776   4.951   7.136   5.230
 8811SOL    HW126777   4.957   7.059   5.294
 8811SOL    HW226778   4.899   7.110   5.150
 8812SOL     OW26779   4.045   6.529   3.966
 8812SOL    HW126780   4.127   6.568   3.924
 8812SOL    HW226781   4.018   6.447   3.917
 8813SOL     OW26782   5.182   6.321   4.452
 8813SOL    HW126783   5.177   6.256   4.527
 8813SOL    HW226784   5.262   6.380   4.465
 8814SOL     OW26785   4.185   6.852   5.451
 8814SOL    HW126786   4.135   6.853   5.365
 8814SOL    HW226787   4.122   6.834   5.527
 8815SOL     OW26788   3.926   5.871   5.222
 8815SOL    HW126789   3.846   5.931   5.209
 8815SOL    HW226790   3.916   5.822   5.308
 8816SOL     OW26791   5.356   6.963   3.805
 8816SOL    HW126792   5.324   7.057   3.795
 8816SOL    HW226793   5.280   6.900   3.793
 8817SOL     OW26794   4.188   7.329   4.047
 8817SOL    HW126795   4.221   7.368   4.133
 8817SOL    HW226796   4.264   7.322   3.982
 8818SOL     OW26797   5.124   5.693   4.150
 8818SOL    HW126798   5.100   5.656   4.060
 8818SOL    HW226799   5.223   5.709   4.154
 8819SOL     OW26800   3.973   7.371   4.965
 8819SOL    HW126801   4.030   7.306   5.015
 8819SOL    HW226802   3.957   7.338   4.872
 8820SOL     OW26803   4.664   7.284   4.628
 8820SOL    HW126804   4.744   7.227   4.649
 8820SOL    HW226805   4.615   7.244   4.551
 8821SOL     OW26806   4.106   6.286   4.204
 8821SOL    HW126807   4.151   6.196   4.201
 8821SOL    HW226808   4.012   6.275   4.237
 8822SOL     OW26809   5.271   5.808   5.453
 8822SOL    HW126810   5.266   5.845   5.545
 8822SOL    HW226811   5.199   5.739   5.441
 8823SOL     OW26812   4.505   5.850   5.473
 8823SOL    HW126813   4.572   5.789   5.516
 8823SOL    HW226814   4.432   5.869   5.538
 8824SOL     OW26815   4.612   7.100   4.919
 8824SOL    HW126816   4.589   7.075   4.825
 8824SOL    HW226817   4.673   7.031   4.958
 8825SOL     OW26818   5.075   6.176   5.157
 8825SOL    HW126819   5.103   6.133   5.242
 8825SOL    HW226820   5.100   6.272   5.158
 8826SOL     OW26821   4.527   6.988   4.648
 8826SOL    HW126822   4.617   7.002   4.606
 8826SOL    HW226823   4.456   6.990   4.577
 8827SOL     OW26824   4.646   6.089   4.623
 8827SOL    HW126825   4.621   6.080   4.527
 8827SOL    HW226826   4.694   6.007   4.654
 8828SOL     OW26827   4.263   5.650   4.236
 8828SOL    HW126828   4.182   5.651   4.294
 8828SOL    HW226829   4.266   5.733   4.181
 8829SOL     OW26830   5.158   6.774   3.765
 8829SOL    HW126831   5.190   6.698   3.822
 8829SOL    HW226832   5.066   6.801   3.795
 8830SOL     OW26833   4.659   5.822   4.204
 8830SOL    HW126834   4.611   5.863   4.126
 8830SOL    HW226835   4.758   5.820   4.185
 8831SOL     OW26836   4.800   6.269   5.188
 8831SOL    HW126837   4.720   6.208   5.191
 8831SOL    HW226838   4.881   6.216   5.164
 8832SOL     OW26839   4.951   7.156   4.517
 8832SOL    HW126840   4.972   7.230   4.452
 8832SOL    HW226841   5.019   7.156   4.590
 8833SOL     OW26842   4.183   6.738   4.465
 8833SOL    HW126843   4.112   6.711   4.530
 8833SOL    HW226844   4.157   6.710   4.372
 8834SOL     OW26845   4.756   6.135   3.740
 8834SOL    HW126846   4.715   6.217   3.701
 8834SOL    HW226847   4.820   6.161   3.813
 8835SOL     OW26848   3.802   6.142   5.110
 8835SOL    HW126849   3.894   6.141   5.069
 8835SOL    HW226850   3.796   6.216   5.177
 8836SOL     OW26851   4.285   5.808   4.871
 8836SOL    HW126852   4.323   5.724   4.908
 8836SOL    HW226853   4.197   5.827   4.915
 8837SOL     OW26854   4.590   6.040   4.366
 8837SOL    HW126855   4.558   6.112   4.304
 8837SOL    HW226856   4.614   5.959   4.313
 8838SOL     OW26857   4.741   5.625   4.477
 8838SOL    HW126858   4.669   5.630   4.408
 8838SOL    HW226859   4.717   5.556   4.546
 8839SOL     OW26860   5.153   6.759   4.591
 8839SOL    HW126861   5.098   6.675   4.584
 8839SOL    HW226862   5.179   6.788   4.499
 8840SOL     OW26863   5.190   6.176   4.716
 8840SOL    HW126864   5.160   6.081   4.723
 8840SOL    HW226865   5.263   6.192   4.782
 8841SOL     OW26866   5.581   6.419   4.101
 8841SOL    HW126867   5.623   6.355   4.165
 8841SOL    HW226868   5.543   6.368   4.023
 8842SOL     OW26869   4.212   6.971   3.898
 8842SOL    HW126870   4.125   6.956   3.945
 8842SOL    HW226871   4.195   6.997   3.803
 8843SOL     OW26872   5.388   6.866   4.381
 8843SOL    HW126873   5.487   6.874   4.395
 8843SOL    HW226874   5.343   6.950   4.412
 8844SOL     OW26875   5.114   6.161   3.802
 8844SOL    HW126876   5.060   6.140   3.883
 8844SOL    HW226877   5.205   6.120   3.811
 8845SOL     OW26878   5.478   6.809   5.312
 8845SOL    HW126879   5.569   6.770   5.299
 8845SOL    HW226880   5.486   6.905   5.336
 8846SOL     OW26881   4.788   6.933   5.064
 8846SOL    HW126882   4.708   6.910   5.119
 8846SOL    HW226883   4.871   6.907   5.113
 8847SOL     OW26884   5.316   7.215   5.349
 8847SOL    HW126885   5.343   7.249   5.259
 8847SOL    HW226886   5.395   7.177   5.395
 8848SOL     OW26887   4.835   6.781   4.824
 8848SOL    HW126888   4.795   6.825   4.905
 8848SOL    HW226889   4.794   6.818   4.741
 8849SOL     OW26890   5.362   6.685   4.803
 8849SOL    HW126891   5.367   6.766   4.862
 8849SOL    HW226892   5.276   6.687   4.752
 8850SOL     OW26893   4.639   5.675   5.126
 8850SOL    HW126894   4.664   5.655   5.031
 8850SOL    HW226895   4.711   5.731   5.168
 8851SOL     OW26896   4.704   6.702   5.443
 8851SOL    HW126897   4.605   6.708   5.453
 8851SOL    HW226898   4.727   6.622   5.387
 8852SOL     OW26899   4.429   6.636   4.092
 8852SOL    HW126900   4.415   6.643   4.191
 8852SOL    HW226901   4.513   6.585   4.074
 8853SOL     OW26902   4.134   6.399   4.975
 8853SOL    HW126903   4.220   6.411   5.025
 8853SOL    HW226904   4.092   6.312   5.002
 8854SOL     OW26905   4.998   5.972   4.986
 8854SOL    HW126906   5.019   6.046   5.050
 8854SOL    HW226907   4.909   5.989   4.943
 8855SOL     OW26908   3.788   7.150   5.055
 8855SOL    HW126909   3.742   7.232   5.021
 8855SOL    HW226910   3.886   7.169   5.064
 8856SOL     OW26911   4.091   6.686   4.225
 8856SOL    HW126912   4.084   6.769   4.169
 8856SOL    HW226913   4.095   6.606   4.165
 8857SOL     OW26914   4.290   6.123   4.589
 8857SOL    HW126915   4.302   6.189   4.515
 8857SOL    HW226916   4.336   6.157   4.672
 8858SOL     OW26917   4.976   6.934   4.112
 8858SOL    HW126918   5.026   7.011   4.152
 8858SOL    HW226919   4.881   6.936   4.144
 8859SOL     OW26920   4.996   7.031   4.866
 8859SOL    HW126921   5.043   7.044   4.953
 8859SOL    HW226922   4.930   6.957   4.875
 8860SOL     OW26923   5.306   6.225   4.196
 8860SOL    HW126924   5.275   6.286   4.269
 8860SOL    HW226925   5.356   6.277   4.127
 8861SOL     OW26926   4.078   7.096   5.053
 8861SOL    HW126927   4.057   7.052   4.966
 8861SOL    HW226928   4.175   7.122   5.056
 8862SOL     OW26929   4.126   6.337   5.322
 8862SOL    HW126930   4.194   6.392   5.275
 8862SOL    HW226931   4.166   6.249   5.349
 8863SOL     OW26932   5.311   6.365   5.394
 8863SOL    HW126933   5.219   6.403   5.389
 8863SOL    HW226934   5.371   6.412   5.329
 8864SOL     OW26935   4.737   5.691   5.494
 8864SOL    HW126936   4.743   5.776   5.442
 8864SOL    HW226937   4.769   5.615   5.437
 8865SOL     OW26938   4.228   5.636   5.464
 8865SOL    HW126939   4.186   5.579   5.394
 8865SOL    HW226940   4.162   5.705   5.496
 8866SOL     OW26941   4.297   6.456   4.753
 8866SOL    HW126942   4.341   6.545   4.744
 8866SOL    HW226943   4.234   6.456   4.830
 8867SOL     OW26944   5.084   6.448   4.769
 8867SOL    HW126945   5.009   6.448   4.703
 8867SOL    HW226946   5.121   6.356   4.778
 8868SOL     OW26947   4.933   6.111   3.999
 8868SOL    HW126948   4.946   6.027   4.053
 8868SOL    HW226949   4.904   6.185   4.059
 8869SOL     OW26950   4.031   5.799   4.955
 8869SOL    HW126951   4.008   5.836   5.045
 8869SOL    HW226952   4.001   5.704   4.949
 8870SOL     OW26953   3.761   6.896   5.006
 8870SOL    HW126954   3.814   6.847   5.074
 8870SOL    HW226955   3.783   6.994   5.011
 8871SOL     OW26956   4.456   6.220   4.788
 8871SOL    HW126957   4.515   6.194   4.712
 8871SOL    HW226958   4.428   6.316   4.777
 8872SOL     OW26959   5.452   6.521   5.578
 8872SOL    HW126960   5.406   6.514   5.489
 8872SOL    HW226961   5.390   6.565   5.644
 8873SOL     OW26962   5.346   5.953   4.098
 8873SOL    HW126963   5.348   5.877   4.162
 8873SOL    HW226964   5.298   6.030   4.138
 8874SOL     OW26965   4.747   6.352   4.690
 8874SOL    HW126966   4.762   6.373   4.786
 8874SOL    HW226967   4.717   6.257   4.681
 8875SOL     OW26968   4.704   7.159   5.424
 8875SOL    HW126969   4.684   7.203   5.336
 8875SOL    HW226970   4.743   7.068   5.408
 8876SOL     OW26971   5.583   7.104   5.329
 8876SOL    HW126972   5.597   7.131   5.234
 8876SOL    HW226973   5.666   7.126   5.382
 8877SOL     OW26974   4.074   6.484   5.528
 8877SOL    HW126975   4.150   6.528   5.576
 8877SOL    HW226976   4.109   6.437   5.446
 8878SOL     OW26977   5.264   5.860   3.849
 8878SOL    HW126978   5.203   5.785   3.872
 8878SOL    HW226979   5.286   5.912   3.932
 8879SOL     OW26980   5.027   6.424   3.766
 8879SOL    HW126981   5.061   6.331   3.781
 8879SOL    HW226982   5.045   6.451   3.671
 8880SOL     OW26983   4.792   6.919   4.573
 8880SOL    HW126984   4.799   6.835   4.518
 8880SOL    HW226985   4.854   6.988   4.537
 8881SOL     OW26986   4.043   6.396   4.673
 8881SOL    HW126987   4.136   6.432   4.678
 8881SOL    HW226988   4.037   6.311   4.725
 8882SOL     OW26989   4.063   6.095   4.730
 8882SOL    HW126990   4.011   6.012   4.713
 8882SOL    HW226991   4.140   6.100   4.666
 8883SOL     OW26992   4.862   5.966   5.402
 8883SOL    HW126993   4.817   6.029   5.466
 8883SOL    HW226994   4.955   5.997   5.385
 8884SOL     OW26995   4.884   5.793   5.201
 8884SOL    HW126996   4.884   5.857   5.278
 8884SOL    HW226997   4.912   5.841   5.118
 8885SOL     OW26998   3.732   6.912   3.924
 8885SOL    HW126999   3.639   6.933   3.893
 8885SOL    HW227000   3.742   6.813   3.937
 8886SOL     OW27001   3.812   7.387   4.651
 8886SOL    HW127002   3.770   7.301   4.624
 8886SOL    HW227003   3.906   7.390   4.617
 8887SOL     OW27004   4.228   7.154   4.634
 8887SOL    HW127005   4.294   7.228   4.643
 8887SOL    HW227006   4.272   7.075   4.592
 8888SOL     OW27007   4.726   6.382   4.962
 8888SOL    HW127008   4.767   6.350   5.048
 8888SOL    HW227009   4.630   6.355   4.959
 8889SOL     OW27010   3.764   6.130   4.838
 8889SOL    HW127011   3.849   6.097   4.797
 8889SOL    HW227012   3.777   6.145   4.936
 8890SOL     OW27013   3.913   6.106   5.446
 8890SOL    HW127014   3.972   6.066   5.376
 8890SOL    HW227015   3.855   6.177   5.405
 8891SOL     OW27016   5.093   6.536   5.384
 8891SOL    HW127017   5.132   6.625   5.404
 8891SOL    HW227018   5.103   6.516   5.287
 8892SOL     OW27019   4.539   6.158   4.049
 8892SOL    HW127020   4.546   6.069   4.003
 8892SOL    HW227021   4.445   6.192   4.041
 8893SOL     OW27022   5.381   6.190   4.930
 8893SOL    HW127023   5.343   6.121   4.992
 8893SOL    HW227024   5.463   6.154   4.886
 8894SOL     OW27025   3.976   7.150   5.468
 8894SOL    HW127026   3.946   7.207   5.544
 8894SOL    HW227027   3.969   7.053   5.494
 8895SOL     OW27028   4.395   6.050   4.993
 8895SOL    HW127029   4.361   5.961   4.963
 8895SOL    HW227030   4.421   6.104   4.913
 8896SOL     OW27031   4.654   7.264   5.189
 8896SOL    HW127032   4.630   7.246   5.094
 8896SOL    HW227033   4.684   7.358   5.199
 8897SOL     OW27034   4.197   6.086   3.915
 8897SOL    HW127035   4.258   6.166   3.919
 8897SOL    HW227036   4.102   6.117   3.922
 8898SOL     OW27037   3.883   6.723   5.190
 8898SOL    HW127038   3.905   6.662   5.266
 8898SOL    HW227039   3.893   6.674   5.104
 8899SOL     OW27040   5.071   6.645   4.958
 8899SOL    HW127041   5.095   6.582   4.884
 8899SOL    HW227042   4.981   6.685   4.940
 8900SOL     OW27043   5.026   6.441   4.033
 8900SOL    HW127044   4.940   6.410   4.075
 8900SOL    HW227045   5.022   6.427   3.934
 8901SOL     OW27046   5.483   7.333   4.878
 8901SOL    HW127047   5.544   7.363   4.805
 8901SOL    HW227048   5.445   7.244   4.856
 8902SOL     OW27049   4.976   7.317   4.852
 8902SOL    HW127050   5.060   7.322   4.798
 8902SOL    HW227051   4.953   7.221   4.870
 8903SOL     OW27052   3.807   6.844   4.746
 8903SOL    HW127053   3.802   6.843   4.846
 8903SOL    HW227054   3.724   6.803   4.708
 8904SOL     OW27055   4.412   7.248   5.440
 8904SOL    HW127056   4.356   7.329   5.449
 8904SOL    HW227057   4.464   7.252   5.354
 8905SOL     OW27058   5.450   5.721   4.247
 8905SOL    HW127059   5.523   5.704   4.180
 8905SOL    HW227060   5.419   5.634   4.285
 8906SOL     OW27061   5.112   7.159   4.201
 8906SOL    HW127062   5.179   7.171   4.127
 8906SOL    HW227063   5.072   7.248   4.224
 8907SOL     OW27064   3.854   7.380   5.575
 8907SOL    HW127065   3.813   7.306   5.628
 8907SOL    HW227066   3.918   7.431   5.633
 8908SOL     OW27067   5.004   6.513   4.396
 8908SOL    HW127068   5.064   6.432   4.398
 8908SOL    HW227069   5.044   6.582   4.336
 8909SOL     OW27070   4.554   6.859   5.146
 8909SOL    HW127071   4.549   6.892   5.241
 8909SOL    HW227072   4.468   6.878   5.100
 8910SOL     OW27073   4.396   7.202   3.878
 8910SOL    HW127074   4.405   7.212   3.779
 8910SOL    HW227075   4.356   7.113   3.899
 8911SOL     OW27076   5.374   7.306   5.118
 8911SOL    HW127077   5.427   7.316   5.034
 8911SOL    HW227078   5.347   7.396   5.152
 8912SOL     OW27079   5.565   5.761   4.687
 8912SOL    HW127080   5.604   5.676   4.651
 8912SOL    HW227081   5.467   5.763   4.668
 8913SOL     OW27082   3.987   5.912   4.444
 8913SOL    HW127083   3.908   5.963   4.410
 8913SOL    HW227084   3.978   5.897   4.542
 8914SOL     OW27085   4.918   7.198   3.755
 8914SOL    HW127086   4.924   7.105   3.792
 8914SOL    HW227087   4.859   7.198   3.675
 8915SOL     OW27088   4.546   6.588   5.096
 8915SOL    HW127089   4.586   6.587   5.004
 8915SOL    HW227090   4.556   6.680   5.136
 8916SOL     OW27091   4.640   6.496   4.015
 8916SOL    HW127092   4.703   6.534   3.947
 8916SOL    HW227093   4.680   6.413   4.054
 8917SOL     OW27094   5.228   7.193   3.768
 8917SOL    HW127095   5.136   7.230   3.775
 8917SOL    HW227096   5.266   7.213   3.678
 8918SOL     OW27097   4.096   6.874   5.214
 8918SOL    HW127098   4.083   6.967   5.180
 8918SOL    HW227099   4.012   6.822   5.201
 8919SOL     OW27100   5.338   6.878   5.013
 8919SOL    HW127101   5.398   6.881   5.093
 8919SOL    HW227102   5.263   6.942   5.026
 8920SOL     OW27103   4.763   6.684   4.420
 8920SOL    HW127104   4.693   6.637   4.474
 8920SOL    HW227105   4.822   6.616   4.377
 8921SOL     OW27106   4.314   7.073   4.215
 8921SOL    HW127107   4.356   7.015   4.145
 8921SOL    HW227108   4.270   7.152   4.171
 8922SOL     OW27109   5.433   5.971   5.105
 8922SOL    HW127110   5.506   6.040   5.109
 8922SOL    HW227111   5.461   5.896   5.046
 8923SOL     OW27112   3.979   6.934   4.014
 8923SOL    HW127113   3.883   6.935   3.987
 8923SOL    HW227114   3.991   6.987   4.098
 8924SOL     OW27115   3.829   6.599   5.450
 8924SOL    HW127116   3.752   6.566   5.504
 8924SOL    HW227117   3.914   6.569   5.492
 8925SOL     OW27118   4.396   5.789   5.213
 8925SOL    HW127119   4.486   5.773   5.173
 8925SOL    HW227120   4.404   5.794   5.312
 8926SOL     OW27121   5.164   6.442   5.122
 8926SOL    HW127122   5.107   6.494   5.059
 8926SOL    HW227123   5.260   6.454   5.098
 8927SOL     OW27124   4.907   6.921   3.843
 8927SOL    HW127125   4.808   6.910   3.845
 8927SOL    HW227126   4.941   6.936   3.936
 8928SOL     OW27127   4.337   6.428   5.155
 8928SOL    HW127128   4.393   6.509   5.138
 8928SOL    HW227129   4.396   6.348   5.158
 8929SOL     OW27130   5.217   7.353   4.683
 8929SOL    HW127131   5.250   7.417   4.614
 8929SOL    HW227132   5.283   7.347   4.758
 8930SOL     OW27133   4.440   6.151   5.432
 8930SOL    HW127134   4.459   6.216   5.506
 8930SOL    HW227135   4.500   6.071   5.441
 8931SOL     OW27136   5.174   6.806   5.357
 8931SOL    HW127137   5.165   6.796   5.456
 8931SOL    HW227138   5.270   6.799   5.331
 8932SOL     OW27139   4.114   7.327   5.284
 8932SOL    HW127140   4.023   7.368   5.282
 8932SOL    HW227141   4.107   7.233   5.316
 8933SOL     OW27142   5.398   6.469   4.978
 8933SOL    HW127143   5.371   6.380   4.941
 8933SOL    HW227144   5.399   6.537   4.905
 8934SOL     OW27145   4.949   5.911   4.173
 8934SOL    HW127146   5.014   5.837   4.162
 8934SOL    HW227147   4.969   5.961   4.257
 8935SOL     OW27148   4.318   6.331   4.376
 8935SOL    HW127149   4.368   6.416   4.357
 8935SOL    HW227150   4.230   6.333   4.328
 8936SOL     OW27151   5.501   5.928   5.366
 8936SOL    HW127152   5.484   5.959   5.272
 8936SOL    HW227153   5.417   5.891   5.404
 8937SOL     OW27154   5.454   6.520   5.241
 8937SOL    HW127155   5.492   6.611   5.256
 8937SOL    HW227156   5.446   6.503   5.142
 8938SOL     OW27157   4.583   6.960   3.740
 8938SOL    HW127158   4.537   6.975   3.828
 8938SOL    HW227159   4.627   7.045   3.710
 8939SOL     OW27160   4.385   7.376   4.677
 8939SOL    HW127161   4.339   7.464   4.664
 8939SOL    HW227162   4.484   7.388   4.670
 8940SOL     OW27163   4.583   6.542   4.585
 8940SOL    HW127164   4.637   6.473   4.633
 8940SOL    HW227165   4.551   6.611   4.651
 8941SOL     OW27166   4.807   6.570   3.811
 8941SOL    HW127167   4.784   6.623   3.729
 8941SOL    HW227168   4.888   6.514   3.792
 8942SOL     OW27169   5.585   7.155   4.575
 8942SOL    HW127170   5.514   7.143   4.505
 8942SOL    HW227171   5.586   7.076   4.635
 8943SOL     OW27172   3.945   6.900   5.568
 8943SOL    HW127173   3.880   6.827   5.547
 8943SOL    HW227174   3.949   6.914   5.666
 8944SOL     OW27175   3.803   6.826   4.377
 8944SOL    HW127176   3.802   6.779   4.465
 8944SOL    HW227177   3.885   6.798   4.326
 8945SOL     OW27178   4.396   6.977   5.348
 8945SOL    HW127179   4.318   6.927   5.386
 8945SOL    HW227180   4.393   7.072   5.379
 8946SOL     OW27181   5.548   5.778   4.951
 8946SOL    HW127182   5.544   5.688   4.995
 8946SOL    HW227183   5.551   5.767   4.852
 8947SOL     OW27184   4.152   6.010   4.244
 8947SOL    HW127185   4.182   5.938   4.182
 8947SOL    HW227186   4.113   5.970   4.327
 8948SOL     OW27187   5.429   7.073   4.828
 8948SOL    HW127188   5.336   7.048   4.801
 8948SOL    HW227189   5.455   7.023   4.910
 8949SOL     OW27190   4.041   6.133   5.004
 8949SOL    HW127191   4.079   6.074   5.076
 8949SOL    HW227192   4.081   6.107   4.916
 8950SOL     OW27193   4.536   7.172   4.411
 8950SOL    HW127194   4.568   7.182   4.317
 8950SOL    HW227195   4.457   7.110   4.413
 8951SOL     OW27196   5.148   5.800   4.836
 8951SOL    HW127197   5.200   5.735   4.891
 8951SOL    HW227198   5.099   5.863   4.897
 8952SOL     OW27199   4.725   5.620   4.878
 8952SOL    HW127200   4.662   5.548   4.847
 8952SOL    HW227201   4.818   5.584   4.878
 8953SOL     OW27202   4.494   6.916   4.025
 8953SOL    HW127203   4.448   6.829   4.042
 8953SOL    HW227204   4.585   6.913   4.066
 8954SOL     OW27205   4.342   7.153   5.008
 8954SOL    HW127206   4.337   7.235   5.065
 8954SOL    HW227207   4.431   7.150   4.963
 8955SOL     OW27208   5.076   5.638   3.892
 8955SOL    HW127209   5.111   5.597   3.808
 8955SOL    HW227210   4.986   5.600   3.912
 8956SOL     OW27211   5.024   6.039   4.415
 8956SOL    HW127212   4.965   6.119   4.419
 8956SOL    HW227213   5.039   6.004   4.508
 8957SOL     OW27214   5.317   5.807   4.606
 8957SOL    HW127215   5.233   5.806   4.660
 8957SOL    HW227216   5.319   5.890   4.550
 8958SOL     OW27217   3.763   6.663   4.024
 8958SOL    HW127218   3.862   6.652   4.015
 8958SOL    HW227219   3.723   6.577   4.056
 8959SOL     OW27220   4.599   7.232   4.061
 8959SOL    HW127221   4.522   7.197   4.007
 8959SOL    HW227222   4.567   7.303   4.123
 8960SOL     OW27223   3.954   6.214   5.699
 8960SOL    HW127224   3.861   6.212   5.736
 8960SOL    HW227225   3.955   6.175   5.607
 8961SOL     OW27226   3.949   5.861   6.582
 8961SOL    HW127227   3.984   5.844   6.674
 8961SOL    HW227228   3.861   5.816   6.570
 8962SOL     OW27229   3.743   5.954   6.233
 8962SOL    HW127230   3.661   5.997   6.272
 8962SOL    HW227231   3.715   5.881   6.170
 8963SOL     OW27232   4.293   6.861   6.751
 8963SOL    HW127233   4.200   6.854   6.714
 8963SOL    HW227234   4.304   6.950   6.795
 8964SOL     OW27235   5.279   7.097   6.289
 8964SOL    HW127236   5.222   7.081   6.370
 8964SOL    HW227237   5.220   7.107   6.209
 8965SOL     OW27238   4.859   6.289   6.303
 8965SOL    HW127239   4.916   6.367   6.278
 8965SOL    HW227240   4.799   6.315   6.379
 8966SOL     OW27241   5.479   6.193   5.817
 8966SOL    HW127242   5.467   6.180   5.718
 8966SOL    HW227243   5.449   6.112   5.866
 8967SOL     OW27244   4.492   6.730   6.609
 8967SOL    HW127245   4.414   6.747   6.669
 8967SOL    HW227246   4.526   6.817   6.573
 8968SOL     OW27247   4.409   6.598   6.251
 8968SOL    HW127248   4.478   6.582   6.321
 8968SOL    HW227249   4.336   6.655   6.289
 8969SOL     OW27250   4.059   7.021   6.647
 8969SOL    HW127251   3.981   6.990   6.594
 8969SOL    HW227252   4.117   7.079   6.590
 8970SOL     OW27253   5.327   6.033   6.323
 8970SOL    HW127254   5.253   6.079   6.273
 8970SOL    HW227255   5.378   6.101   6.376
 8971SOL     OW27256   3.955   7.299   6.069
 8971SOL    HW127257   3.989   7.376   6.123
 8971SOL    HW227258   3.999   7.299   5.979
 8972SOL     OW27259   3.954   7.020   6.124
 8972SOL    HW127260   3.928   7.116   6.124
 8972SOL    HW227261   3.883   6.966   6.169
 8973SOL     OW27262   3.964   6.677   6.472
 8973SOL    HW127263   3.978   6.593   6.524
 8973SOL    HW227264   3.909   6.741   6.527
 8974SOL     OW27265   4.330   6.550   5.709
 8974SOL    HW127266   4.337   6.634   5.655
 8974SOL    HW227267   4.376   6.563   5.797
 8975SOL     OW27268   3.846   6.229   6.149
 8975SOL    HW127269   3.801   6.141   6.166
 8975SOL    HW227270   3.845   6.283   6.233
 8976SOL     OW27271   5.566   7.353   5.945
 8976SOL    HW127272   5.620   7.324   6.025
 8976SOL    HW227273   5.596   7.443   5.916
 8977SOL     OW27274   3.751   7.182   5.703
 8977SOL    HW127275   3.732   7.086   5.724
 8977SOL    HW227276   3.718   7.240   5.778
 8978SOL     OW27277   5.413   6.508   6.198
 8978SOL    HW127278   5.508   6.479   6.206
 8978SOL    HW227279   5.405   6.573   6.123
 8979SOL     OW27280   5.365   6.694   6.018
 8979SOL    HW127281   5.451   6.696   5.966
 8979SOL    HW227282   5.379   6.741   6.106
 8980SOL     OW27283   4.337   6.951   6.312
 8980SOL    HW127284   4.288   6.864   6.321
 8980SOL    HW227285   4.314   6.994   6.225
 8981SOL     OW27286   4.533   5.590   6.088
 8981SOL    HW127287   4.573   5.681   6.079
 8981SOL    HW227288   4.433   5.598   6.094
 8982SOL     OW27289   5.249   6.585   5.776
 8982SOL    HW127290   5.186   6.509   5.789
 8982SOL    HW227291   5.297   6.603   5.862
 8983SOL     OW27292   5.391   7.300   6.158
 8983SOL    HW127293   5.350   7.277   6.070
 8983SOL    HW227294   5.373   7.226   6.223
 8984SOL     OW27295   4.322   6.315   5.856
 8984SOL    HW127296   4.346   6.384   5.788
 8984SOL    HW227297   4.244   6.348   5.910
 8985SOL     OW27298   5.005   5.931   6.530
 8985SOL    HW127299   4.919   5.881   6.517
 8985SOL    HW227300   5.067   5.877   6.586
 8986SOL     OW27301   5.300   7.248   5.893
 8986SOL    HW127302   5.389   7.294   5.896
 8986SOL    HW227303   5.279   7.224   5.798
 8987SOL     OW27304   4.715   5.996   6.828
 8987SOL    HW127305   4.638   6.030   6.882
 8987SOL    HW227306   4.681   5.945   6.749
 8988SOL     OW27307   4.765   6.287   6.015
 8988SOL    HW127308   4.791   6.283   6.111
 8988SOL    HW227309   4.680   6.236   6.001
 8989SOL     OW27310   3.800   6.397   6.375
 8989SOL    HW127311   3.899   6.385   6.384
 8989SOL    HW227312   3.776   6.492   6.396
 8990SOL     OW27313   4.589   5.934   5.781
 8990SOL    HW127314   4.648   5.997   5.732
 8990SOL    HW227315   4.608   5.840   5.752
 8991SOL     OW27316   5.086   6.730   6.131
 8991SOL    HW127317   5.169   6.701   6.083
 8991SOL    HW227318   5.037   6.797   6.075
 8992SOL     OW27319   4.274   5.782   6.471
 8992SOL    HW127320   4.269   5.777   6.571
 8992SOL    HW227321   4.276   5.878   6.442
 8993SOL     OW27322   4.732   7.042   6.063
 8993SOL    HW127323   4.686   7.114   6.011
 8993SOL    HW227324   4.728   7.062   6.161
 8994SOL     OW27325   4.075   7.387   6.439
 8994SOL    HW127326   4.125   7.301   6.445
 8994SOL    HW227327   4.140   7.464   6.436
 8995SOL     OW27328   5.519   6.652   6.459
 8995SOL    HW127329   5.457   6.637   6.383
 8995SOL    HW227330   5.467   6.663   6.544
 8996SOL     OW27331   4.045   6.529   5.828
 8996SOL    HW127332   4.127   6.568   5.786
 8996SOL    HW227333   4.018   6.447   5.779
 8997SOL     OW27334   5.182   6.321   6.314
 8997SOL    HW127335   5.177   6.256   6.389
 8997SOL    HW227336   5.262   6.380   6.327
 8998SOL     OW27337   5.356   6.963   5.667
 8998SOL    HW127338   5.324   7.057   5.657
 8998SOL    HW227339   5.280   6.900   5.655
 8999SOL     OW27340   4.188   7.329   5.909
 8999SOL    HW127341   4.221   7.368   5.995
 8999SOL    HW227342   4.264   7.322   5.844
 9000SOL     OW27343   5.124   5.693   6.012
 9000SOL    HW127344   5.100   5.656   5.922
 9000SOL    HW227345   5.223   5.709   6.016
 9001SOL     OW27346   3.973   7.371   6.827
 9001SOL    HW127347   4.030   7.306   6.877
 9001SOL    HW227348   3.957   7.338   6.734
 9002SOL     OW27349   4.664   7.284   6.490
 9002SOL    HW127350   4.744   7.227   6.511
 9002SOL    HW227351   4.615   7.244   6.413
 9003SOL     OW27352   4.106   6.286   6.066
 9003SOL    HW127353   4.151   6.196   6.063
 9003SOL    HW227354   4.012   6.275   6.099
 9004SOL     OW27355   4.338   5.708   5.703
 9004SOL    HW127356   4.436   5.686   5.710
 9004SOL    HW227357   4.307   5.691   5.610
 9005SOL     OW27358   4.612   7.100   6.781
 9005SOL    HW127359   4.589   7.075   6.687
 9005SOL    HW227360   4.673   7.031   6.820
 9006SOL     OW27361   4.527   6.988   6.510
 9006SOL    HW127362   4.617   7.002   6.468
 9006SOL    HW227363   4.456   6.990   6.439
 9007SOL     OW27364   4.646   6.089   6.485
 9007SOL    HW127365   4.621   6.080   6.389
 9007SOL    HW227366   4.694   6.007   6.516
 9008SOL     OW27367   4.263   5.650   6.098
 9008SOL    HW127368   4.182   5.651   6.156
 9008SOL    HW227369   4.266   5.733   6.043
 9009SOL     OW27370   5.158   6.774   5.627
 9009SOL    HW127371   5.190   6.698   5.684
 9009SOL    HW227372   5.066   6.801   5.657
 9010SOL     OW27373   4.021   5.621   5.757
 9010SOL    HW127374   4.070   5.705   5.736
 9010SOL    HW227375   4.083   5.556   5.802
 9011SOL     OW27376   4.659   5.822   6.066
 9011SOL    HW127377   4.611   5.863   5.988
 9011SOL    HW227378   4.758   5.820   6.047
 9012SOL     OW27379   4.951   7.156   6.379
 9012SOL    HW127380   4.972   7.230   6.314
 9012SOL    HW227381   5.019   7.156   6.452
 9013SOL     OW27382   4.183   6.738   6.327
 9013SOL    HW127383   4.112   6.711   6.392
 9013SOL    HW227384   4.157   6.710   6.234
 9014SOL     OW27385   4.756   6.135   5.602
 9014SOL    HW127386   4.715   6.217   5.563
 9014SOL    HW227387   4.820   6.161   5.675
 9015SOL     OW27388   4.285   5.808   6.733
 9015SOL    HW127389   4.323   5.724   6.770
 9015SOL    HW227390   4.197   5.827   6.777
 9016SOL     OW27391   4.590   6.040   6.228
 9016SOL    HW127392   4.558   6.112   6.166
 9016SOL    HW227393   4.614   5.959   6.175
 9017SOL     OW27394   4.741   5.625   6.339
 9017SOL    HW127395   4.669   5.630   6.270
 9017SOL    HW227396   4.717   5.556   6.408
 9018SOL     OW27397   5.153   6.759   6.453
 9018SOL    HW127398   5.098   6.675   6.446
 9018SOL    HW227399   5.179   6.788   6.361
 9019SOL     OW27400   5.190   6.176   6.578
 9019SOL    HW127401   5.160   6.081   6.585
 9019SOL    HW227402   5.263   6.192   6.644
 9020SOL     OW27403   5.581   6.419   5.963
 9020SOL    HW127404   5.623   6.355   6.027
 9020SOL    HW227405   5.543   6.368   5.885
 9021SOL     OW27406   4.212   6.971   5.760
 9021SOL    HW127407   4.125   6.956   5.807
 9021SOL    HW227408   4.195   6.997   5.665
 9022SOL     OW27409   5.388   6.866   6.243
 9022SOL    HW127410   5.487   6.874   6.257
 9022SOL    HW227411   5.343   6.950   6.274
 9023SOL     OW27412   5.114   6.161   5.664
 9023SOL    HW127413   5.060   6.140   5.745
 9023SOL    HW227414   5.205   6.120   5.673
 9024SOL     OW27415   4.251   5.842   5.914
 9024SOL    HW127416   4.278   5.783   5.839
 9024SOL    HW227417   4.251   5.937   5.883
 9025SOL     OW27418   4.835   6.781   6.686
 9025SOL    HW127419   4.795   6.825   6.767
 9025SOL    HW227420   4.794   6.818   6.603
 9026SOL     OW27421   4.429   6.636   5.954
 9026SOL    HW127422   4.415   6.643   6.053
 9026SOL    HW227423   4.513   6.585   5.936
 9027SOL     OW27424   4.091   6.686   6.087
 9027SOL    HW127425   4.084   6.769   6.031
 9027SOL    HW227426   4.095   6.606   6.027
 9028SOL     OW27427   4.290   6.123   6.451
 9028SOL    HW127428   4.302   6.189   6.377
 9028SOL    HW227429   4.336   6.157   6.534
 9029SOL     OW27430   4.976   6.934   5.974
 9029SOL    HW127431   5.026   7.011   6.014
 9029SOL    HW227432   4.881   6.936   6.006
 9030SOL     OW27433   4.996   7.031   6.728
 9030SOL    HW127434   5.043   7.044   6.815
 9030SOL    HW227435   4.930   6.957   6.737
 9031SOL     OW27436   5.306   6.225   6.058
 9031SOL    HW127437   5.275   6.286   6.131
 9031SOL    HW227438   5.356   6.277   5.989
 9032SOL     OW27439   4.297   6.456   6.615
 9032SOL    HW127440   4.341   6.545   6.606
 9032SOL    HW227441   4.234   6.456   6.692
 9033SOL     OW27442   5.084   6.448   6.631
 9033SOL    HW127443   5.009   6.448   6.565
 9033SOL    HW227444   5.121   6.356   6.640
 9034SOL     OW27445   4.933   6.111   5.861
 9034SOL    HW127446   4.946   6.027   5.915
 9034SOL    HW227447   4.904   6.185   5.921
 9035SOL     OW27448   4.456   6.220   6.650
 9035SOL    HW127449   4.515   6.194   6.574
 9035SOL    HW227450   4.428   6.316   6.639
 9036SOL     OW27451   4.031   5.649   6.204
 9036SOL    HW127452   4.020   5.743   6.237
 9036SOL    HW227453   4.026   5.586   6.281
 9037SOL     OW27454   5.346   5.953   5.960
 9037SOL    HW127455   5.348   5.877   6.024
 9037SOL    HW227456   5.298   6.030   6.000
 9038SOL     OW27457   4.747   6.352   6.552
 9038SOL    HW127458   4.762   6.373   6.648
 9038SOL    HW227459   4.717   6.257   6.543
 9039SOL     OW27460   5.264   5.860   5.711
 9039SOL    HW127461   5.203   5.785   5.734
 9039SOL    HW227462   5.286   5.912   5.794
 9040SOL     OW27463   5.027   6.424   5.628
 9040SOL    HW127464   5.061   6.331   5.643
 9040SOL    HW227465   5.045   6.451   5.533
 9041SOL     OW27466   4.792   6.919   6.435
 9041SOL    HW127467   4.799   6.835   6.380
 9041SOL    HW227468   4.854   6.988   6.399
 9042SOL     OW27469   4.043   6.396   6.535
 9042SOL    HW127470   4.136   6.432   6.540
 9042SOL    HW227471   4.037   6.311   6.587
 9043SOL     OW27472   4.063   6.095   6.592
 9043SOL    HW127473   4.011   6.012   6.575
 9043SOL    HW227474   4.140   6.100   6.528
 9044SOL     OW27475   3.732   6.912   5.786
 9044SOL    HW127476   3.639   6.933   5.755
 9044SOL    HW227477   3.742   6.813   5.799
 9045SOL     OW27478   3.812   7.387   6.513
 9045SOL    HW127479   3.770   7.301   6.486
 9045SOL    HW227480   3.906   7.390   6.479
 9046SOL     OW27481   4.228   7.154   6.496
 9046SOL    HW127482   4.294   7.228   6.505
 9046SOL    HW227483   4.272   7.075   6.454
 9047SOL     OW27484   3.764   6.130   6.700
 9047SOL    HW127485   3.849   6.097   6.659
 9047SOL    HW227486   3.777   6.145   6.798
 9048SOL     OW27487   4.539   6.158   5.911
 9048SOL    HW127488   4.546   6.069   5.865
 9048SOL    HW227489   4.445   6.192   5.903
 9049SOL     OW27490   4.395   6.050   6.855
 9049SOL    HW127491   4.361   5.961   6.825
 9049SOL    HW227492   4.421   6.104   6.775
 9050SOL     OW27493   4.197   6.086   5.777
 9050SOL    HW127494   4.258   6.166   5.781
 9050SOL    HW227495   4.102   6.117   5.784
 9051SOL     OW27496   5.071   6.645   6.820
 9051SOL    HW127497   5.095   6.582   6.746
 9051SOL    HW227498   4.981   6.685   6.802
 9052SOL     OW27499   5.026   6.441   5.895
 9052SOL    HW127500   4.940   6.410   5.937
 9052SOL    HW227501   5.022   6.427   5.796
 9053SOL     OW27502   4.976   7.317   6.714
 9053SOL    HW127503   5.060   7.322   6.660
 9053SOL    HW227504   4.953   7.221   6.732
 9054SOL     OW27505   3.807   6.844   6.608
 9054SOL    HW127506   3.802   6.843   6.708
 9054SOL    HW227507   3.724   6.803   6.570
 9055SOL     OW27508   5.450   5.721   6.109
 9055SOL    HW127509   5.523   5.704   6.042
 9055SOL    HW227510   5.419   5.634   6.147
 9056SOL     OW27511   5.112   7.159   6.063
 9056SOL    HW127512   5.179   7.171   5.989
 9056SOL    HW227513   5.072   7.248   6.086
 9057SOL     OW27514   5.004   6.513   6.258
 9057SOL    HW127515   5.064   6.432   6.260
 9057SOL    HW227516   5.044   6.582   6.198
 9058SOL     OW27517   4.396   7.202   5.740
 9058SOL    HW127518   4.405   7.212   5.641
 9058SOL    HW227519   4.356   7.113   5.761
 9059SOL     OW27520   5.565   5.761   6.549
 9059SOL    HW127521   5.604   5.676   6.513
 9059SOL    HW227522   5.467   5.763   6.530
 9060SOL     OW27523   3.987   5.912   6.306
 9060SOL    HW127524   3.908   5.963   6.272
 9060SOL    HW227525   3.978   5.897   6.404
 9061SOL     OW27526   4.918   7.198   5.617
 9061SOL    HW127527   4.924   7.105   5.654
 9061SOL    HW227528   4.859   7.198   5.537
 9062SOL     OW27529   4.640   6.496   5.877
 9062SOL    HW127530   4.703   6.534   5.809
 9062SOL    HW227531   4.680   6.413   5.916
 9063SOL     OW27532   5.228   7.193   5.630
 9063SOL    HW127533   5.136   7.230   5.637
 9063SOL    HW227534   5.266   7.213   5.540
 9064SOL     OW27535   4.763   6.684   6.282
 9064SOL    HW127536   4.693   6.637   6.336
 9064SOL    HW227537   4.822   6.616   6.239
 9065SOL     OW27538   4.738   5.822   6.557
 9065SOL    HW127539   4.730   5.786   6.464
 9065SOL    HW227540   4.736   5.746   6.622
 9066SOL     OW27541   4.314   7.073   6.077
 9066SOL    HW127542   4.356   7.015   6.007
 9066SOL    HW227543   4.270   7.152   6.033
 9067SOL     OW27544   3.979   6.934   5.876
 9067SOL    HW127545   3.883   6.935   5.849
 9067SOL    HW227546   3.991   6.987   5.960
 9068SOL     OW27547   3.799   5.931   5.619
 9068SOL    HW127548   3.707   5.903   5.590
 9068SOL    HW227549   3.830   6.008   5.563
 9069SOL     OW27550   3.796   5.752   5.904
 9069SOL    HW127551   3.779   5.835   5.850
 9069SOL    HW227552   3.886   5.715   5.882
 9070SOL     OW27553   4.907   6.921   5.705
 9070SOL    HW127554   4.808   6.910   5.707
 9070SOL    HW227555   4.941   6.936   5.798
 9071SOL     OW27556   5.398   6.469   6.840
 9071SOL    HW127557   5.371   6.380   6.803
 9071SOL    HW227558   5.399   6.537   6.767
 9072SOL     OW27559   4.949   5.911   6.035
 9072SOL    HW127560   5.014   5.837   6.024
 9072SOL    HW227561   4.969   5.961   6.119
 9073SOL     OW27562   4.318   6.331   6.238
 9073SOL    HW127563   4.368   6.416   6.219
 9073SOL    HW227564   4.230   6.333   6.190
 9074SOL     OW27565   4.583   6.960   5.602
 9074SOL    HW127566   4.537   6.975   5.690
 9074SOL    HW227567   4.627   7.045   5.572
 9075SOL     OW27568   4.385   7.376   6.539
 9075SOL    HW127569   4.339   7.464   6.526
 9075SOL    HW227570   4.484   7.388   6.532
 9076SOL     OW27571   4.583   6.542   6.447
 9076SOL    HW127572   4.637   6.473   6.495
 9076SOL    HW227573   4.551   6.611   6.513
 9077SOL     OW27574   4.807   6.570   5.673
 9077SOL    HW127575   4.784   6.623   5.591
 9077SOL    HW227576   4.888   6.514   5.654
 9078SOL     OW27577   5.585   7.155   6.437
 9078SOL    HW127578   5.514   7.143   6.367
 9078SOL    HW227579   5.586   7.076   6.497
 9079SOL     OW27580   3.803   6.826   6.239
 9079SOL    HW127581   3.802   6.779   6.327
 9079SOL    HW227582   3.885   6.798   6.188
 9080SOL     OW27583   4.152   6.010   6.106
 9080SOL    HW127584   4.182   5.938   6.044
 9080SOL    HW227585   4.113   5.970   6.189
 9081SOL     OW27586   4.041   6.133   6.866
 9081SOL    HW127587   4.079   6.074   6.938
 9081SOL    HW227588   4.081   6.107   6.778
 9082SOL     OW27589   4.536   7.172   6.273
 9082SOL    HW127590   4.568   7.182   6.179
 9082SOL    HW227591   4.457   7.110   6.275
 9083SOL     OW27592   5.148   5.800   6.698
 9083SOL    HW127593   5.200   5.735   6.753
 9083SOL    HW227594   5.099   5.863   6.759
 9084SOL     OW27595   4.725   5.620   6.740
 9084SOL    HW127596   4.662   5.548   6.709
 9084SOL    HW227597   4.818   5.584   6.740
 9085SOL     OW27598   4.494   6.916   5.887
 9085SOL    HW127599   4.448   6.829   5.904
 9085SOL    HW227600   4.585   6.913   5.928
 9086SOL     OW27601   5.076   5.638   5.754
 9086SOL    HW127602   5.111   5.597   5.670
 9086SOL    HW227603   4.986   5.600   5.774
 9087SOL     OW27604   5.024   6.039   6.277
 9087SOL    HW127605   4.965   6.119   6.281
 9087SOL    HW227606   5.039   6.004   6.370
 9088SOL     OW27607   3.763   6.663   5.886
 9088SOL    HW127608   3.862   6.652   5.877
 9088SOL    HW227609   3.723   6.577   5.918
 9089SOL     OW27610   4.599   7.232   5.923
 9089SOL    HW127611   4.522   7.197   5.869
 9089SOL    HW227612   4.567   7.303   5.985
 9090SOL     OW27613   4.533   7.452   0.502
 9090SOL    HW127614   4.573   7.543   0.493
 9090SOL    HW227615   4.433   7.460   0.508
 9091SOL     OW27616   4.338   7.570   0.117
 9091SOL    HW127617   4.436   7.548   0.124
 9091SOL    HW227618   4.307   7.553   0.024
 9092SOL     OW27619   4.505   7.712   1.749
 9092SOL    HW127620   4.572   7.651   1.792
 9092SOL    HW227621   4.432   7.731   1.814
 9093SOL     OW27622   4.639   7.537   1.402
 9093SOL    HW127623   4.664   7.517   1.307
 9093SOL    HW227624   4.711   7.593   1.444
 9094SOL     OW27625   4.737   7.553   1.770
 9094SOL    HW127626   4.743   7.638   1.718
 9094SOL    HW227627   4.769   7.477   1.713
 9095SOL     OW27628   4.031   7.511   0.618
 9095SOL    HW127629   4.020   7.605   0.651
 9095SOL    HW227630   4.026   7.448   0.695
 9096SOL     OW27631   4.884   7.655   1.477
 9096SOL    HW127632   4.884   7.719   1.554
 9096SOL    HW227633   4.912   7.703   1.394
 9097SOL     OW27634   4.627   7.534   0.133
 9097SOL    HW127635   4.678   7.535   0.047
 9097SOL    HW227636   4.683   7.492   0.204
 9098SOL     OW27637   3.987   7.774   0.720
 9098SOL    HW127638   3.908   7.825   0.686
 9098SOL    HW227639   3.978   7.759   0.818
 9099SOL     OW27640   3.799   7.793   0.033
 9099SOL    HW127641   3.707   7.765   0.004
 9099SOL    HW227642   3.830   7.870  -0.023
 9100SOL     OW27643   4.725   7.482   1.154
 9100SOL    HW127644   4.662   7.410   1.123
 9100SOL    HW227645   4.818   7.446   1.154
 9101SOL     OW27646   5.317   7.669   0.882
 9101SOL    HW127647   5.233   7.668   0.936
 9101SOL    HW227648   5.319   7.752   0.826
 9102SOL     OW27649   4.533   7.452   2.364
 9102SOL    HW127650   4.573   7.543   2.355
 9102SOL    HW227651   4.433   7.460   2.370
 9103SOL     OW27652   4.338   7.570   1.979
 9103SOL    HW127653   4.436   7.548   1.986
 9103SOL    HW227654   4.307   7.553   1.886
 9104SOL     OW27655   4.505   7.712   3.611
 9104SOL    HW127656   4.572   7.651   3.654
 9104SOL    HW227657   4.432   7.731   3.676
 9105SOL     OW27658   4.639   7.537   3.264
 9105SOL    HW127659   4.664   7.517   3.169
 9105SOL    HW227660   4.711   7.593   3.306
 9106SOL     OW27661   4.737   7.553   3.632
 9106SOL    HW127662   4.743   7.638   3.580
 9106SOL    HW227663   4.769   7.477   3.575
 9107SOL     OW27664   4.031   7.511   2.480
 9107SOL    HW127665   4.020   7.605   2.513
 9107SOL    HW227666   4.026   7.448   2.557
 9108SOL     OW27667   4.884   7.655   3.339
 9108SOL    HW127668   4.884   7.719   3.416
 9108SOL    HW227669   4.912   7.703   3.256
 9109SOL     OW27670   3.987   7.774   2.582
 9109SOL    HW127671   3.908   7.825   2.548
 9109SOL    HW227672   3.978   7.759   2.680
 9110SOL     OW27673   3.799   7.793   1.895
 9110SOL    HW127674   3.707   7.765   1.866
 9110SOL    HW227675   3.830   7.870   1.839
 9111SOL     OW27676   4.725   7.482   3.016
 9111SOL    HW127677   4.662   7.410   2.985
 9111SOL    HW227678   4.818   7.446   3.016
 9112SOL     OW27679   5.317   7.669   2.744
 9112SOL    HW127680   5.233   7.668   2.798
 9112SOL    HW227681   5.319   7.752   2.688
 9113SOL     OW27682   4.533   7.452   4.226
 9113SOL    HW127683   4.573   7.543   4.217
 9113SOL    HW227684   4.433   7.460   4.232
 9114SOL     OW27685   4.338   7.570   3.841
 9114SOL    HW127686   4.436   7.548   3.848
 9114SOL    HW227687   4.307   7.553   3.748
 9115SOL     OW27688   4.505   7.712   5.473
 9115SOL    HW127689   4.572   7.651   5.516
 9115SOL    HW227690   4.432   7.731   5.538
 9116SOL     OW27691   4.639   7.537   5.126
 9116SOL    HW127692   4.664   7.517   5.031
 9116SOL    HW227693   4.711   7.593   5.168
 9117SOL     OW27694   4.737   7.553   5.494
 9117SOL    HW127695   4.743   7.638   5.442
 9117SOL    HW227696   4.769   7.477   5.437
 9118SOL     OW27697   4.031   7.511   4.342
 9118SOL    HW127698   4.020   7.605   4.375
 9118SOL    HW227699   4.026   7.448   4.419
 9119SOL     OW27700   4.884   7.655   5.201
 9119SOL    HW127701   4.884   7.719   5.278
 9119SOL    HW227702   4.912   7.703   5.118
 9120SOL     OW27703   3.987   7.774   4.444
 9120SOL    HW127704   3.908   7.825   4.410
 9120SOL    HW227705   3.978   7.759   4.542
 9121SOL     OW27706   3.799   7.793   3.757
 9121SOL    HW127707   3.707   7.765   3.728
 9121SOL    HW227708   3.830   7.870   3.701
 9122SOL     OW27709   4.725   7.482   4.878
 9122SOL    HW127710   4.662   7.410   4.847
 9122SOL    HW227711   4.818   7.446   4.878
 9123SOL     OW27712   5.317   7.669   4.606
 9123SOL    HW127713   5.233   7.668   4.660
 9123SOL    HW227714   5.319   7.752   4.550
 9124SOL     OW27715   4.533   7.452   6.088
 9124SOL    HW127716   4.573   7.543   6.079
 9124SOL    HW227717   4.433   7.460   6.094
 9125SOL     OW27718   4.338   7.570   5.703
 9125SOL    HW127719   4.436   7.548   5.710
 9125SOL    HW227720   4.307   7.553   5.610
 9126SOL     OW27721   4.031   7.511   6.204
 9126SOL    HW127722   4.020   7.605   6.237
 9126SOL    HW227723   4.026   7.448   6.281
 9127SOL     OW27724   5.565   7.623   6.549
 9127SOL    HW127725   5.604   7.538   6.513
 9127SOL    HW227726   5.467   7.625   6.530
 9128SOL     OW27727   3.987   7.774   6.306
 9128SOL    HW127728   3.908   7.825   6.272
 9128SOL    HW227729   3.978   7.759   6.404
 9129SOL     OW27730   3.799   7.793   5.619
 9129SOL    HW127731   3.707   7.765   5.590
 9129SOL    HW227732   3.830   7.870   5.563
 9130SOL     OW27733   4.725   7.482   6.740
 9130SOL    HW127734   4.662   7.410   6.709
 9130SOL    HW227735   4.818   7.446   6.740
 9131SOL     OW27736   6.155   1.275   1.165
 9131SOL    HW127737   6.062   1.268   1.128
 9131SOL    HW227738   6.166   1.364   1.209
 9132SOL     OW27739   7.141   1.511   0.703
 9132SOL    HW127740   7.084   1.495   0.784
 9132SOL    HW227741   7.082   1.521   0.623
 9133SOL     OW27742   7.329   0.618   0.856
 9133SOL    HW127743   7.362   0.712   0.856
 9133SOL    HW227744   7.380   0.564   0.922
 9134SOL     OW27745   6.721   0.703   0.717
 9134SOL    HW127746   6.778   0.781   0.692
 9134SOL    HW227747   6.661   0.729   0.793
 9135SOL     OW27748   6.354   1.144   1.023
 9135SOL    HW127749   6.276   1.161   1.083
 9135SOL    HW227750   6.388   1.231   0.987
 9136SOL     OW27751   6.436   0.798   1.823
 9136SOL    HW127752   6.432   0.874   1.888
 9136SOL    HW227753   6.458   0.834   1.732
 9137SOL     OW27754   6.271   1.012   0.665
 9137SOL    HW127755   6.340   0.996   0.735
 9137SOL    HW227756   6.198   1.069   0.703
 9138SOL     OW27757   6.272   1.161   1.803
 9138SOL    HW127758   6.332   1.240   1.817
 9138SOL    HW227759   6.186   1.192   1.762
 9139SOL     OW27760   5.921   1.435   1.061
 9139SOL    HW127761   5.843   1.404   1.008
 9139SOL    HW227762   5.979   1.493   1.004
 9140SOL     OW27763   7.046   1.505   1.339
 9140SOL    HW127764   7.070   1.599   1.365
 9140SOL    HW227765   7.030   1.451   1.421
 9141SOL     OW27766   5.817   1.713   0.483
 9141SOL    HW127767   5.851   1.790   0.537
 9141SOL    HW227768   5.861   1.713   0.393
 9142SOL     OW27769   6.713   1.341   1.690
 9142SOL    HW127770   6.760   1.341   1.778
 9142SOL    HW227771   6.665   1.254   1.679
 9143SOL     OW27772   5.816   1.434   0.538
 9143SOL    HW127773   5.790   1.530   0.538
 9143SOL    HW227774   5.745   1.380   0.583
 9144SOL     OW27775   5.826   1.091   0.886
 9144SOL    HW127776   5.840   1.007   0.938
 9144SOL    HW227777   5.771   1.155   0.941
 9145SOL     OW27778   6.206   1.786   1.439
 9145SOL    HW127779   6.114   1.769   1.474
 9145SOL    HW227780   6.234   1.878   1.465
 9146SOL     OW27781   5.708   0.643   0.563
 9146SOL    HW127782   5.663   0.555   0.580
 9146SOL    HW227783   5.707   0.697   0.647
 9147SOL     OW27784   7.275   0.922   0.612
 9147SOL    HW127785   7.370   0.893   0.620
 9147SOL    HW227786   7.267   0.987   0.537
 9148SOL     OW27787   7.227   1.108   0.432
 9148SOL    HW127788   7.313   1.110   0.380
 9148SOL    HW227789   7.241   1.155   0.520
 9149SOL     OW27790   5.699   0.737   1.597
 9149SOL    HW127791   5.787   0.724   1.642
 9149SOL    HW227792   5.686   0.834   1.575
 9150SOL     OW27793   6.199   1.365   0.726
 9150SOL    HW127794   6.150   1.278   0.735
 9150SOL    HW227795   6.176   1.408   0.639
 9151SOL     OW27796   6.879   1.228   1.423
 9151SOL    HW127797   6.916   1.155   1.365
 9151SOL    HW227798   6.931   1.233   1.508
 9152SOL     OW27799   5.783   0.976   1.264
 9152SOL    HW127800   5.872   0.931   1.250
 9152SOL    HW227801   5.710   0.911   1.245
 9153SOL     OW27802   6.773   1.792   1.616
 9153SOL    HW127803   6.797   1.852   1.540
 9153SOL    HW227804   6.780   1.697   1.586
 9154SOL     OW27805   7.052   1.417   0.953
 9154SOL    HW127806   6.993   1.423   1.033
 9154SOL    HW227807   7.037   1.329   0.907
 9155SOL     OW27808   7.253   1.714   0.572
 9155SOL    HW127809   7.212   1.691   0.484
 9155SOL    HW227810   7.235   1.640   0.637
 9156SOL     OW27811   6.867   0.345   0.944
 9156SOL    HW127812   6.781   0.295   0.931
 9156SOL    HW227813   6.929   0.291   1.000
 9157SOL     OW27814   7.162   1.662   0.307
 9157SOL    HW127815   7.251   1.708   0.310
 9157SOL    HW227816   7.141   1.638   0.212
 9158SOL     OW27817   6.393   0.605   1.465
 9158SOL    HW127818   6.346   0.602   1.554
 9158SOL    HW227819   6.342   0.550   1.399
 9159SOL     OW27820   6.980   0.469   1.674
 9159SOL    HW127821   6.960   0.512   1.762
 9159SOL    HW227822   7.058   0.407   1.683
 9160SOL     OW27823   6.559   0.890   1.572
 9160SOL    HW127824   6.605   0.806   1.543
 9160SOL    HW227825   6.503   0.924   1.497
 9161SOL     OW27826   6.577   0.410   1.242
 9161SOL    HW127827   6.500   0.444   1.296
 9161SOL    HW227828   6.543   0.359   1.163
 9162SOL     OW27829   6.627   0.701   0.429
 9162SOL    HW127830   6.653   0.697   0.525
 9162SOL    HW227831   6.542   0.650   0.415
 9163SOL     OW27832   5.662   0.811   0.789
 9163SOL    HW127833   5.761   0.799   0.798
 9163SOL    HW227834   5.638   0.906   0.810
 9164SOL     OW27835   5.716   1.821   1.571
 9164SOL    HW127836   5.706   1.806   1.670
 9164SOL    HW227837   5.630   1.857   1.535
 9165SOL     OW27838   7.305   0.585   1.831
 9165SOL    HW127839   7.279   0.674   1.795
 9165SOL    HW227840   7.303   0.517   1.758
 9166SOL     OW27841   6.948   1.144   0.545
 9166SOL    HW127842   7.031   1.115   0.497
 9166SOL    HW227843   6.899   1.211   0.489
 9167SOL     OW27844   6.136   0.196   0.885
 9167SOL    HW127845   6.131   0.191   0.985
 9167SOL    HW227846   6.138   0.292   0.856
 9168SOL     OW27847   6.594   1.456   0.477
 9168SOL    HW127848   6.548   1.528   0.425
 9168SOL    HW227849   6.590   1.476   0.575
 9169SOL     OW27850   5.937   1.801   0.853
 9169SOL    HW127851   5.987   1.715   0.859
 9169SOL    HW227852   6.002   1.878   0.850
 9170SOL     OW27853   7.381   1.066   0.873
 9170SOL    HW127854   7.319   1.051   0.797
 9170SOL    HW227855   7.329   1.077   0.958
 9171SOL     OW27856   6.813   1.550   1.506
 9171SOL    HW127857   6.819   1.473   1.570
 9171SOL    HW227858   6.761   1.524   1.426
 9172SOL     OW27859   7.044   0.735   0.728
 9172SOL    HW127860   7.039   0.670   0.803
 9172SOL    HW227861   7.124   0.794   0.741
 9173SOL     OW27862   6.047   1.266   1.727
 9173SOL    HW127863   5.997   1.267   1.641
 9173SOL    HW227864   5.984   1.248   1.803
 9174SOL     OW27865   6.050   1.743   0.323
 9174SOL    HW127866   6.083   1.782   0.409
 9174SOL    HW227867   6.126   1.736   0.258
 9175SOL     OW27868   5.835   1.785   1.241
 9175SOL    HW127869   5.892   1.720   1.291
 9175SOL    HW227870   5.819   1.752   1.148
 9176SOL     OW27871   6.526   1.698   0.904
 9176SOL    HW127872   6.606   1.641   0.925
 9176SOL    HW227873   6.477   1.658   0.827
 9177SOL     OW27874   5.968   0.700   0.480
 9177SOL    HW127875   6.013   0.610   0.477
 9177SOL    HW227876   5.874   0.689   0.513
 9178SOL     OW27877   6.367   0.264   1.749
 9178SOL    HW127878   6.434   0.203   1.792
 9178SOL    HW227879   6.294   0.283   1.814
 9179SOL     OW27880   6.474   1.514   1.195
 9179SOL    HW127881   6.451   1.489   1.101
 9179SOL    HW227882   6.535   1.445   1.234
 9180SOL     OW27883   6.937   0.590   1.433
 9180SOL    HW127884   6.965   0.547   1.518
 9180SOL    HW227885   6.962   0.686   1.434
 9181SOL     OW27886   6.389   1.402   0.924
 9181SOL    HW127887   6.479   1.416   0.882
 9181SOL    HW227888   6.318   1.404   0.853
 9182SOL     OW27889   6.508   0.503   0.899
 9182SOL    HW127890   6.483   0.494   0.803
 9182SOL    HW227891   6.556   0.421   0.930
 9183SOL     OW27892   6.662   0.683   1.464
 9183SOL    HW127893   6.582   0.622   1.467
 9183SOL    HW227894   6.743   0.630   1.440
 9184SOL     OW27895   6.813   1.570   0.793
 9184SOL    HW127896   6.834   1.644   0.728
 9184SOL    HW227897   6.881   1.570   0.866
 9185SOL     OW27898   6.045   1.152   0.741
 9185SOL    HW127899   5.974   1.125   0.806
 9185SOL    HW227900   6.019   1.124   0.648
 9186SOL     OW27901   6.857   1.797   0.591
 9186SOL    HW127902   6.901   1.861   0.527
 9186SOL    HW227903   6.807   1.849   0.661
 9187SOL     OW27904   5.664   0.556   1.386
 9187SOL    HW127905   5.756   0.555   1.345
 9187SOL    HW227906   5.658   0.630   1.453
 9188SOL     OW27907   6.147   0.222   1.147
 9188SOL    HW127908   6.185   0.138   1.184
 9188SOL    HW227909   6.059   0.241   1.191
 9189SOL     OW27910   6.452   0.454   0.642
 9189SOL    HW127911   6.420   0.526   0.580
 9189SOL    HW227912   6.476   0.373   0.589
 9190SOL     OW27913   6.603   0.039   0.753
 9190SOL    HW127914   6.531   0.044   0.684
 9190SOL    HW227915   6.579  -0.030   0.822
 9191SOL     OW27916   7.015   1.173   0.867
 9191SOL    HW127917   6.960   1.089   0.860
 9191SOL    HW227918   7.041   1.202   0.775
 9192SOL     OW27919   7.052   0.590   0.992
 9192SOL    HW127920   7.022   0.495   0.999
 9192SOL    HW227921   7.125   0.606   1.058
 9193SOL     OW27922   7.443   0.833   0.377
 9193SOL    HW127923   7.485   0.769   0.441
 9193SOL    HW227924   7.405   0.782   0.299
 9194SOL     OW27925   7.250   1.280   0.657
 9194SOL    HW127926   7.349   1.288   0.671
 9194SOL    HW227927   7.205   1.364   0.688
 9195SOL     OW27928   7.340   1.223   1.588
 9195SOL    HW127929   7.431   1.184   1.575
 9195SOL    HW227930   7.348   1.319   1.612
 9196SOL     OW27931   6.650   1.347   1.340
 9196SOL    HW127932   6.570   1.324   1.395
 9196SOL    HW227933   6.733   1.321   1.389
 9197SOL     OW27934   7.178   1.629   1.625
 9197SOL    HW127935   7.205   1.663   1.535
 9197SOL    HW227936   7.257   1.591   1.671
 9198SOL     OW27937   6.697   1.195   1.100
 9198SOL    HW127938   6.657   1.239   1.181
 9198SOL    HW227939   6.656   1.232   1.017
 9199SOL     OW27940   7.224   1.099   1.079
 9199SOL    HW127941   7.229   1.180   1.138
 9199SOL    HW227942   7.138   1.101   1.028
 9200SOL     OW27943   6.566   1.116   1.719
 9200SOL    HW127944   6.467   1.122   1.729
 9200SOL    HW227945   6.589   1.036   1.663
 9201SOL     OW27946   6.291   1.050   0.368
 9201SOL    HW127947   6.277   1.057   0.467
 9201SOL    HW227948   6.375   0.999   0.350
 9202SOL     OW27949   5.996   0.813   1.251
 9202SOL    HW127950   6.082   0.825   1.301
 9202SOL    HW227951   5.954   0.726   1.278
 9203SOL     OW27952   6.860   0.386   1.262
 9203SOL    HW127953   6.881   0.460   1.326
 9203SOL    HW227954   6.771   0.403   1.219
 9204SOL     OW27955   5.650   1.564   1.331
 9204SOL    HW127956   5.604   1.646   1.297
 9204SOL    HW227957   5.748   1.583   1.340
 9205SOL     OW27958   5.953   1.100   0.501
 9205SOL    HW127959   5.946   1.183   0.445
 9205SOL    HW227960   5.957   1.020   0.441
 9206SOL     OW27961   6.152   0.537   0.865
 9206SOL    HW127962   6.164   0.603   0.791
 9206SOL    HW227963   6.198   0.571   0.948
 9207SOL     OW27964   6.838   1.348   0.388
 9207SOL    HW127965   6.888   1.425   0.428
 9207SOL    HW227966   6.743   1.350   0.420
 9208SOL     OW27967   6.858   1.445   1.142
 9208SOL    HW127968   6.905   1.458   1.229
 9208SOL    HW227969   6.792   1.371   1.151
 9209SOL     OW27970   7.168   0.639   0.472
 9209SOL    HW127971   7.137   0.700   0.545
 9209SOL    HW227972   7.218   0.691   0.403
 9210SOL     OW27973   5.940   1.510   1.329
 9210SOL    HW127974   5.919   1.466   1.242
 9210SOL    HW227975   6.037   1.536   1.332
 9211SOL     OW27976   5.988   0.751   1.598
 9211SOL    HW127977   6.056   0.806   1.551
 9211SOL    HW227978   6.028   0.663   1.625
 9212SOL     OW27979   7.173   0.779   1.670
 9212SOL    HW127980   7.081   0.817   1.665
 9212SOL    HW227981   7.233   0.826   1.605
 9213SOL     OW27982   6.599   0.105   1.770
 9213SOL    HW127983   6.605   0.190   1.718
 9213SOL    HW227984   6.631   0.029   1.713
 9214SOL     OW27985   6.159   0.870   1.029
 9214SOL    HW127986   6.203   0.959   1.020
 9214SOL    HW227987   6.096   0.870   1.106
 9215SOL     OW27988   5.623   1.310   1.282
 9215SOL    HW127989   5.676   1.261   1.350
 9215SOL    HW227990   5.645   1.408   1.287
 9216SOL     OW27991   6.318   0.634   1.064
 9216SOL    HW127992   6.377   0.608   0.988
 9216SOL    HW227993   6.290   0.730   1.053
 9217SOL     OW27994   7.314   0.935   1.854
 9217SOL    HW127995   7.268   0.928   1.765
 9217SOL    HW227996   7.252   0.979   1.920
 9218SOL     OW27997   6.609   0.766   0.966
 9218SOL    HW127998   6.624   0.787   1.062
 9218SOL    HW227999   6.579   0.671   0.957
 9219SOL     OW28000   6.566   1.573   1.700
 9219SOL    HW128001   6.546   1.617   1.612
 9219SOL    HW228002   6.605   1.482   1.684
 9220SOL     OW28003   7.445   1.518   1.605
 9220SOL    HW128004   7.459   1.545   1.510
 9220SOL    HW228005   7.528   1.540   1.658
 9221SOL     OW28006   5.936   0.898   1.804
 9221SOL    HW128007   6.012   0.942   1.852
 9221SOL    HW228008   5.971   0.851   1.722
 9222SOL     OW28009   6.654   1.333   0.849
 9222SOL    HW128010   6.661   1.249   0.794
 9222SOL    HW228011   6.716   1.402   0.813
 9223SOL     OW28012   5.905   0.810   0.949
 9223SOL    HW128013   5.998   0.846   0.954
 9223SOL    HW228014   5.899   0.725   1.001
 9224SOL     OW28015   5.925   0.509   1.006
 9224SOL    HW128016   5.873   0.426   0.989
 9224SOL    HW228017   6.002   0.514   0.942
 9225SOL     OW28018   6.097   0.415   1.808
 9225SOL    HW128019   6.079   0.460   1.896
 9225SOL    HW228020   6.139   0.480   1.745
 9226SOL     OW28021   6.724   0.380   1.678
 9226SOL    HW128022   6.679   0.443   1.742
 9226SOL    HW228023   6.817   0.411   1.661
 9227SOL     OW28024   6.746   0.207   1.477
 9227SOL    HW128025   6.746   0.271   1.554
 9227SOL    HW228026   6.774   0.255   1.394
 9228SOL     OW28027   5.674   1.801   0.927
 9228SOL    HW128028   5.632   1.715   0.900
 9228SOL    HW228029   5.768   1.804   0.893
 9229SOL     OW28030   6.090   1.568   0.910
 9229SOL    HW128031   6.156   1.642   0.919
 9229SOL    HW228032   6.134   1.489   0.868
 9230SOL     OW28033   6.588   0.796   1.238
 9230SOL    HW128034   6.629   0.764   1.324
 9230SOL    HW228035   6.492   0.769   1.235
 9231SOL     OW28036   5.626   0.544   1.114
 9231SOL    HW128037   5.711   0.511   1.073
 9231SOL    HW228038   5.639   0.559   1.212
 9232SOL     OW28039   5.775   0.520   1.722
 9232SOL    HW128040   5.834   0.480   1.652
 9232SOL    HW228041   5.717   0.591   1.681
 9233SOL     OW28042   6.955   0.950   1.660
 9233SOL    HW128043   6.994   1.039   1.680
 9233SOL    HW228044   6.965   0.930   1.563
 9234SOL     OW28045   7.243   0.604   1.206
 9234SOL    HW128046   7.205   0.535   1.268
 9234SOL    HW228047   7.325   0.568   1.162
 9235SOL     OW28048   5.838   1.564   1.744
 9235SOL    HW128049   5.808   1.621   1.820
 9235SOL    HW228050   5.831   1.467   1.770
 9236SOL     OW28051   6.257   0.464   1.269
 9236SOL    HW128052   6.223   0.375   1.239
 9236SOL    HW228053   6.283   0.518   1.189
 9237SOL     OW28054   6.516   1.678   1.465
 9237SOL    HW128055   6.492   1.660   1.370
 9237SOL    HW228056   6.546   1.772   1.475
 9238SOL     OW28057   5.745   1.137   1.466
 9238SOL    HW128058   5.767   1.076   1.542
 9238SOL    HW228059   5.755   1.088   1.380
 9239SOL     OW28060   6.933   1.059   1.234
 9239SOL    HW128061   6.957   0.996   1.160
 9239SOL    HW228062   6.843   1.099   1.216
 9240SOL     OW28063   7.345   1.747   1.154
 9240SOL    HW128064   7.406   1.777   1.081
 9240SOL    HW228065   7.307   1.658   1.132
 9241SOL     OW28066   6.838   1.731   1.128
 9241SOL    HW128067   6.922   1.736   1.074
 9241SOL    HW228068   6.815   1.635   1.146
 9242SOL     OW28069   5.669   1.258   1.022
 9242SOL    HW128070   5.664   1.257   1.122
 9242SOL    HW228071   5.586   1.217   0.984
 9243SOL     OW28072   6.274   1.662   1.716
 9243SOL    HW128073   6.218   1.743   1.725
 9243SOL    HW228074   6.326   1.666   1.630
 9244SOL     OW28075   7.312   0.135   0.523
 9244SOL    HW128076   7.385   0.118   0.456
 9244SOL    HW228077   7.281   0.048   0.561
 9245SOL     OW28078   6.974   1.573   0.477
 9245SOL    HW128079   7.041   1.585   0.403
 9245SOL    HW228080   6.934   1.662   0.500
 9246SOL     OW28081   5.716   1.794   1.851
 9246SOL    HW128082   5.675   1.720   1.904
 9246SOL    HW228083   5.780   1.845   1.909
 9247SOL     OW28084   6.866   0.927   0.672
 9247SOL    HW128085   6.926   0.846   0.674
 9247SOL    HW228086   6.906   0.996   0.612
 9248SOL     OW28087   6.416   1.273   1.422
 9248SOL    HW128088   6.411   1.306   1.517
 9248SOL    HW228089   6.330   1.292   1.376
 9249SOL     OW28090   7.236   1.720   1.394
 9249SOL    HW128091   7.289   1.730   1.310
 9249SOL    HW228092   7.209   1.810   1.428
 9250SOL     OW28093   6.408   1.002   1.372
 9250SOL    HW128094   6.448   1.001   1.280
 9250SOL    HW228095   6.418   1.094   1.412
 9251SOL     OW28096   6.502   0.910   0.291
 9251SOL    HW128097   6.565   0.948   0.223
 9251SOL    HW228098   6.542   0.827   0.330
 9252SOL     OW28099   5.958   1.288   1.490
 9252SOL    HW128100   5.945   1.381   1.456
 9252SOL    HW228101   5.874   1.236   1.477
 9253SOL     OW28102   7.200   1.292   1.289
 9253SOL    HW128103   7.260   1.295   1.369
 9253SOL    HW228104   7.125   1.356   1.302
 9254SOL     OW28105   6.625   1.098   0.696
 9254SOL    HW128106   6.555   1.051   0.750
 9254SOL    HW228107   6.684   1.030   0.653
 9255SOL     OW28108   6.176   1.487   0.491
 9255SOL    HW128109   6.218   1.429   0.421
 9255SOL    HW228110   6.132   1.566   0.447
 9256SOL     OW28111   7.295   0.385   1.381
 9256SOL    HW128112   7.368   0.454   1.385
 9256SOL    HW228113   7.323   0.310   1.322
 9257SOL     OW28114   5.691   1.013   1.726
 9257SOL    HW128115   5.614   0.980   1.780
 9257SOL    HW228116   5.776   0.983   1.768
 9258SOL     OW28117   7.026   0.856   1.398
 9258SOL    HW128118   6.969   0.908   1.335
 9258SOL    HW228119   7.122   0.868   1.374
 9259SOL     OW28120   6.199   0.842   1.431
 9259SOL    HW128121   6.255   0.923   1.414
 9259SOL    HW228122   6.258   0.762   1.434
 9260SOL     OW28123   7.079   1.767   0.959
 9260SOL    HW128124   7.112   1.831   0.890
 9260SOL    HW228125   7.145   1.761   1.034
 9261SOL     OW28126   6.302   0.565   1.708
 9261SOL    HW128127   6.321   0.630   1.782
 9261SOL    HW228128   6.362   0.485   1.717
 9262SOL     OW28129   7.036   1.220   1.633
 9262SOL    HW128130   7.027   1.210   1.732
 9262SOL    HW228131   7.132   1.213   1.607
 9263SOL     OW28132   5.976   1.741   1.560
 9263SOL    HW128133   5.885   1.782   1.558
 9263SOL    HW228134   5.969   1.647   1.592
 9264SOL     OW28135   7.260   0.883   1.254
 9264SOL    HW128136   7.233   0.794   1.217
 9264SOL    HW228137   7.261   0.951   1.181
 9265SOL     OW28138   6.180   0.745   0.652
 9265SOL    HW128139   6.230   0.830   0.633
 9265SOL    HW228140   6.092   0.747   0.604
 9266SOL     OW28141   7.316   0.934   1.517
 9266SOL    HW128142   7.354   1.025   1.532
 9266SOL    HW228143   7.308   0.917   1.418
 9267SOL     OW28144   6.247   1.790   0.953
 9267SOL    HW128145   6.201   1.878   0.940
 9267SOL    HW228146   6.346   1.802   0.946
 9268SOL     OW28147   6.445   0.956   0.861
 9268SOL    HW128148   6.499   0.887   0.909
 9268SOL    HW228149   6.413   1.025   0.927
 9269SOL     OW28150   7.447   1.569   0.851
 9269SOL    HW128151   7.376   1.557   0.781
 9269SOL    HW228152   7.448   1.490   0.911
 9270SOL     OW28153   5.807   1.314   1.844
 9270SOL    HW128154   5.742   1.241   1.823
 9270SOL    HW228155   5.811   1.328   1.942
 9271SOL     OW28156   5.665   1.240   0.653
 9271SOL    HW128157   5.664   1.193   0.741
 9271SOL    HW228158   5.747   1.212   0.602
 9272SOL     OW28159   6.258   1.391   1.624
 9272SOL    HW128160   6.180   1.341   1.662
 9272SOL    HW228161   6.255   1.486   1.655
 9273SOL     OW28162   6.014   0.424   0.520
 9273SOL    HW128163   6.044   0.352   0.458
 9273SOL    HW228164   5.975   0.384   0.603
 9274SOL     OW28165   7.291   1.487   1.104
 9274SOL    HW128166   7.198   1.462   1.077
 9274SOL    HW228167   7.317   1.437   1.186
 9275SOL     OW28168   5.903   0.547   1.280
 9275SOL    HW128169   5.941   0.488   1.352
 9275SOL    HW228170   5.943   0.521   1.192
 9276SOL     OW28171   6.398   1.586   0.687
 9276SOL    HW128172   6.430   1.596   0.593
 9276SOL    HW228173   6.319   1.524   0.689
 9277SOL     OW28174   6.204   1.567   1.284
 9277SOL    HW128175   6.199   1.649   1.341
 9277SOL    HW228176   6.293   1.564   1.239
 9278SOL     OW28177   6.886   0.453   0.691
 9278SOL    HW128178   6.827   0.533   0.695
 9278SOL    HW228179   6.901   0.418   0.784
 9279SOL     OW28180   5.816   0.628   1.975
 9279SOL    HW128181   5.723   0.626   2.012
 9279SOL    HW228182   5.817   0.589   1.883
 9280SOL     OW28183   6.155   1.275   3.027
 9280SOL    HW128184   6.062   1.268   2.990
 9280SOL    HW228185   6.166   1.364   3.071
 9281SOL     OW28186   7.141   1.511   2.565
 9281SOL    HW128187   7.084   1.495   2.646
 9281SOL    HW228188   7.082   1.521   2.485
 9282SOL     OW28189   7.329   0.618   2.718
 9282SOL    HW128190   7.362   0.712   2.718
 9282SOL    HW228191   7.380   0.564   2.784
 9283SOL     OW28192   6.721   0.703   2.579
 9283SOL    HW128193   6.778   0.781   2.554
 9283SOL    HW228194   6.661   0.729   2.655
 9284SOL     OW28195   7.341   0.607   2.093
 9284SOL    HW128196   7.329   0.594   1.994
 9284SOL    HW228197   7.311   0.526   2.142
 9285SOL     OW28198   6.354   1.144   2.885
 9285SOL    HW128199   6.276   1.161   2.945
 9285SOL    HW228200   6.388   1.231   2.849
 9286SOL     OW28201   6.436   0.798   3.685
 9286SOL    HW128202   6.432   0.874   3.750
 9286SOL    HW228203   6.458   0.834   3.594
 9287SOL     OW28204   6.271   1.012   2.527
 9287SOL    HW128205   6.340   0.996   2.597
 9287SOL    HW228206   6.198   1.069   2.565
 9288SOL     OW28207   6.272   1.161   3.665
 9288SOL    HW128208   6.332   1.240   3.679
 9288SOL    HW228209   6.186   1.192   3.624
 9289SOL     OW28210   5.921   1.435   2.923
 9289SOL    HW128211   5.843   1.404   2.870
 9289SOL    HW228212   5.979   1.493   2.866
 9290SOL     OW28213   7.046   1.505   3.201
 9290SOL    HW128214   7.070   1.599   3.227
 9290SOL    HW228215   7.030   1.451   3.283
 9291SOL     OW28216   5.817   1.713   2.345
 9291SOL    HW128217   5.851   1.790   2.399
 9291SOL    HW228218   5.861   1.713   2.255
 9292SOL     OW28219   6.713   1.341   3.552
 9292SOL    HW128220   6.760   1.341   3.640
 9292SOL    HW228221   6.665   1.254   3.541
 9293SOL     OW28222   5.816   1.434   2.400
 9293SOL    HW128223   5.790   1.530   2.400
 9293SOL    HW228224   5.745   1.380   2.445
 9294SOL     OW28225   5.826   1.091   2.748
 9294SOL    HW128226   5.840   1.007   2.800
 9294SOL    HW228227   5.771   1.155   2.803
 9295SOL     OW28228   6.206   1.786   3.301
 9295SOL    HW128229   6.114   1.769   3.336
 9295SOL    HW228230   6.234   1.878   3.327
 9296SOL     OW28231   6.192   0.964   1.985
 9296SOL    HW128232   6.199   1.048   1.931
 9296SOL    HW228233   6.238   0.977   2.073
 9297SOL     OW28234   5.708   0.643   2.425
 9297SOL    HW128235   5.663   0.555   2.442
 9297SOL    HW228236   5.707   0.697   2.509
 9298SOL     OW28237   7.428   1.767   2.221
 9298SOL    HW128238   7.482   1.738   2.301
 9298SOL    HW228239   7.458   1.857   2.192
 9299SOL     OW28240   5.613   1.596   1.979
 9299SOL    HW128241   5.594   1.500   2.000
 9299SOL    HW228242   5.580   1.654   2.054
 9300SOL     OW28243   7.275   0.922   2.474
 9300SOL    HW128244   7.370   0.893   2.482
 9300SOL    HW228245   7.267   0.987   2.399
 9301SOL     OW28246   7.227   1.108   2.294
 9301SOL    HW128247   7.313   1.110   2.242
 9301SOL    HW228248   7.241   1.155   2.382
 9302SOL     OW28249   5.699   0.737   3.459
 9302SOL    HW128250   5.787   0.724   3.504
 9302SOL    HW228251   5.686   0.834   3.437
 9303SOL     OW28252   6.199   1.365   2.588
 9303SOL    HW128253   6.150   1.278   2.597
 9303SOL    HW228254   6.176   1.408   2.501
 9304SOL     OW28255   6.879   1.228   3.285
 9304SOL    HW128256   6.916   1.155   3.227
 9304SOL    HW228257   6.931   1.233   3.370
 9305SOL     OW28258   5.783   0.976   3.126
 9305SOL    HW128259   5.872   0.931   3.112
 9305SOL    HW228260   5.710   0.911   3.107
 9306SOL     OW28261   7.111   0.999   2.052
 9306SOL    HW128262   7.048   0.923   2.065
 9306SOL    HW228263   7.159   1.017   2.138
 9307SOL     OW28264   6.773   1.792   3.478
 9307SOL    HW128265   6.797   1.852   3.402
 9307SOL    HW228266   6.780   1.697   3.448
 9308SOL     OW28267   7.052   1.417   2.815
 9308SOL    HW128268   6.993   1.423   2.895
 9308SOL    HW228269   7.037   1.329   2.769
 9309SOL     OW28270   7.253   1.714   2.434
 9309SOL    HW128271   7.212   1.691   2.346
 9309SOL    HW228272   7.235   1.640   2.499
 9310SOL     OW28273   6.184   0.729   2.132
 9310SOL    HW128274   6.208   0.798   2.064
 9310SOL    HW228275   6.106   0.762   2.186
 9311SOL     OW28276   6.867   0.345   2.806
 9311SOL    HW128277   6.781   0.295   2.793
 9311SOL    HW228278   6.929   0.291   2.862
 9312SOL     OW28279   7.162   1.662   2.169
 9312SOL    HW128280   7.251   1.708   2.172
 9312SOL    HW228281   7.141   1.638   2.074
 9313SOL     OW28282   6.393   0.605   3.327
 9313SOL    HW128283   6.346   0.602   3.416
 9313SOL    HW228284   6.342   0.550   3.261
 9314SOL     OW28285   6.980   0.469   3.536
 9314SOL    HW128286   6.960   0.512   3.624
 9314SOL    HW228287   7.058   0.407   3.545
 9315SOL     OW28288   6.559   0.890   3.434
 9315SOL    HW128289   6.605   0.806   3.405
 9315SOL    HW228290   6.503   0.924   3.359
 9316SOL     OW28291   6.577   0.410   3.104
 9316SOL    HW128292   6.500   0.444   3.158
 9316SOL    HW228293   6.543   0.359   3.025
 9317SOL     OW28294   6.627   0.701   2.291
 9317SOL    HW128295   6.653   0.697   2.387
 9317SOL    HW228296   6.542   0.650   2.277
 9318SOL     OW28297   5.662   0.811   2.651
 9318SOL    HW128298   5.761   0.799   2.660
 9318SOL    HW228299   5.638   0.906   2.672
 9319SOL     OW28300   5.716   1.821   3.433
 9319SOL    HW128301   5.706   1.806   3.532
 9319SOL    HW228302   5.630   1.857   3.397
 9320SOL     OW28303   6.451   0.348   2.057
 9320SOL    HW128304   6.510   0.411   2.008
 9320SOL    HW228305   6.470   0.254   2.028
 9321SOL     OW28306   7.305   0.585   3.693
 9321SOL    HW128307   7.279   0.674   3.657
 9321SOL    HW228308   7.303   0.517   3.620
 9322SOL     OW28309   6.948   1.144   2.407
 9322SOL    HW128310   7.031   1.115   2.359
 9322SOL    HW228311   6.899   1.211   2.351
 9323SOL     OW28312   6.136   0.196   2.747
 9323SOL    HW128313   6.131   0.191   2.847
 9323SOL    HW228314   6.138   0.292   2.718
 9324SOL     OW28315   6.594   1.456   2.339
 9324SOL    HW128316   6.548   1.528   2.287
 9324SOL    HW228317   6.590   1.476   2.437
 9325SOL     OW28318   5.937   1.801   2.715
 9325SOL    HW128319   5.987   1.715   2.721
 9325SOL    HW228320   6.002   1.878   2.712
 9326SOL     OW28321   7.381   1.066   2.735
 9326SOL    HW128322   7.319   1.051   2.659
 9326SOL    HW228323   7.329   1.077   2.820
 9327SOL     OW28324   6.813   1.550   3.368
 9327SOL    HW128325   6.819   1.473   3.432
 9327SOL    HW228326   6.761   1.524   3.288
 9328SOL     OW28327   5.907   0.943   2.104
 9328SOL    HW128328   5.989   0.982   2.062
 9328SOL    HW228329   5.880   0.861   2.055
 9329SOL     OW28330   7.044   0.735   2.590
 9329SOL    HW128331   7.039   0.670   2.665
 9329SOL    HW228332   7.124   0.794   2.603
 9330SOL     OW28333   6.047   1.266   3.589
 9330SOL    HW128334   5.997   1.267   3.503
 9330SOL    HW228335   5.984   1.248   3.665
 9331SOL     OW28336   6.697   1.776   2.099
 9331SOL    HW128337   6.637   1.714   2.149
 9331SOL    HW228338   6.728   1.732   2.014
 9332SOL     OW28339   7.218   1.377   1.943
 9332SOL    HW128340   7.186   1.471   1.933
 9332SOL    HW228341   7.142   1.314   1.931
 9333SOL     OW28342   6.050   1.743   2.185
 9333SOL    HW128343   6.083   1.782   2.271
 9333SOL    HW228344   6.126   1.736   2.120
 9334SOL     OW28345   5.835   1.785   3.103
 9334SOL    HW128346   5.892   1.720   3.153
 9334SOL    HW228347   5.819   1.752   3.010
 9335SOL     OW28348   6.526   1.698   2.766
 9335SOL    HW128349   6.606   1.641   2.787
 9335SOL    HW228350   6.477   1.658   2.689
 9336SOL     OW28351   5.968   0.700   2.342
 9336SOL    HW128352   6.013   0.610   2.339
 9336SOL    HW228353   5.874   0.689   2.375
 9337SOL     OW28354   6.367   0.264   3.611
 9337SOL    HW128355   6.434   0.203   3.654
 9337SOL    HW228356   6.294   0.283   3.676
 9338SOL     OW28357   6.474   1.514   3.057
 9338SOL    HW128358   6.451   1.489   2.963
 9338SOL    HW228359   6.535   1.445   3.096
 9339SOL     OW28360   6.937   0.590   3.295
 9339SOL    HW128361   6.965   0.547   3.380
 9339SOL    HW228362   6.962   0.686   3.296
 9340SOL     OW28363   6.389   1.402   2.786
 9340SOL    HW128364   6.479   1.416   2.744
 9340SOL    HW228365   6.318   1.404   2.715
 9341SOL     OW28366   6.508   0.503   2.761
 9341SOL    HW128367   6.483   0.494   2.665
 9341SOL    HW228368   6.556   0.421   2.792
 9342SOL     OW28369   7.020   1.188   1.903
 9342SOL    HW128370   7.052   1.112   1.960
 9342SOL    HW228371   6.928   1.215   1.933
 9343SOL     OW28372   6.662   0.683   3.326
 9343SOL    HW128373   6.582   0.622   3.329
 9343SOL    HW228374   6.743   0.630   3.302
 9344SOL     OW28375   6.813   1.570   2.655
 9344SOL    HW128376   6.834   1.644   2.590
 9344SOL    HW228377   6.881   1.570   2.728
 9345SOL     OW28378   6.045   1.152   2.603
 9345SOL    HW128379   5.974   1.125   2.668
 9345SOL    HW228380   6.019   1.124   2.510
 9346SOL     OW28381   6.857   1.797   2.453
 9346SOL    HW128382   6.901   1.861   2.389
 9346SOL    HW228383   6.807   1.849   2.523
 9347SOL     OW28384   6.618   0.549   1.878
 9347SOL    HW128385   6.577   0.631   1.839
 9347SOL    HW228386   6.682   0.575   1.951
 9348SOL     OW28387   5.664   0.556   3.248
 9348SOL    HW128388   5.756   0.555   3.207
 9348SOL    HW228389   5.658   0.630   3.315
 9349SOL     OW28390   6.147   0.222   3.009
 9349SOL    HW128391   6.185   0.138   3.046
 9349SOL    HW228392   6.059   0.241   3.053
 9350SOL     OW28393   6.452   0.454   2.504
 9350SOL    HW128394   6.420   0.526   2.442
 9350SOL    HW228395   6.476   0.373   2.451
 9351SOL     OW28396   6.603   0.039   2.615
 9351SOL    HW128397   6.531   0.044   2.546
 9351SOL    HW228398   6.579  -0.030   2.684
 9352SOL     OW28399   7.015   1.173   2.729
 9352SOL    HW128400   6.960   1.089   2.722
 9352SOL    HW228401   7.041   1.202   2.637
 9353SOL     OW28402   7.052   0.590   2.854
 9353SOL    HW128403   7.022   0.495   2.861
 9353SOL    HW228404   7.125   0.606   2.920
 9354SOL     OW28405   7.443   0.833   2.239
 9354SOL    HW128406   7.485   0.769   2.303
 9354SOL    HW228407   7.405   0.782   2.161
 9355SOL     OW28408   6.074   1.385   2.036
 9355SOL    HW128409   5.987   1.370   2.083
 9355SOL    HW228410   6.057   1.411   1.941
 9356SOL     OW28411   7.250   1.280   2.519
 9356SOL    HW128412   7.349   1.288   2.533
 9356SOL    HW228413   7.205   1.364   2.550
 9357SOL     OW28414   6.976   0.575   1.940
 9357SOL    HW128415   6.922   0.554   2.021
 9357SOL    HW228416   7.067   0.534   1.949
 9358SOL     OW28417   7.340   1.223   3.450
 9358SOL    HW128418   7.431   1.184   3.437
 9358SOL    HW228419   7.348   1.319   3.474
 9359SOL     OW28420   6.650   1.347   3.202
 9359SOL    HW128421   6.570   1.324   3.257
 9359SOL    HW228422   6.733   1.321   3.251
 9360SOL     OW28423   7.178   1.629   3.487
 9360SOL    HW128424   7.205   1.663   3.397
 9360SOL    HW228425   7.257   1.591   3.533
 9361SOL     OW28426   6.697   1.195   2.962
 9361SOL    HW128427   6.657   1.239   3.043
 9361SOL    HW228428   6.656   1.232   2.879
 9362SOL     OW28429   7.224   1.099   2.941
 9362SOL    HW128430   7.229   1.180   3.000
 9362SOL    HW228431   7.138   1.101   2.890
 9363SOL     OW28432   6.566   1.116   3.581
 9363SOL    HW128433   6.467   1.122   3.591
 9363SOL    HW228434   6.589   1.036   3.525
 9364SOL     OW28435   6.291   1.050   2.230
 9364SOL    HW128436   6.277   1.057   2.329
 9364SOL    HW228437   6.375   0.999   2.212
 9365SOL     OW28438   5.996   0.813   3.113
 9365SOL    HW128439   6.082   0.825   3.163
 9365SOL    HW228440   5.954   0.726   3.140
 9366SOL     OW28441   6.860   0.386   3.124
 9366SOL    HW128442   6.881   0.460   3.188
 9366SOL    HW228443   6.771   0.403   3.081
 9367SOL     OW28444   5.650   1.564   3.193
 9367SOL    HW128445   5.604   1.646   3.159
 9367SOL    HW228446   5.748   1.583   3.202
 9368SOL     OW28447   5.953   1.100   2.363
 9368SOL    HW128448   5.946   1.183   2.307
 9368SOL    HW228449   5.957   1.020   2.303
 9369SOL     OW28450   6.152   0.537   2.727
 9369SOL    HW128451   6.164   0.603   2.653
 9369SOL    HW228452   6.198   0.571   2.810
 9370SOL     OW28453   6.838   1.348   2.250
 9370SOL    HW128454   6.888   1.425   2.290
 9370SOL    HW228455   6.743   1.350   2.282
 9371SOL     OW28456   6.858   1.445   3.004
 9371SOL    HW128457   6.905   1.458   3.091
 9371SOL    HW228458   6.792   1.371   3.013
 9372SOL     OW28459   7.168   0.639   2.334
 9372SOL    HW128460   7.137   0.700   2.407
 9372SOL    HW228461   7.218   0.691   2.265
 9373SOL     OW28462   5.940   1.510   3.191
 9373SOL    HW128463   5.919   1.466   3.104
 9373SOL    HW228464   6.037   1.536   3.194
 9374SOL     OW28465   5.988   0.751   3.460
 9374SOL    HW128466   6.056   0.806   3.413
 9374SOL    HW228467   6.028   0.663   3.487
 9375SOL     OW28468   7.173   0.779   3.532
 9375SOL    HW128469   7.081   0.817   3.527
 9375SOL    HW228470   7.233   0.826   3.467
 9376SOL     OW28471   6.599   0.105   3.632
 9376SOL    HW128472   6.605   0.190   3.580
 9376SOL    HW228473   6.631   0.029   3.575
 9377SOL     OW28474   6.159   0.870   2.891
 9377SOL    HW128475   6.203   0.959   2.882
 9377SOL    HW228476   6.096   0.870   2.968
 9378SOL     OW28477   6.946   0.862   2.907
 9378SOL    HW128478   6.871   0.862   2.841
 9378SOL    HW228479   6.983   0.770   2.916
 9379SOL     OW28480   6.795   0.525   2.137
 9379SOL    HW128481   6.808   0.441   2.191
 9379SOL    HW228482   6.766   0.599   2.197
 9380SOL     OW28483   5.623   1.310   3.144
 9380SOL    HW128484   5.676   1.261   3.212
 9380SOL    HW228485   5.645   1.408   3.149
 9381SOL     OW28486   6.318   0.634   2.926
 9381SOL    HW128487   6.377   0.608   2.850
 9381SOL    HW228488   6.290   0.730   2.915
 9382SOL     OW28489   7.314   0.935   3.716
 9382SOL    HW128490   7.268   0.928   3.627
 9382SOL    HW228491   7.252   0.979   3.782
 9383SOL     OW28492   7.208   0.367   2.236
 9383SOL    HW128493   7.210   0.291   2.300
 9383SOL    HW228494   7.160   0.444   2.276
 9384SOL     OW28495   6.609   0.766   2.828
 9384SOL    HW128496   6.624   0.787   2.924
 9384SOL    HW228497   6.579   0.671   2.819
 9385SOL     OW28498   6.566   1.573   3.562
 9385SOL    HW128499   6.546   1.617   3.474
 9385SOL    HW228500   6.605   1.482   3.546
 9386SOL     OW28501   7.445   1.518   3.467
 9386SOL    HW128502   7.459   1.545   3.372
 9386SOL    HW228503   7.528   1.540   3.520
 9387SOL     OW28504   5.936   0.898   3.666
 9387SOL    HW128505   6.012   0.942   3.714
 9387SOL    HW228506   5.971   0.851   3.584
 9388SOL     OW28507   6.889   0.838   1.904
 9388SOL    HW128508   6.923   0.745   1.919
 9388SOL    HW228509   6.907   0.865   1.809
 9389SOL     OW28510   6.654   1.333   2.711
 9389SOL    HW128511   6.661   1.249   2.656
 9389SOL    HW228512   6.716   1.402   2.675
 9390SOL     OW28513   5.905   0.810   2.811
 9390SOL    HW128514   5.998   0.846   2.816
 9390SOL    HW228515   5.899   0.725   2.863
 9391SOL     OW28516   5.925   0.509   2.868
 9391SOL    HW128517   5.873   0.426   2.851
 9391SOL    HW228518   6.002   0.514   2.804
 9392SOL     OW28519   6.097   0.415   3.670
 9392SOL    HW128520   6.079   0.460   3.758
 9392SOL    HW228521   6.139   0.480   3.607
 9393SOL     OW28522   6.724   0.380   3.540
 9393SOL    HW128523   6.679   0.443   3.604
 9393SOL    HW228524   6.817   0.411   3.523
 9394SOL     OW28525   6.746   0.207   3.339
 9394SOL    HW128526   6.746   0.271   3.416
 9394SOL    HW228527   6.774   0.255   3.256
 9395SOL     OW28528   5.594   1.326   2.062
 9395SOL    HW128529   5.501   1.347   2.031
 9395SOL    HW228530   5.604   1.227   2.075
 9396SOL     OW28531   5.674   1.801   2.789
 9396SOL    HW128532   5.632   1.715   2.762
 9396SOL    HW228533   5.768   1.804   2.755
 9397SOL     OW28534   6.090   1.568   2.772
 9397SOL    HW128535   6.156   1.642   2.781
 9397SOL    HW228536   6.134   1.489   2.730
 9398SOL     OW28537   6.588   0.796   3.100
 9398SOL    HW128538   6.629   0.764   3.186
 9398SOL    HW228539   6.492   0.769   3.097
 9399SOL     OW28540   5.626   0.544   2.976
 9399SOL    HW128541   5.711   0.511   2.935
 9399SOL    HW228542   5.639   0.559   3.074
 9400SOL     OW28543   5.775   0.520   3.584
 9400SOL    HW128544   5.834   0.480   3.514
 9400SOL    HW228545   5.717   0.591   3.543
 9401SOL     OW28546   6.955   0.950   3.522
 9401SOL    HW128547   6.994   1.039   3.542
 9401SOL    HW228548   6.965   0.930   3.425
 9402SOL     OW28549   6.401   0.572   2.187
 9402SOL    HW128550   6.408   0.483   2.141
 9402SOL    HW228551   6.307   0.606   2.179
 9403SOL     OW28552   7.243   0.604   3.068
 9403SOL    HW128553   7.205   0.535   3.130
 9403SOL    HW228554   7.325   0.568   3.024
 9404SOL     OW28555   5.838   1.564   3.606
 9404SOL    HW128556   5.808   1.621   3.682
 9404SOL    HW228557   5.831   1.467   3.632
 9405SOL     OW28558   6.257   0.464   3.131
 9405SOL    HW128559   6.223   0.375   3.101
 9405SOL    HW228560   6.283   0.518   3.051
 9406SOL     OW28561   6.516   1.678   3.327
 9406SOL    HW128562   6.492   1.660   3.232
 9406SOL    HW228563   6.546   1.772   3.337
 9407SOL     OW28564   6.059   0.500   2.053
 9407SOL    HW128565   6.120   0.580   2.057
 9407SOL    HW228566   5.964   0.531   2.060
 9408SOL     OW28567   5.745   1.137   3.328
 9408SOL    HW128568   5.767   1.076   3.404
 9408SOL    HW228569   5.755   1.088   3.242
 9409SOL     OW28570   6.933   1.059   3.096
 9409SOL    HW128571   6.957   0.996   3.022
 9409SOL    HW228572   6.843   1.099   3.078
 9410SOL     OW28573   6.888   0.855   2.171
 9410SOL    HW128574   6.802   0.824   2.213
 9410SOL    HW228575   6.884   0.841   2.072
 9411SOL     OW28576   7.345   1.747   3.016
 9411SOL    HW128577   7.406   1.777   2.943
 9411SOL    HW228578   7.307   1.658   2.994
 9412SOL     OW28579   6.838   1.731   2.990
 9412SOL    HW128580   6.922   1.736   2.936
 9412SOL    HW228581   6.815   1.635   3.008
 9413SOL     OW28582   5.669   1.258   2.884
 9413SOL    HW128583   5.664   1.257   2.984
 9413SOL    HW228584   5.586   1.217   2.846
 9414SOL     OW28585   6.274   1.662   3.578
 9414SOL    HW128586   6.218   1.743   3.587
 9414SOL    HW228587   6.326   1.666   3.492
 9415SOL     OW28588   7.312   0.135   2.385
 9415SOL    HW128589   7.385   0.118   2.318
 9415SOL    HW228590   7.281   0.048   2.423
 9416SOL     OW28591   6.974   1.573   2.339
 9416SOL    HW128592   7.041   1.585   2.265
 9416SOL    HW228593   6.934   1.662   2.362
 9417SOL     OW28594   5.716   1.794   3.713
 9417SOL    HW128595   5.675   1.720   3.766
 9417SOL    HW228596   5.780   1.845   3.771
 9418SOL     OW28597   6.866   0.927   2.534
 9418SOL    HW128598   6.926   0.846   2.536
 9418SOL    HW228599   6.906   0.996   2.474
 9419SOL     OW28600   6.416   1.273   3.284
 9419SOL    HW128601   6.411   1.306   3.379
 9419SOL    HW228602   6.330   1.292   3.238
 9420SOL     OW28603   6.258   1.616   2.016
 9420SOL    HW128604   6.267   1.626   1.917
 9420SOL    HW228605   6.218   1.527   2.037
 9421SOL     OW28606   7.236   1.720   3.256
 9421SOL    HW128607   7.289   1.730   3.172
 9421SOL    HW228608   7.209   1.810   3.290
 9422SOL     OW28609   6.780   1.612   1.893
 9422SOL    HW128610   6.786   1.519   1.930
 9422SOL    HW228611   6.721   1.612   1.813
 9423SOL     OW28612   6.408   1.002   3.234
 9423SOL    HW128613   6.448   1.001   3.142
 9423SOL    HW228614   6.418   1.094   3.274
 9424SOL     OW28615   6.502   0.910   2.153
 9424SOL    HW128616   6.565   0.948   2.085
 9424SOL    HW228617   6.542   0.827   2.192
 9425SOL     OW28618   7.090   1.607   1.906
 9425SOL    HW128619   6.998   1.644   1.913
 9425SOL    HW228620   7.128   1.627   1.816
 9426SOL     OW28621   5.958   1.288   3.352
 9426SOL    HW128622   5.945   1.381   3.318
 9426SOL    HW228623   5.874   1.236   3.339
 9427SOL     OW28624   7.200   1.292   3.151
 9427SOL    HW128625   7.260   1.295   3.231
 9427SOL    HW228626   7.125   1.356   3.164
 9428SOL     OW28627   6.625   1.098   2.558
 9428SOL    HW128628   6.555   1.051   2.612
 9428SOL    HW228629   6.684   1.030   2.515
 9429SOL     OW28630   6.176   1.487   2.353
 9429SOL    HW128631   6.218   1.429   2.283
 9429SOL    HW228632   6.132   1.566   2.309
 9430SOL     OW28633   7.295   0.385   3.243
 9430SOL    HW128634   7.368   0.454   3.247
 9430SOL    HW228635   7.323   0.310   3.184
 9431SOL     OW28636   5.841   1.348   2.152
 9431SOL    HW128637   5.745   1.349   2.125
 9431SOL    HW228638   5.853   1.401   2.236
 9432SOL     OW28639   5.691   1.013   3.588
 9432SOL    HW128640   5.614   0.980   3.642
 9432SOL    HW228641   5.776   0.983   3.630
 9433SOL     OW28642   7.026   0.856   3.260
 9433SOL    HW128643   6.969   0.908   3.197
 9433SOL    HW228644   7.122   0.868   3.236
 9434SOL     OW28645   6.769   1.335   1.981
 9434SOL    HW128646   6.670   1.324   1.983
 9434SOL    HW228647   6.803   1.350   2.074
 9435SOL     OW28648   6.199   0.842   3.293
 9435SOL    HW128649   6.255   0.923   3.276
 9435SOL    HW228650   6.258   0.762   3.296
 9436SOL     OW28651   7.079   1.767   2.821
 9436SOL    HW128652   7.112   1.831   2.752
 9436SOL    HW228653   7.145   1.761   2.896
 9437SOL     OW28654   6.302   0.565   3.570
 9437SOL    HW128655   6.321   0.630   3.644
 9437SOL    HW228656   6.362   0.485   3.579
 9438SOL     OW28657   7.036   1.220   3.495
 9438SOL    HW128658   7.027   1.210   3.594
 9438SOL    HW228659   7.132   1.213   3.469
 9439SOL     OW28660   5.976   1.741   3.422
 9439SOL    HW128661   5.885   1.782   3.420
 9439SOL    HW228662   5.969   1.647   3.454
 9440SOL     OW28663   7.260   0.883   3.116
 9440SOL    HW128664   7.233   0.794   3.079
 9440SOL    HW228665   7.261   0.951   3.043
 9441SOL     OW28666   6.180   0.745   2.514
 9441SOL    HW128667   6.230   0.830   2.495
 9441SOL    HW228668   6.092   0.747   2.466
 9442SOL     OW28669   7.316   0.934   3.379
 9442SOL    HW128670   7.354   1.025   3.394
 9442SOL    HW228671   7.308   0.917   3.280
 9443SOL     OW28672   6.445   1.374   1.878
 9443SOL    HW128673   6.399   1.389   1.966
 9443SOL    HW228674   6.489   1.459   1.848
 9444SOL     OW28675   6.247   1.790   2.815
 9444SOL    HW128676   6.201   1.878   2.802
 9444SOL    HW228677   6.346   1.802   2.808
 9445SOL     OW28678   6.445   0.956   2.723
 9445SOL    HW128679   6.499   0.887   2.771
 9445SOL    HW228680   6.413   1.025   2.789
 9446SOL     OW28681   6.669   0.984   1.949
 9446SOL    HW128682   6.646   1.037   1.867
 9446SOL    HW228683   6.750   0.928   1.930
 9447SOL     OW28684   7.447   1.569   2.713
 9447SOL    HW128685   7.376   1.557   2.643
 9447SOL    HW228686   7.448   1.490   2.773
 9448SOL     OW28687   5.807   1.314   3.706
 9448SOL    HW128688   5.742   1.241   3.685
 9448SOL    HW228689   5.811   1.328   3.804
 9449SOL     OW28690   5.665   1.240   2.515
 9449SOL    HW128691   5.664   1.193   2.603
 9449SOL    HW228692   5.747   1.212   2.464
 9450SOL     OW28693   6.258   1.391   3.486
 9450SOL    HW128694   6.180   1.341   3.524
 9450SOL    HW228695   6.255   1.486   3.517
 9451SOL     OW28696   6.014   0.424   2.382
 9451SOL    HW128697   6.044   0.352   2.320
 9451SOL    HW228698   5.975   0.384   2.465
 9452SOL     OW28699   7.291   1.487   2.966
 9452SOL    HW128700   7.198   1.462   2.939
 9452SOL    HW228701   7.317   1.437   3.048
 9453SOL     OW28702   5.903   0.547   3.142
 9453SOL    HW128703   5.941   0.488   3.214
 9453SOL    HW228704   5.943   0.521   3.054
 9454SOL     OW28705   6.398   1.586   2.549
 9454SOL    HW128706   6.430   1.596   2.455
 9454SOL    HW228707   6.319   1.524   2.551
 9455SOL     OW28708   6.356   1.330   2.163
 9455SOL    HW128709   6.310   1.243   2.180
 9455SOL    HW228710   6.447   1.327   2.204
 9456SOL     OW28711   6.204   1.567   3.146
 9456SOL    HW128712   6.199   1.649   3.203
 9456SOL    HW228713   6.293   1.564   3.101
 9457SOL     OW28714   6.886   0.453   2.553
 9457SOL    HW128715   6.827   0.533   2.557
 9457SOL    HW228716   6.901   0.418   2.646
 9458SOL     OW28717   5.625   1.077   2.162
 9458SOL    HW128718   5.724   1.066   2.153
 9458SOL    HW228719   5.585   0.991   2.194
 9459SOL     OW28720   6.461   1.646   2.199
 9459SOL    HW128721   6.384   1.611   2.145
 9459SOL    HW228722   6.429   1.717   2.261
 9460SOL     OW28723   5.816   0.628   3.837
 9460SOL    HW128724   5.723   0.626   3.874
 9460SOL    HW228725   5.817   0.589   3.745
 9461SOL     OW28726   6.155   1.275   4.889
 9461SOL    HW128727   6.062   1.268   4.852
 9461SOL    HW228728   6.166   1.364   4.933
 9462SOL     OW28729   7.141   1.511   4.427
 9462SOL    HW128730   7.084   1.495   4.508
 9462SOL    HW228731   7.082   1.521   4.347
 9463SOL     OW28732   7.329   0.618   4.580
 9463SOL    HW128733   7.362   0.712   4.580
 9463SOL    HW228734   7.380   0.564   4.646
 9464SOL     OW28735   6.721   0.703   4.441
 9464SOL    HW128736   6.778   0.781   4.416
 9464SOL    HW228737   6.661   0.729   4.517
 9465SOL     OW28738   7.341   0.607   3.955
 9465SOL    HW128739   7.329   0.594   3.856
 9465SOL    HW228740   7.311   0.526   4.004
 9466SOL     OW28741   6.354   1.144   4.747
 9466SOL    HW128742   6.276   1.161   4.807
 9466SOL    HW228743   6.388   1.231   4.711
 9467SOL     OW28744   6.436   0.798   5.547
 9467SOL    HW128745   6.432   0.874   5.612
 9467SOL    HW228746   6.458   0.834   5.456
 9468SOL     OW28747   6.271   1.012   4.389
 9468SOL    HW128748   6.340   0.996   4.459
 9468SOL    HW228749   6.198   1.069   4.427
 9469SOL     OW28750   6.272   1.161   5.527
 9469SOL    HW128751   6.332   1.240   5.541
 9469SOL    HW228752   6.186   1.192   5.486
 9470SOL     OW28753   5.921   1.435   4.785
 9470SOL    HW128754   5.843   1.404   4.732
 9470SOL    HW228755   5.979   1.493   4.728
 9471SOL     OW28756   7.046   1.505   5.063
 9471SOL    HW128757   7.070   1.599   5.089
 9471SOL    HW228758   7.030   1.451   5.145
 9472SOL     OW28759   5.817   1.713   4.207
 9472SOL    HW128760   5.851   1.790   4.261
 9472SOL    HW228761   5.861   1.713   4.117
 9473SOL     OW28762   6.713   1.341   5.414
 9473SOL    HW128763   6.760   1.341   5.502
 9473SOL    HW228764   6.665   1.254   5.403
 9474SOL     OW28765   5.816   1.434   4.262
 9474SOL    HW128766   5.790   1.530   4.262
 9474SOL    HW228767   5.745   1.380   4.307
 9475SOL     OW28768   5.826   1.091   4.610
 9475SOL    HW128769   5.840   1.007   4.662
 9475SOL    HW228770   5.771   1.155   4.665
 9476SOL     OW28771   6.206   1.786   5.163
 9476SOL    HW128772   6.114   1.769   5.198
 9476SOL    HW228773   6.234   1.878   5.189
 9477SOL     OW28774   6.192   0.964   3.847
 9477SOL    HW128775   6.199   1.048   3.793
 9477SOL    HW228776   6.238   0.977   3.935
 9478SOL     OW28777   5.708   0.643   4.287
 9478SOL    HW128778   5.663   0.555   4.304
 9478SOL    HW228779   5.707   0.697   4.371
 9479SOL     OW28780   7.428   1.767   4.083
 9479SOL    HW128781   7.482   1.738   4.163
 9479SOL    HW228782   7.458   1.857   4.054
 9480SOL     OW28783   5.613   1.596   3.841
 9480SOL    HW128784   5.594   1.500   3.862
 9480SOL    HW228785   5.580   1.654   3.916
 9481SOL     OW28786   7.275   0.922   4.336
 9481SOL    HW128787   7.370   0.893   4.344
 9481SOL    HW228788   7.267   0.987   4.261
 9482SOL     OW28789   7.227   1.108   4.156
 9482SOL    HW128790   7.313   1.110   4.104
 9482SOL    HW228791   7.241   1.155   4.244
 9483SOL     OW28792   5.699   0.737   5.321
 9483SOL    HW128793   5.787   0.724   5.366
 9483SOL    HW228794   5.686   0.834   5.299
 9484SOL     OW28795   6.199   1.365   4.450
 9484SOL    HW128796   6.150   1.278   4.459
 9484SOL    HW228797   6.176   1.408   4.363
 9485SOL     OW28798   6.879   1.228   5.147
 9485SOL    HW128799   6.916   1.155   5.089
 9485SOL    HW228800   6.931   1.233   5.232
 9486SOL     OW28801   5.783   0.976   4.988
 9486SOL    HW128802   5.872   0.931   4.974
 9486SOL    HW228803   5.710   0.911   4.969
 9487SOL     OW28804   7.111   0.999   3.914
 9487SOL    HW128805   7.048   0.923   3.927
 9487SOL    HW228806   7.159   1.017   4.000
 9488SOL     OW28807   6.773   1.792   5.340
 9488SOL    HW128808   6.797   1.852   5.264
 9488SOL    HW228809   6.780   1.697   5.310
 9489SOL     OW28810   7.052   1.417   4.677
 9489SOL    HW128811   6.993   1.423   4.757
 9489SOL    HW228812   7.037   1.329   4.631
 9490SOL     OW28813   7.253   1.714   4.296
 9490SOL    HW128814   7.212   1.691   4.208
 9490SOL    HW228815   7.235   1.640   4.361
 9491SOL     OW28816   6.184   0.729   3.994
 9491SOL    HW128817   6.208   0.798   3.926
 9491SOL    HW228818   6.106   0.762   4.048
 9492SOL     OW28819   6.867   0.345   4.668
 9492SOL    HW128820   6.781   0.295   4.655
 9492SOL    HW228821   6.929   0.291   4.724
 9493SOL     OW28822   7.162   1.662   4.031
 9493SOL    HW128823   7.251   1.708   4.034
 9493SOL    HW228824   7.141   1.638   3.936
 9494SOL     OW28825   6.393   0.605   5.189
 9494SOL    HW128826   6.346   0.602   5.278
 9494SOL    HW228827   6.342   0.550   5.123
 9495SOL     OW28828   6.980   0.469   5.398
 9495SOL    HW128829   6.960   0.512   5.486
 9495SOL    HW228830   7.058   0.407   5.407
 9496SOL     OW28831   6.559   0.890   5.296
 9496SOL    HW128832   6.605   0.806   5.267
 9496SOL    HW228833   6.503   0.924   5.221
 9497SOL     OW28834   6.577   0.410   4.966
 9497SOL    HW128835   6.500   0.444   5.020
 9497SOL    HW228836   6.543   0.359   4.887
 9498SOL     OW28837   6.627   0.701   4.153
 9498SOL    HW128838   6.653   0.697   4.249
 9498SOL    HW228839   6.542   0.650   4.139
 9499SOL     OW28840   5.662   0.811   4.513
 9499SOL    HW128841   5.761   0.799   4.522
 9499SOL    HW228842   5.638   0.906   4.534
 9500SOL     OW28843   5.716   1.821   5.295
 9500SOL    HW128844   5.706   1.806   5.394
 9500SOL    HW228845   5.630   1.857   5.259
 9501SOL     OW28846   6.451   0.348   3.919
 9501SOL    HW128847   6.510   0.411   3.870
 9501SOL    HW228848   6.470   0.254   3.890
 9502SOL     OW28849   7.305   0.585   5.555
 9502SOL    HW128850   7.279   0.674   5.519
 9502SOL    HW228851   7.303   0.517   5.482
 9503SOL     OW28852   6.948   1.144   4.269
 9503SOL    HW128853   7.031   1.115   4.221
 9503SOL    HW228854   6.899   1.211   4.213
 9504SOL     OW28855   6.136   0.196   4.609
 9504SOL    HW128856   6.131   0.191   4.709
 9504SOL    HW228857   6.138   0.292   4.580
 9505SOL     OW28858   6.594   1.456   4.201
 9505SOL    HW128859   6.548   1.528   4.149
 9505SOL    HW228860   6.590   1.476   4.299
 9506SOL     OW28861   5.937   1.801   4.577
 9506SOL    HW128862   5.987   1.715   4.583
 9506SOL    HW228863   6.002   1.878   4.574
 9507SOL     OW28864   7.381   1.066   4.597
 9507SOL    HW128865   7.319   1.051   4.521
 9507SOL    HW228866   7.329   1.077   4.682
 9508SOL     OW28867   6.813   1.550   5.230
 9508SOL    HW128868   6.819   1.473   5.294
 9508SOL    HW228869   6.761   1.524   5.150
 9509SOL     OW28870   5.907   0.943   3.966
 9509SOL    HW128871   5.989   0.982   3.924
 9509SOL    HW228872   5.880   0.861   3.917
 9510SOL     OW28873   7.044   0.735   4.452
 9510SOL    HW128874   7.039   0.670   4.527
 9510SOL    HW228875   7.124   0.794   4.465
 9511SOL     OW28876   6.047   1.266   5.451
 9511SOL    HW128877   5.997   1.267   5.365
 9511SOL    HW228878   5.984   1.248   5.527
 9512SOL     OW28879   6.697   1.776   3.961
 9512SOL    HW128880   6.637   1.714   4.011
 9512SOL    HW228881   6.728   1.732   3.876
 9513SOL     OW28882   7.218   1.377   3.805
 9513SOL    HW128883   7.186   1.471   3.795
 9513SOL    HW228884   7.142   1.314   3.793
 9514SOL     OW28885   6.050   1.743   4.047
 9514SOL    HW128886   6.083   1.782   4.133
 9514SOL    HW228887   6.126   1.736   3.982
 9515SOL     OW28888   5.835   1.785   4.965
 9515SOL    HW128889   5.892   1.720   5.015
 9515SOL    HW228890   5.819   1.752   4.872
 9516SOL     OW28891   6.526   1.698   4.628
 9516SOL    HW128892   6.606   1.641   4.649
 9516SOL    HW228893   6.477   1.658   4.551
 9517SOL     OW28894   5.968   0.700   4.204
 9517SOL    HW128895   6.013   0.610   4.201
 9517SOL    HW228896   5.874   0.689   4.237
 9518SOL     OW28897   6.367   0.264   5.473
 9518SOL    HW128898   6.434   0.203   5.516
 9518SOL    HW228899   6.294   0.283   5.538
 9519SOL     OW28900   6.474   1.514   4.919
 9519SOL    HW128901   6.451   1.489   4.825
 9519SOL    HW228902   6.535   1.445   4.958
 9520SOL     OW28903   6.937   0.590   5.157
 9520SOL    HW128904   6.965   0.547   5.242
 9520SOL    HW228905   6.962   0.686   5.158
 9521SOL     OW28906   6.389   1.402   4.648
 9521SOL    HW128907   6.479   1.416   4.606
 9521SOL    HW228908   6.318   1.404   4.577
 9522SOL     OW28909   6.508   0.503   4.623
 9522SOL    HW128910   6.483   0.494   4.527
 9522SOL    HW228911   6.556   0.421   4.654
 9523SOL     OW28912   7.020   1.188   3.765
 9523SOL    HW128913   7.052   1.112   3.822
 9523SOL    HW228914   6.928   1.215   3.795
 9524SOL     OW28915   6.662   0.683   5.188
 9524SOL    HW128916   6.582   0.622   5.191
 9524SOL    HW228917   6.743   0.630   5.164
 9525SOL     OW28918   6.813   1.570   4.517
 9525SOL    HW128919   6.834   1.644   4.452
 9525SOL    HW228920   6.881   1.570   4.590
 9526SOL     OW28921   6.045   1.152   4.465
 9526SOL    HW128922   5.974   1.125   4.530
 9526SOL    HW228923   6.019   1.124   4.372
 9527SOL     OW28924   6.857   1.797   4.315
 9527SOL    HW128925   6.901   1.861   4.251
 9527SOL    HW228926   6.807   1.849   4.385
 9528SOL     OW28927   6.618   0.549   3.740
 9528SOL    HW128928   6.577   0.631   3.701
 9528SOL    HW228929   6.682   0.575   3.813
 9529SOL     OW28930   5.664   0.556   5.110
 9529SOL    HW128931   5.756   0.555   5.069
 9529SOL    HW228932   5.658   0.630   5.177
 9530SOL     OW28933   6.147   0.222   4.871
 9530SOL    HW128934   6.185   0.138   4.908
 9530SOL    HW228935   6.059   0.241   4.915
 9531SOL     OW28936   6.452   0.454   4.366
 9531SOL    HW128937   6.420   0.526   4.304
 9531SOL    HW228938   6.476   0.373   4.313
 9532SOL     OW28939   6.603   0.039   4.477
 9532SOL    HW128940   6.531   0.044   4.408
 9532SOL    HW228941   6.579  -0.030   4.546
 9533SOL     OW28942   7.015   1.173   4.591
 9533SOL    HW128943   6.960   1.089   4.584
 9533SOL    HW228944   7.041   1.202   4.499
 9534SOL     OW28945   7.052   0.590   4.716
 9534SOL    HW128946   7.022   0.495   4.723
 9534SOL    HW228947   7.125   0.606   4.782
 9535SOL     OW28948   7.443   0.833   4.101
 9535SOL    HW128949   7.485   0.769   4.165
 9535SOL    HW228950   7.405   0.782   4.023
 9536SOL     OW28951   6.074   1.385   3.898
 9536SOL    HW128952   5.987   1.370   3.945
 9536SOL    HW228953   6.057   1.411   3.803
 9537SOL     OW28954   7.250   1.280   4.381
 9537SOL    HW128955   7.349   1.288   4.395
 9537SOL    HW228956   7.205   1.364   4.412
 9538SOL     OW28957   6.976   0.575   3.802
 9538SOL    HW128958   6.922   0.554   3.883
 9538SOL    HW228959   7.067   0.534   3.811
 9539SOL     OW28960   7.340   1.223   5.312
 9539SOL    HW128961   7.431   1.184   5.299
 9539SOL    HW228962   7.348   1.319   5.336
 9540SOL     OW28963   6.650   1.347   5.064
 9540SOL    HW128964   6.570   1.324   5.119
 9540SOL    HW228965   6.733   1.321   5.113
 9541SOL     OW28966   7.178   1.629   5.349
 9541SOL    HW128967   7.205   1.663   5.259
 9541SOL    HW228968   7.257   1.591   5.395
 9542SOL     OW28969   6.697   1.195   4.824
 9542SOL    HW128970   6.657   1.239   4.905
 9542SOL    HW228971   6.656   1.232   4.741
 9543SOL     OW28972   7.224   1.099   4.803
 9543SOL    HW128973   7.229   1.180   4.862
 9543SOL    HW228974   7.138   1.101   4.752
 9544SOL     OW28975   6.566   1.116   5.443
 9544SOL    HW128976   6.467   1.122   5.453
 9544SOL    HW228977   6.589   1.036   5.387
 9545SOL     OW28978   6.291   1.050   4.092
 9545SOL    HW128979   6.277   1.057   4.191
 9545SOL    HW228980   6.375   0.999   4.074
 9546SOL     OW28981   5.996   0.813   4.975
 9546SOL    HW128982   6.082   0.825   5.025
 9546SOL    HW228983   5.954   0.726   5.002
 9547SOL     OW28984   6.860   0.386   4.986
 9547SOL    HW128985   6.881   0.460   5.050
 9547SOL    HW228986   6.771   0.403   4.943
 9548SOL     OW28987   5.650   1.564   5.055
 9548SOL    HW128988   5.604   1.646   5.021
 9548SOL    HW228989   5.748   1.583   5.064
 9549SOL     OW28990   5.953   1.100   4.225
 9549SOL    HW128991   5.946   1.183   4.169
 9549SOL    HW228992   5.957   1.020   4.165
 9550SOL     OW28993   6.152   0.537   4.589
 9550SOL    HW128994   6.164   0.603   4.515
 9550SOL    HW228995   6.198   0.571   4.672
 9551SOL     OW28996   6.838   1.348   4.112
 9551SOL    HW128997   6.888   1.425   4.152
 9551SOL    HW228998   6.743   1.350   4.144
 9552SOL     OW28999   6.858   1.445   4.866
 9552SOL    HW129000   6.905   1.458   4.953
 9552SOL    HW229001   6.792   1.371   4.875
 9553SOL     OW29002   7.168   0.639   4.196
 9553SOL    HW129003   7.137   0.700   4.269
 9553SOL    HW229004   7.218   0.691   4.127
 9554SOL     OW29005   5.940   1.510   5.053
 9554SOL    HW129006   5.919   1.466   4.966
 9554SOL    HW229007   6.037   1.536   5.056
 9555SOL     OW29008   5.988   0.751   5.322
 9555SOL    HW129009   6.056   0.806   5.275
 9555SOL    HW229010   6.028   0.663   5.349
 9556SOL     OW29011   6.599   0.105   5.494
 9556SOL    HW129012   6.605   0.190   5.442
 9556SOL    HW229013   6.631   0.029   5.437
 9557SOL     OW29014   6.159   0.870   4.753
 9557SOL    HW129015   6.203   0.959   4.744
 9557SOL    HW229016   6.096   0.870   4.830
 9558SOL     OW29017   6.946   0.862   4.769
 9558SOL    HW129018   6.871   0.862   4.703
 9558SOL    HW229019   6.983   0.770   4.778
 9559SOL     OW29020   6.795   0.525   3.999
 9559SOL    HW129021   6.808   0.441   4.053
 9559SOL    HW229022   6.766   0.599   4.059
 9560SOL     OW29023   5.623   1.310   5.006
 9560SOL    HW129024   5.676   1.261   5.074
 9560SOL    HW229025   5.645   1.408   5.011
 9561SOL     OW29026   6.318   0.634   4.788
 9561SOL    HW129027   6.377   0.608   4.712
 9561SOL    HW229028   6.290   0.730   4.777
 9562SOL     OW29029   7.314   0.935   5.578
 9562SOL    HW129030   7.268   0.928   5.489
 9562SOL    HW229031   7.252   0.979   5.644
 9563SOL     OW29032   7.208   0.367   4.098
 9563SOL    HW129033   7.210   0.291   4.162
 9563SOL    HW229034   7.160   0.444   4.138
 9564SOL     OW29035   6.609   0.766   4.690
 9564SOL    HW129036   6.624   0.787   4.786
 9564SOL    HW229037   6.579   0.671   4.681
 9565SOL     OW29038   6.566   1.573   5.424
 9565SOL    HW129039   6.546   1.617   5.336
 9565SOL    HW229040   6.605   1.482   5.408
 9566SOL     OW29041   7.445   1.518   5.329
 9566SOL    HW129042   7.459   1.545   5.234
 9566SOL    HW229043   7.528   1.540   5.382
 9567SOL     OW29044   5.936   0.898   5.528
 9567SOL    HW129045   6.012   0.942   5.576
 9567SOL    HW229046   5.971   0.851   5.446
 9568SOL     OW29047   6.889   0.838   3.766
 9568SOL    HW129048   6.923   0.745   3.781
 9568SOL    HW229049   6.907   0.865   3.671
 9569SOL     OW29050   6.654   1.333   4.573
 9569SOL    HW129051   6.661   1.249   4.518
 9569SOL    HW229052   6.716   1.402   4.537
 9570SOL     OW29053   5.905   0.810   4.673
 9570SOL    HW129054   5.998   0.846   4.678
 9570SOL    HW229055   5.899   0.725   4.725
 9571SOL     OW29056   5.925   0.509   4.730
 9571SOL    HW129057   5.873   0.426   4.713
 9571SOL    HW229058   6.002   0.514   4.666
 9572SOL     OW29059   6.097   0.415   5.532
 9572SOL    HW129060   6.079   0.460   5.620
 9572SOL    HW229061   6.139   0.480   5.469
 9573SOL     OW29062   6.724   0.380   5.402
 9573SOL    HW129063   6.679   0.443   5.466
 9573SOL    HW229064   6.817   0.411   5.385
 9574SOL     OW29065   6.746   0.207   5.201
 9574SOL    HW129066   6.746   0.271   5.278
 9574SOL    HW229067   6.774   0.255   5.118
 9575SOL     OW29068   5.594   1.326   3.924
 9575SOL    HW129069   5.501   1.347   3.893
 9575SOL    HW229070   5.604   1.227   3.937
 9576SOL     OW29071   5.674   1.801   4.651
 9576SOL    HW129072   5.632   1.715   4.624
 9576SOL    HW229073   5.768   1.804   4.617
 9577SOL     OW29074   6.090   1.568   4.634
 9577SOL    HW129075   6.156   1.642   4.643
 9577SOL    HW229076   6.134   1.489   4.592
 9578SOL     OW29077   6.588   0.796   4.962
 9578SOL    HW129078   6.629   0.764   5.048
 9578SOL    HW229079   6.492   0.769   4.959
 9579SOL     OW29080   5.626   0.544   4.838
 9579SOL    HW129081   5.711   0.511   4.797
 9579SOL    HW229082   5.639   0.559   4.936
 9580SOL     OW29083   5.775   0.520   5.446
 9580SOL    HW129084   5.834   0.480   5.376
 9580SOL    HW229085   5.717   0.591   5.405
 9581SOL     OW29086   6.955   0.950   5.384
 9581SOL    HW129087   6.994   1.039   5.404
 9581SOL    HW229088   6.965   0.930   5.287
 9582SOL     OW29089   6.401   0.572   4.049
 9582SOL    HW129090   6.408   0.483   4.003
 9582SOL    HW229091   6.307   0.606   4.041
 9583SOL     OW29092   7.243   0.604   4.930
 9583SOL    HW129093   7.205   0.535   4.992
 9583SOL    HW229094   7.325   0.568   4.886
 9584SOL     OW29095   5.838   1.564   5.468
 9584SOL    HW129096   5.808   1.621   5.544
 9584SOL    HW229097   5.831   1.467   5.494
 9585SOL     OW29098   6.257   0.464   4.993
 9585SOL    HW129099   6.223   0.375   4.963
 9585SOL    HW229100   6.283   0.518   4.913
 9586SOL     OW29101   6.516   1.678   5.189
 9586SOL    HW129102   6.492   1.660   5.094
 9586SOL    HW229103   6.546   1.772   5.199
 9587SOL     OW29104   6.059   0.500   3.915
 9587SOL    HW129105   6.120   0.580   3.919
 9587SOL    HW229106   5.964   0.531   3.922
 9588SOL     OW29107   5.745   1.137   5.190
 9588SOL    HW129108   5.767   1.076   5.266
 9588SOL    HW229109   5.755   1.088   5.104
 9589SOL     OW29110   6.933   1.059   4.958
 9589SOL    HW129111   6.957   0.996   4.884
 9589SOL    HW229112   6.843   1.099   4.940
 9590SOL     OW29113   6.888   0.855   4.033
 9590SOL    HW129114   6.802   0.824   4.075
 9590SOL    HW229115   6.884   0.841   3.934
 9591SOL     OW29116   7.345   1.747   4.878
 9591SOL    HW129117   7.406   1.777   4.805
 9591SOL    HW229118   7.307   1.658   4.856
 9592SOL     OW29119   6.838   1.731   4.852
 9592SOL    HW129120   6.922   1.736   4.798
 9592SOL    HW229121   6.815   1.635   4.870
 9593SOL     OW29122   5.669   1.258   4.746
 9593SOL    HW129123   5.664   1.257   4.846
 9593SOL    HW229124   5.586   1.217   4.708
 9594SOL     OW29125   6.274   1.662   5.440
 9594SOL    HW129126   6.218   1.743   5.449
 9594SOL    HW229127   6.326   1.666   5.354
 9595SOL     OW29128   7.312   0.135   4.247
 9595SOL    HW129129   7.385   0.118   4.180
 9595SOL    HW229130   7.281   0.048   4.285
 9596SOL     OW29131   6.974   1.573   4.201
 9596SOL    HW129132   7.041   1.585   4.127
 9596SOL    HW229133   6.934   1.662   4.224
 9597SOL     OW29134   5.716   1.794   5.575
 9597SOL    HW129135   5.675   1.720   5.628
 9597SOL    HW229136   5.780   1.845   5.633
 9598SOL     OW29137   6.866   0.927   4.396
 9598SOL    HW129138   6.926   0.846   4.398
 9598SOL    HW229139   6.906   0.996   4.336
 9599SOL     OW29140   6.416   1.273   5.146
 9599SOL    HW129141   6.411   1.306   5.241
 9599SOL    HW229142   6.330   1.292   5.100
 9600SOL     OW29143   6.258   1.616   3.878
 9600SOL    HW129144   6.267   1.626   3.779
 9600SOL    HW229145   6.218   1.527   3.899
 9601SOL     OW29146   7.236   1.720   5.118
 9601SOL    HW129147   7.289   1.730   5.034
 9601SOL    HW229148   7.209   1.810   5.152
 9602SOL     OW29149   6.780   1.612   3.755
 9602SOL    HW129150   6.786   1.519   3.792
 9602SOL    HW229151   6.721   1.612   3.675
 9603SOL     OW29152   6.408   1.002   5.096
 9603SOL    HW129153   6.448   1.001   5.004
 9603SOL    HW229154   6.418   1.094   5.136
 9604SOL     OW29155   6.502   0.910   4.015
 9604SOL    HW129156   6.565   0.948   3.947
 9604SOL    HW229157   6.542   0.827   4.054
 9605SOL     OW29158   7.090   1.607   3.768
 9605SOL    HW129159   6.998   1.644   3.775
 9605SOL    HW229160   7.128   1.627   3.678
 9606SOL     OW29161   5.958   1.288   5.214
 9606SOL    HW129162   5.945   1.381   5.180
 9606SOL    HW229163   5.874   1.236   5.201
 9607SOL     OW29164   7.200   1.292   5.013
 9607SOL    HW129165   7.260   1.295   5.093
 9607SOL    HW229166   7.125   1.356   5.026
 9608SOL     OW29167   6.625   1.098   4.420
 9608SOL    HW129168   6.555   1.051   4.474
 9608SOL    HW229169   6.684   1.030   4.377
 9609SOL     OW29170   6.176   1.487   4.215
 9609SOL    HW129171   6.218   1.429   4.145
 9609SOL    HW229172   6.132   1.566   4.171
 9610SOL     OW29173   7.295   0.385   5.105
 9610SOL    HW129174   7.368   0.454   5.109
 9610SOL    HW229175   7.323   0.310   5.046
 9611SOL     OW29176   5.841   1.348   4.014
 9611SOL    HW129177   5.745   1.349   3.987
 9611SOL    HW229178   5.853   1.401   4.098
 9612SOL     OW29179   5.691   1.013   5.450
 9612SOL    HW129180   5.614   0.980   5.504
 9612SOL    HW229181   5.776   0.983   5.492
 9613SOL     OW29182   7.026   0.856   5.122
 9613SOL    HW129183   6.969   0.908   5.059
 9613SOL    HW229184   7.122   0.868   5.098
 9614SOL     OW29185   6.769   1.335   3.843
 9614SOL    HW129186   6.670   1.324   3.845
 9614SOL    HW229187   6.803   1.350   3.936
 9615SOL     OW29188   6.199   0.842   5.155
 9615SOL    HW129189   6.255   0.923   5.138
 9615SOL    HW229190   6.258   0.762   5.158
 9616SOL     OW29191   7.079   1.767   4.683
 9616SOL    HW129192   7.112   1.831   4.614
 9616SOL    HW229193   7.145   1.761   4.758
 9617SOL     OW29194   6.302   0.565   5.432
 9617SOL    HW129195   6.321   0.630   5.506
 9617SOL    HW229196   6.362   0.485   5.441
 9618SOL     OW29197   7.036   1.220   5.357
 9618SOL    HW129198   7.027   1.210   5.456
 9618SOL    HW229199   7.132   1.213   5.331
 9619SOL     OW29200   5.976   1.741   5.284
 9619SOL    HW129201   5.885   1.782   5.282
 9619SOL    HW229202   5.969   1.647   5.316
 9620SOL     OW29203   7.260   0.883   4.978
 9620SOL    HW129204   7.233   0.794   4.941
 9620SOL    HW229205   7.261   0.951   4.905
 9621SOL     OW29206   6.180   0.745   4.376
 9621SOL    HW129207   6.230   0.830   4.357
 9621SOL    HW229208   6.092   0.747   4.328
 9622SOL     OW29209   7.316   0.934   5.241
 9622SOL    HW129210   7.354   1.025   5.256
 9622SOL    HW229211   7.308   0.917   5.142
 9623SOL     OW29212   6.445   1.374   3.740
 9623SOL    HW129213   6.399   1.389   3.828
 9623SOL    HW229214   6.489   1.459   3.710
 9624SOL     OW29215   6.247   1.790   4.677
 9624SOL    HW129216   6.201   1.878   4.664
 9624SOL    HW229217   6.346   1.802   4.670
 9625SOL     OW29218   6.445   0.956   4.585
 9625SOL    HW129219   6.499   0.887   4.633
 9625SOL    HW229220   6.413   1.025   4.651
 9626SOL     OW29221   6.669   0.984   3.811
 9626SOL    HW129222   6.646   1.037   3.729
 9626SOL    HW229223   6.750   0.928   3.792
 9627SOL     OW29224   7.447   1.569   4.575
 9627SOL    HW129225   7.376   1.557   4.505
 9627SOL    HW229226   7.448   1.490   4.635
 9628SOL     OW29227   5.807   1.314   5.568
 9628SOL    HW129228   5.742   1.241   5.547
 9628SOL    HW229229   5.811   1.328   5.666
 9629SOL     OW29230   5.665   1.240   4.377
 9629SOL    HW129231   5.664   1.193   4.465
 9629SOL    HW229232   5.747   1.212   4.326
 9630SOL     OW29233   6.258   1.391   5.348
 9630SOL    HW129234   6.180   1.341   5.386
 9630SOL    HW229235   6.255   1.486   5.379
 9631SOL     OW29236   6.014   0.424   4.244
 9631SOL    HW129237   6.044   0.352   4.182
 9631SOL    HW229238   5.975   0.384   4.327
 9632SOL     OW29239   7.291   1.487   4.828
 9632SOL    HW129240   7.198   1.462   4.801
 9632SOL    HW229241   7.317   1.437   4.910
 9633SOL     OW29242   5.903   0.547   5.004
 9633SOL    HW129243   5.941   0.488   5.076
 9633SOL    HW229244   5.943   0.521   4.916
 9634SOL     OW29245   6.398   1.586   4.411
 9634SOL    HW129246   6.430   1.596   4.317
 9634SOL    HW229247   6.319   1.524   4.413
 9635SOL     OW29248   6.356   1.330   4.025
 9635SOL    HW129249   6.310   1.243   4.042
 9635SOL    HW229250   6.447   1.327   4.066
 9636SOL     OW29251   6.204   1.567   5.008
 9636SOL    HW129252   6.199   1.649   5.065
 9636SOL    HW229253   6.293   1.564   4.963
 9637SOL     OW29254   6.886   0.453   4.415
 9637SOL    HW129255   6.827   0.533   4.419
 9637SOL    HW229256   6.901   0.418   4.508
 9638SOL     OW29257   5.625   1.077   4.024
 9638SOL    HW129258   5.724   1.066   4.015
 9638SOL    HW229259   5.585   0.991   4.056
 9639SOL     OW29260   6.461   1.646   4.061
 9639SOL    HW129261   6.384   1.611   4.007
 9639SOL    HW229262   6.429   1.717   4.123
 9640SOL     OW29263   5.816   0.628   5.699
 9640SOL    HW129264   5.723   0.626   5.736
 9640SOL    HW229265   5.817   0.589   5.607
 9641SOL     OW29266   7.141   1.511   6.289
 9641SOL    HW129267   7.084   1.495   6.370
 9641SOL    HW229268   7.082   1.521   6.209
 9642SOL     OW29269   6.721   0.703   6.303
 9642SOL    HW129270   6.778   0.781   6.278
 9642SOL    HW229271   6.661   0.729   6.379
 9643SOL     OW29272   7.341   0.607   5.817
 9643SOL    HW129273   7.329   0.594   5.718
 9643SOL    HW229274   7.311   0.526   5.866
 9644SOL     OW29275   6.271   1.012   6.251
 9644SOL    HW129276   6.340   0.996   6.321
 9644SOL    HW229277   6.198   1.069   6.289
 9645SOL     OW29278   5.817   1.713   6.069
 9645SOL    HW129279   5.851   1.790   6.123
 9645SOL    HW229280   5.861   1.713   5.979
 9646SOL     OW29281   5.816   1.434   6.124
 9646SOL    HW129282   5.790   1.530   6.124
 9646SOL    HW229283   5.745   1.380   6.169
 9647SOL     OW29284   6.192   0.964   5.709
 9647SOL    HW129285   6.199   1.048   5.655
 9647SOL    HW229286   6.238   0.977   5.797
 9648SOL     OW29287   5.708   0.643   6.149
 9648SOL    HW129288   5.663   0.555   6.166
 9648SOL    HW229289   5.707   0.697   6.233
 9649SOL     OW29290   7.428   1.767   5.945
 9649SOL    HW129291   7.482   1.738   6.025
 9649SOL    HW229292   7.458   1.857   5.916
 9650SOL     OW29293   5.613   1.596   5.703
 9650SOL    HW129294   5.594   1.500   5.724
 9650SOL    HW229295   5.580   1.654   5.778
 9651SOL     OW29296   7.275   0.922   6.198
 9651SOL    HW129297   7.370   0.893   6.206
 9651SOL    HW229298   7.267   0.987   6.123
 9652SOL     OW29299   7.227   1.108   6.018
 9652SOL    HW129300   7.313   1.110   5.966
 9652SOL    HW229301   7.241   1.155   6.106
 9653SOL     OW29302   6.199   1.365   6.312
 9653SOL    HW129303   6.150   1.278   6.321
 9653SOL    HW229304   6.176   1.408   6.225
 9654SOL     OW29305   7.111   0.999   5.776
 9654SOL    HW129306   7.048   0.923   5.789
 9654SOL    HW229307   7.159   1.017   5.862
 9655SOL     OW29308   7.253   1.714   6.158
 9655SOL    HW129309   7.212   1.691   6.070
 9655SOL    HW229310   7.235   1.640   6.223
 9656SOL     OW29311   6.184   0.729   5.856
 9656SOL    HW129312   6.208   0.798   5.788
 9656SOL    HW229313   6.106   0.762   5.910
 9657SOL     OW29314   6.867   0.345   6.530
 9657SOL    HW129315   6.781   0.295   6.517
 9657SOL    HW229316   6.929   0.291   6.586
 9658SOL     OW29317   7.162   1.662   5.893
 9658SOL    HW129318   7.251   1.708   5.896
 9658SOL    HW229319   7.141   1.638   5.798
 9659SOL     OW29320   6.577   0.410   6.828
 9659SOL    HW129321   6.500   0.444   6.882
 9659SOL    HW229322   6.543   0.359   6.749
 9660SOL     OW29323   6.627   0.701   6.015
 9660SOL    HW129324   6.653   0.697   6.111
 9660SOL    HW229325   6.542   0.650   6.001
 9661SOL     OW29326   6.451   0.348   5.781
 9661SOL    HW129327   6.510   0.411   5.732
 9661SOL    HW229328   6.470   0.254   5.752
 9662SOL     OW29329   6.948   1.144   6.131
 9662SOL    HW129330   7.031   1.115   6.083
 9662SOL    HW229331   6.899   1.211   6.075
 9663SOL     OW29332   6.136   0.196   6.471
 9663SOL    HW129333   6.131   0.191   6.571
 9663SOL    HW229334   6.138   0.292   6.442
 9664SOL     OW29335   6.594   1.456   6.063
 9664SOL    HW129336   6.548   1.528   6.011
 9664SOL    HW229337   6.590   1.476   6.161
 9665SOL     OW29338   5.937   1.801   6.439
 9665SOL    HW129339   5.987   1.715   6.445
 9665SOL    HW229340   6.002   1.878   6.436
 9666SOL     OW29341   5.907   0.943   5.828
 9666SOL    HW129342   5.989   0.982   5.786
 9666SOL    HW229343   5.880   0.861   5.779
 9667SOL     OW29344   7.044   0.735   6.314
 9667SOL    HW129345   7.039   0.670   6.389
 9667SOL    HW229346   7.124   0.794   6.327
 9668SOL     OW29347   6.697   1.776   5.823
 9668SOL    HW129348   6.637   1.714   5.873
 9668SOL    HW229349   6.728   1.732   5.738
 9669SOL     OW29350   7.218   1.377   5.667
 9669SOL    HW129351   7.186   1.471   5.657
 9669SOL    HW229352   7.142   1.314   5.655
 9670SOL     OW29353   6.050   1.743   5.909
 9670SOL    HW129354   6.083   1.782   5.995
 9670SOL    HW229355   6.126   1.736   5.844
 9671SOL     OW29356   6.526   1.698   6.490
 9671SOL    HW129357   6.606   1.641   6.511
 9671SOL    HW229358   6.477   1.658   6.413
 9672SOL     OW29359   5.968   0.700   6.066
 9672SOL    HW129360   6.013   0.610   6.063
 9672SOL    HW229361   5.874   0.689   6.099
 9673SOL     OW29362   6.389   1.402   6.510
 9673SOL    HW129363   6.479   1.416   6.468
 9673SOL    HW229364   6.318   1.404   6.439
 9674SOL     OW29365   7.020   1.188   5.627
 9674SOL    HW129366   7.052   1.112   5.684
 9674SOL    HW229367   6.928   1.215   5.657
 9675SOL     OW29368   6.813   1.570   6.379
 9675SOL    HW129369   6.834   1.644   6.314
 9675SOL    HW229370   6.881   1.570   6.452
 9676SOL     OW29371   6.045   1.152   6.327
 9676SOL    HW129372   5.974   1.125   6.392
 9676SOL    HW229373   6.019   1.124   6.234
 9677SOL     OW29374   6.857   1.797   6.177
 9677SOL    HW129375   6.901   1.861   6.113
 9677SOL    HW229376   6.807   1.849   6.247
 9678SOL     OW29377   6.618   0.549   5.602
 9678SOL    HW129378   6.577   0.631   5.563
 9678SOL    HW229379   6.682   0.575   5.675
 9679SOL     OW29380   6.147   0.222   6.733
 9679SOL    HW129381   6.185   0.138   6.770
 9679SOL    HW229382   6.059   0.241   6.777
 9680SOL     OW29383   6.452   0.454   6.228
 9680SOL    HW129384   6.420   0.526   6.166
 9680SOL    HW229385   6.476   0.373   6.175
 9681SOL     OW29386   6.603   0.039   6.339
 9681SOL    HW129387   6.531   0.044   6.270
 9681SOL    HW229388   6.579  -0.030   6.408
 9682SOL     OW29389   7.015   1.173   6.453
 9682SOL    HW129390   6.960   1.089   6.446
 9682SOL    HW229391   7.041   1.202   6.361
 9683SOL     OW29392   7.052   0.590   6.578
 9683SOL    HW129393   7.022   0.495   6.585
 9683SOL    HW229394   7.125   0.606   6.644
 9684SOL     OW29395   7.443   0.833   5.963
 9684SOL    HW129396   7.485   0.769   6.027
 9684SOL    HW229397   7.405   0.782   5.885
 9685SOL     OW29398   6.074   1.385   5.760
 9685SOL    HW129399   5.987   1.370   5.807
 9685SOL    HW229400   6.057   1.411   5.665
 9686SOL     OW29401   7.250   1.280   6.243
 9686SOL    HW129402   7.349   1.288   6.257
 9686SOL    HW229403   7.205   1.364   6.274
 9687SOL     OW29404   6.976   0.575   5.664
 9687SOL    HW129405   6.922   0.554   5.745
 9687SOL    HW229406   7.067   0.534   5.673
 9688SOL     OW29407   7.224   1.099   6.665
 9688SOL    HW129408   7.229   1.180   6.724
 9688SOL    HW229409   7.138   1.101   6.614
 9689SOL     OW29410   6.291   1.050   5.954
 9689SOL    HW129411   6.277   1.057   6.053
 9689SOL    HW229412   6.375   0.999   5.936
 9690SOL     OW29413   5.953   1.100   6.087
 9690SOL    HW129414   5.946   1.183   6.031
 9690SOL    HW229415   5.957   1.020   6.027
 9691SOL     OW29416   6.152   0.537   6.451
 9691SOL    HW129417   6.164   0.603   6.377
 9691SOL    HW229418   6.198   0.571   6.534
 9692SOL     OW29419   6.838   1.348   5.974
 9692SOL    HW129420   6.888   1.425   6.014
 9692SOL    HW229421   6.743   1.350   6.006
 9693SOL     OW29422   7.168   0.639   6.058
 9693SOL    HW129423   7.137   0.700   6.131
 9693SOL    HW229424   7.218   0.691   5.989
 9694SOL     OW29425   6.795   0.525   5.861
 9694SOL    HW129426   6.808   0.441   5.915
 9694SOL    HW229427   6.766   0.599   5.921
 9695SOL     OW29428   7.208   0.367   5.960
 9695SOL    HW129429   7.210   0.291   6.024
 9695SOL    HW229430   7.160   0.444   6.000
 9696SOL     OW29431   6.889   0.838   5.628
 9696SOL    HW129432   6.923   0.745   5.643
 9696SOL    HW229433   6.907   0.865   5.533
 9697SOL     OW29434   6.654   1.333   6.435
 9697SOL    HW129435   6.661   1.249   6.380
 9697SOL    HW229436   6.716   1.402   6.399
 9698SOL     OW29437   5.594   1.326   5.786
 9698SOL    HW129438   5.501   1.347   5.755
 9698SOL    HW229439   5.604   1.227   5.799
 9699SOL     OW29440   5.674   1.801   6.513
 9699SOL    HW129441   5.632   1.715   6.486
 9699SOL    HW229442   5.768   1.804   6.479
 9700SOL     OW29443   6.401   0.572   5.911
 9700SOL    HW129444   6.408   0.483   5.865
 9700SOL    HW229445   6.307   0.606   5.903
 9701SOL     OW29446   6.059   0.500   5.777
 9701SOL    HW129447   6.120   0.580   5.781
 9701SOL    HW229448   5.964   0.531   5.784
 9702SOL     OW29449   6.888   0.855   5.895
 9702SOL    HW129450   6.802   0.824   5.937
 9702SOL    HW229451   6.884   0.841   5.796
 9703SOL     OW29452   7.312   0.135   6.109
 9703SOL    HW129453   7.385   0.118   6.042
 9703SOL    HW229454   7.281   0.048   6.147
 9704SOL     OW29455   6.974   1.573   6.063
 9704SOL    HW129456   7.041   1.585   5.989
 9704SOL    HW229457   6.934   1.662   6.086
 9705SOL     OW29458   6.866   0.927   6.258
 9705SOL    HW129459   6.926   0.846   6.260
 9705SOL    HW229460   6.906   0.996   6.198
 9706SOL     OW29461   6.258   1.616   5.740
 9706SOL    HW129462   6.267   1.626   5.641
 9706SOL    HW229463   6.218   1.527   5.761
 9707SOL     OW29464   6.780   1.612   5.617
 9707SOL    HW129465   6.786   1.519   5.654
 9707SOL    HW229466   6.721   1.612   5.537
 9708SOL     OW29467   6.502   0.910   5.877
 9708SOL    HW129468   6.565   0.948   5.809
 9708SOL    HW229469   6.542   0.827   5.916
 9709SOL     OW29470   7.090   1.607   5.630
 9709SOL    HW129471   6.998   1.644   5.637
 9709SOL    HW229472   7.128   1.627   5.540
 9710SOL     OW29473   6.625   1.098   6.282
 9710SOL    HW129474   6.555   1.051   6.336
 9710SOL    HW229475   6.684   1.030   6.239
 9711SOL     OW29476   6.176   1.487   6.077
 9711SOL    HW129477   6.218   1.429   6.007
 9711SOL    HW229478   6.132   1.566   6.033
 9712SOL     OW29479   5.841   1.348   5.876
 9712SOL    HW129480   5.745   1.349   5.849
 9712SOL    HW229481   5.853   1.401   5.960
 9713SOL     OW29482   6.769   1.335   5.705
 9713SOL    HW129483   6.670   1.324   5.707
 9713SOL    HW229484   6.803   1.350   5.798
 9714SOL     OW29485   7.079   1.767   6.545
 9714SOL    HW129486   7.112   1.831   6.476
 9714SOL    HW229487   7.145   1.761   6.620
 9715SOL     OW29488   6.180   0.745   6.238
 9715SOL    HW129489   6.230   0.830   6.219
 9715SOL    HW229490   6.092   0.747   6.190
 9716SOL     OW29491   6.445   1.374   5.602
 9716SOL    HW129492   6.399   1.389   5.690
 9716SOL    HW229493   6.489   1.459   5.572
 9717SOL     OW29494   6.247   1.790   6.539
 9717SOL    HW129495   6.201   1.878   6.526
 9717SOL    HW229496   6.346   1.802   6.532
 9718SOL     OW29497   6.445   0.956   6.447
 9718SOL    HW129498   6.499   0.887   6.495
 9718SOL    HW229499   6.413   1.025   6.513
 9719SOL     OW29500   6.669   0.984   5.673
 9719SOL    HW129501   6.646   1.037   5.591
 9719SOL    HW229502   6.750   0.928   5.654
 9720SOL     OW29503   5.665   1.240   6.239
 9720SOL    HW129504   5.664   1.193   6.327
 9720SOL    HW229505   5.747   1.212   6.188
 9721SOL     OW29506   6.014   0.424   6.106
 9721SOL    HW129507   6.044   0.352   6.044
 9721SOL    HW229508   5.975   0.384   6.189
 9722SOL     OW29509   6.398   1.586   6.273
 9722SOL    HW129510   6.430   1.596   6.179
 9722SOL    HW229511   6.319   1.524   6.275
 9723SOL     OW29512   6.356   1.330   5.887
 9723SOL    HW129513   6.310   1.243   5.904
 9723SOL    HW229514   6.447   1.327   5.928
 9724SOL     OW29515   6.886   0.453   6.277
 9724SOL    HW129516   6.827   0.533   6.281
 9724SOL    HW229517   6.901   0.418   6.370
 9725SOL     OW29518   5.625   1.077   5.886
 9725SOL    HW129519   5.724   1.066   5.877
 9725SOL    HW229520   5.585   0.991   5.918
 9726SOL     OW29521   6.461   1.646   5.923
 9726SOL    HW129522   6.384   1.611   5.869
 9726SOL    HW229523   6.429   1.717   5.985
 9727SOL     OW29524   5.605   2.230   0.647
 9727SOL    HW129525   5.523   2.273   0.686
 9727SOL    HW229526   5.577   2.157   0.584
 9728SOL     OW29527   6.155   3.137   1.165
 9728SOL    HW129528   6.062   3.130   1.128
 9728SOL    HW229529   6.166   3.226   1.209
 9729SOL     OW29530   7.141   3.373   0.703
 9729SOL    HW129531   7.084   3.357   0.784
 9729SOL    HW229532   7.082   3.383   0.623
 9730SOL     OW29533   6.721   2.565   0.717
 9730SOL    HW129534   6.778   2.643   0.692
 9730SOL    HW229535   6.661   2.591   0.793
 9731SOL     OW29536   6.354   3.006   1.023
 9731SOL    HW129537   6.276   3.023   1.083
 9731SOL    HW229538   6.388   3.093   0.987
 9732SOL     OW29539   6.436   2.660   1.823
 9732SOL    HW129540   6.432   2.736   1.888
 9732SOL    HW229541   6.458   2.696   1.732
 9733SOL     OW29542   6.271   2.874   0.665
 9733SOL    HW129543   6.340   2.858   0.735
 9733SOL    HW229544   6.198   2.931   0.703
 9734SOL     OW29545   6.272   3.023   1.803
 9734SOL    HW129546   6.332   3.102   1.817
 9734SOL    HW229547   6.186   3.054   1.762
 9735SOL     OW29548   5.921   3.297   1.061
 9735SOL    HW129549   5.843   3.266   1.008
 9735SOL    HW229550   5.979   3.355   1.004
 9736SOL     OW29551   7.046   3.367   1.339
 9736SOL    HW129552   7.070   3.461   1.365
 9736SOL    HW229553   7.030   3.313   1.421
 9737SOL     OW29554   6.024   2.254   1.499
 9737SOL    HW129555   6.106   2.198   1.508
 9737SOL    HW229556   5.943   2.196   1.503
 9738SOL     OW29557   7.189   2.309   0.737
 9738SOL    HW129558   7.115   2.355   0.687
 9738SOL    HW229559   7.240   2.377   0.790
 9739SOL     OW29560   5.817   3.575   0.483
 9739SOL    HW129561   5.851   3.652   0.537
 9739SOL    HW229562   5.861   3.575   0.393
 9740SOL     OW29563   6.713   3.203   1.690
 9740SOL    HW129564   6.760   3.203   1.778
 9740SOL    HW229565   6.665   3.116   1.679
 9741SOL     OW29566   5.816   3.296   0.538
 9741SOL    HW129567   5.790   3.392   0.538
 9741SOL    HW229568   5.745   3.242   0.583
 9742SOL     OW29569   5.826   2.953   0.886
 9742SOL    HW129570   5.840   2.869   0.938
 9742SOL    HW229571   5.771   3.017   0.941
 9743SOL     OW29572   6.206   3.648   1.439
 9743SOL    HW129573   6.114   3.631   1.474
 9743SOL    HW229574   6.234   3.740   1.465
 9744SOL     OW29575   7.180   1.976   1.480
 9744SOL    HW129576   7.162   2.043   1.408
 9744SOL    HW229577   7.177   2.022   1.569
 9745SOL     OW29578   5.708   2.505   0.563
 9745SOL    HW129579   5.663   2.417   0.580
 9745SOL    HW229580   5.707   2.559   0.647
 9746SOL     OW29581   7.275   2.784   0.612
 9746SOL    HW129582   7.370   2.755   0.620
 9746SOL    HW229583   7.267   2.849   0.537
 9747SOL     OW29584   7.227   2.970   0.432
 9747SOL    HW129585   7.313   2.972   0.380
 9747SOL    HW229586   7.241   3.017   0.520
 9748SOL     OW29587   5.699   2.599   1.597
 9748SOL    HW129588   5.787   2.586   1.642
 9748SOL    HW229589   5.686   2.696   1.575
 9749SOL     OW29590   6.199   3.227   0.726
 9749SOL    HW129591   6.150   3.140   0.735
 9749SOL    HW229592   6.176   3.270   0.639
 9750SOL     OW29593   6.879   3.090   1.423
 9750SOL    HW129594   6.916   3.017   1.365
 9750SOL    HW229595   6.931   3.095   1.508
 9751SOL     OW29596   6.395   1.866   0.502
 9751SOL    HW129597   6.435   1.957   0.493
 9751SOL    HW229598   6.295   1.874   0.508
 9752SOL     OW29599   5.783   2.838   1.264
 9752SOL    HW129600   5.872   2.793   1.250
 9752SOL    HW229601   5.710   2.773   1.245
 9753SOL     OW29602   6.773   3.654   1.616
 9753SOL    HW129603   6.797   3.714   1.540
 9753SOL    HW229604   6.780   3.559   1.586
 9754SOL     OW29605   5.903   2.113   1.801
 9754SOL    HW129606   5.974   2.184   1.807
 9754SOL    HW229607   5.815   2.152   1.829
 9755SOL     OW29608   7.052   3.279   0.953
 9755SOL    HW129609   6.993   3.285   1.033
 9755SOL    HW229610   7.037   3.191   0.907
 9756SOL     OW29611   7.253   3.576   0.572
 9756SOL    HW129612   7.212   3.553   0.484
 9756SOL    HW229613   7.235   3.502   0.637
 9757SOL     OW29614   6.867   2.207   0.944
 9757SOL    HW129615   6.781   2.157   0.931
 9757SOL    HW229616   6.929   2.153   1.000
 9758SOL     OW29617   7.162   3.524   0.307
 9758SOL    HW129618   7.251   3.570   0.310
 9758SOL    HW229619   7.141   3.500   0.212
 9759SOL     OW29620   6.393   2.467   1.465
 9759SOL    HW129621   6.346   2.464   1.554
 9759SOL    HW229622   6.342   2.412   1.399
 9760SOL     OW29623   6.980   2.331   1.674
 9760SOL    HW129624   6.960   2.374   1.762
 9760SOL    HW229625   7.058   2.269   1.683
 9761SOL     OW29626   6.559   2.752   1.572
 9761SOL    HW129627   6.605   2.668   1.543
 9761SOL    HW229628   6.503   2.786   1.497
 9762SOL     OW29629   6.577   2.272   1.242
 9762SOL    HW129630   6.500   2.306   1.296
 9762SOL    HW229631   6.543   2.221   1.163
 9763SOL     OW29632   6.627   2.563   0.429
 9763SOL    HW129633   6.653   2.559   0.525
 9763SOL    HW229634   6.542   2.512   0.415
 9764SOL     OW29635   5.662   2.673   0.789
 9764SOL    HW129636   5.761   2.661   0.798
 9764SOL    HW229637   5.638   2.768   0.810
 9765SOL     OW29638   5.716   3.683   1.571
 9765SOL    HW129639   5.706   3.668   1.670
 9765SOL    HW229640   5.630   3.719   1.535
 9766SOL     OW29641   7.305   2.447   1.831
 9766SOL    HW129642   7.279   2.536   1.795
 9766SOL    HW229643   7.303   2.379   1.758
 9767SOL     OW29644   6.948   3.006   0.545
 9767SOL    HW129645   7.031   2.977   0.497
 9767SOL    HW229646   6.899   3.073   0.489
 9768SOL     OW29647   6.136   2.058   0.885
 9768SOL    HW129648   6.131   2.053   0.985
 9768SOL    HW229649   6.138   2.154   0.856
 9769SOL     OW29650   6.594   3.318   0.477
 9769SOL    HW129651   6.548   3.390   0.425
 9769SOL    HW229652   6.590   3.338   0.575
 9770SOL     OW29653   5.937   3.663   0.853
 9770SOL    HW129654   5.987   3.577   0.859
 9770SOL    HW229655   6.002   3.740   0.850
 9771SOL     OW29656   7.381   2.928   0.873
 9771SOL    HW129657   7.319   2.913   0.797
 9771SOL    HW229658   7.329   2.939   0.958
 9772SOL     OW29659   6.813   3.412   1.506
 9772SOL    HW129660   6.819   3.335   1.570
 9772SOL    HW229661   6.761   3.386   1.426
 9773SOL     OW29662   7.044   2.597   0.728
 9773SOL    HW129663   7.039   2.532   0.803
 9773SOL    HW229664   7.124   2.656   0.741
 9774SOL     OW29665   6.047   3.128   1.727
 9774SOL    HW129666   5.997   3.129   1.641
 9774SOL    HW229667   5.984   3.110   1.803
 9775SOL     OW29668   5.788   2.147   1.498
 9775SOL    HW129669   5.708   2.207   1.485
 9775SOL    HW229670   5.778   2.098   1.584
 9776SOL     OW29671   6.050   3.605   0.323
 9776SOL    HW129672   6.083   3.644   0.409
 9776SOL    HW229673   6.126   3.598   0.258
 9777SOL     OW29674   5.835   3.647   1.241
 9777SOL    HW129675   5.892   3.582   1.291
 9777SOL    HW229676   5.819   3.614   1.148
 9778SOL     OW29677   6.526   3.560   0.904
 9778SOL    HW129678   6.606   3.503   0.925
 9778SOL    HW229679   6.477   3.520   0.827
 9779SOL     OW29680   5.968   2.562   0.480
 9779SOL    HW129681   6.013   2.472   0.477
 9779SOL    HW229682   5.874   2.551   0.513
 9780SOL     OW29683   7.133   2.084   1.729
 9780SOL    HW129684   7.128   2.121   1.821
 9780SOL    HW229685   7.061   2.015   1.717
 9781SOL     OW29686   6.367   2.126   1.749
 9781SOL    HW129687   6.434   2.065   1.792
 9781SOL    HW229688   6.294   2.145   1.814
 9782SOL     OW29689   6.474   3.376   1.195
 9782SOL    HW129690   6.451   3.351   1.101
 9782SOL    HW229691   6.535   3.307   1.234
 9783SOL     OW29692   6.937   2.452   1.433
 9783SOL    HW129693   6.965   2.409   1.518
 9783SOL    HW229694   6.962   2.548   1.434
 9784SOL     OW29695   6.389   3.264   0.924
 9784SOL    HW129696   6.479   3.278   0.882
 9784SOL    HW229697   6.318   3.266   0.853
 9785SOL     OW29698   6.508   2.365   0.899
 9785SOL    HW129699   6.483   2.356   0.803
 9785SOL    HW229700   6.556   2.283   0.930
 9786SOL     OW29701   6.125   1.926   0.512
 9786SOL    HW129702   6.044   1.927   0.570
 9786SOL    HW229703   6.128   2.009   0.457
 9787SOL     OW29704   6.521   2.098   0.480
 9787SOL    HW129705   6.473   2.139   0.402
 9787SOL    HW229706   6.620   2.096   0.461
 9788SOL     OW29707   6.662   2.545   1.464
 9788SOL    HW129708   6.582   2.484   1.467
 9788SOL    HW229709   6.743   2.492   1.440
 9789SOL     OW29710   6.813   3.432   0.793
 9789SOL    HW129711   6.834   3.506   0.728
 9789SOL    HW229712   6.881   3.432   0.866
 9790SOL     OW29713   6.045   3.014   0.741
 9790SOL    HW129714   5.974   2.987   0.806
 9790SOL    HW229715   6.019   2.986   0.648
 9791SOL     OW29716   6.857   3.659   0.591
 9791SOL    HW129717   6.901   3.723   0.527
 9791SOL    HW229718   6.807   3.711   0.661
 9792SOL     OW29719   5.664   2.418   1.386
 9792SOL    HW129720   5.756   2.417   1.345
 9792SOL    HW229721   5.658   2.492   1.453
 9793SOL     OW29722   6.147   2.084   1.147
 9793SOL    HW129723   6.185   2.000   1.184
 9793SOL    HW229724   6.059   2.103   1.191
 9794SOL     OW29725   6.452   2.316   0.642
 9794SOL    HW129726   6.420   2.388   0.580
 9794SOL    HW229727   6.476   2.235   0.589
 9795SOL     OW29728   6.603   1.901   0.753
 9795SOL    HW129729   6.531   1.906   0.684
 9795SOL    HW229730   6.579   1.832   0.822
 9796SOL     OW29731   7.015   3.035   0.867
 9796SOL    HW129732   6.960   2.951   0.860
 9796SOL    HW229733   7.041   3.064   0.775
 9797SOL     OW29734   7.052   2.452   0.992
 9797SOL    HW129735   7.022   2.357   0.999
 9797SOL    HW229736   7.125   2.468   1.058
 9798SOL     OW29737   7.443   2.695   0.377
 9798SOL    HW129738   7.485   2.631   0.441
 9798SOL    HW229739   7.405   2.644   0.299
 9799SOL     OW29740   7.250   3.142   0.657
 9799SOL    HW129741   7.349   3.150   0.671
 9799SOL    HW229742   7.205   3.226   0.688
 9800SOL     OW29743   6.113   2.118   0.328
 9800SOL    HW129744   6.140   2.059   0.253
 9800SOL    HW229745   6.113   2.213   0.297
 9801SOL     OW29746   7.340   3.085   1.588
 9801SOL    HW129747   7.431   3.046   1.575
 9801SOL    HW229748   7.348   3.181   1.612
 9802SOL     OW29749   6.650   3.209   1.340
 9802SOL    HW129750   6.570   3.186   1.395
 9802SOL    HW229751   6.733   3.183   1.389
 9803SOL     OW29752   7.178   3.491   1.625
 9803SOL    HW129753   7.205   3.525   1.535
 9803SOL    HW229754   7.257   3.453   1.671
 9804SOL     OW29755   6.697   3.057   1.100
 9804SOL    HW129756   6.657   3.101   1.181
 9804SOL    HW229757   6.656   3.094   1.017
 9805SOL     OW29758   7.224   2.961   1.079
 9805SOL    HW129759   7.229   3.042   1.138
 9805SOL    HW229760   7.138   2.963   1.028
 9806SOL     OW29761   6.501   1.951   1.402
 9806SOL    HW129762   6.526   1.931   1.307
 9806SOL    HW229763   6.573   2.007   1.444
 9807SOL     OW29764   6.566   2.978   1.719
 9807SOL    HW129765   6.467   2.984   1.729
 9807SOL    HW229766   6.589   2.898   1.663
 9808SOL     OW29767   6.291   2.912   0.368
 9808SOL    HW129768   6.277   2.919   0.467
 9808SOL    HW229769   6.375   2.861   0.350
 9809SOL     OW29770   5.996   2.675   1.251
 9809SOL    HW129771   6.082   2.687   1.301
 9809SOL    HW229772   5.954   2.588   1.278
 9810SOL     OW29773   6.860   2.248   1.262
 9810SOL    HW129774   6.881   2.322   1.326
 9810SOL    HW229775   6.771   2.265   1.219
 9811SOL     OW29776   5.650   3.426   1.331
 9811SOL    HW129777   5.604   3.508   1.297
 9811SOL    HW229778   5.748   3.445   1.340
 9812SOL     OW29779   5.953   2.962   0.501
 9812SOL    HW129780   5.946   3.045   0.445
 9812SOL    HW229781   5.957   2.882   0.441
 9813SOL     OW29782   6.152   2.399   0.865
 9813SOL    HW129783   6.164   2.465   0.791
 9813SOL    HW229784   6.198   2.433   0.948
 9814SOL     OW29785   6.838   3.210   0.388
 9814SOL    HW129786   6.888   3.287   0.428
 9814SOL    HW229787   6.743   3.212   0.420
 9815SOL     OW29788   6.858   3.307   1.142
 9815SOL    HW129789   6.905   3.320   1.229
 9815SOL    HW229790   6.792   3.233   1.151
 9816SOL     OW29791   7.168   2.501   0.472
 9816SOL    HW129792   7.137   2.562   0.545
 9816SOL    HW229793   7.218   2.553   0.403
 9817SOL     OW29794   5.940   3.372   1.329
 9817SOL    HW129795   5.919   3.328   1.242
 9817SOL    HW229796   6.037   3.398   1.332
 9818SOL     OW29797   5.988   2.613   1.598
 9818SOL    HW129798   6.056   2.668   1.551
 9818SOL    HW229799   6.028   2.525   1.625
 9819SOL     OW29800   7.173   2.641   1.670
 9819SOL    HW129801   7.081   2.679   1.665
 9819SOL    HW229802   7.233   2.688   1.605
 9820SOL     OW29803   6.599   1.967   1.770
 9820SOL    HW129804   6.605   2.052   1.718
 9820SOL    HW229805   6.631   1.891   1.713
 9821SOL     OW29806   6.090   1.912   1.740
 9821SOL    HW129807   6.048   1.855   1.670
 9821SOL    HW229808   6.024   1.981   1.772
 9822SOL     OW29809   6.159   2.732   1.029
 9822SOL    HW129810   6.203   2.821   1.020
 9822SOL    HW229811   6.096   2.732   1.106
 9823SOL     OW29812   6.946   2.724   1.045
 9823SOL    HW129813   6.871   2.724   0.979
 9823SOL    HW229814   6.983   2.632   1.054
 9824SOL     OW29815   5.893   2.075   1.231
 9824SOL    HW129816   5.870   2.112   1.321
 9824SOL    HW229817   5.863   1.980   1.225
 9825SOL     OW29818   5.623   3.172   1.282
 9825SOL    HW129819   5.676   3.123   1.350
 9825SOL    HW229820   5.645   3.270   1.287
 9826SOL     OW29821   6.318   2.496   1.064
 9826SOL    HW129822   6.377   2.470   0.988
 9826SOL    HW229823   6.290   2.592   1.053
 9827SOL     OW29824   7.314   2.797   1.854
 9827SOL    HW129825   7.268   2.790   1.765
 9827SOL    HW229826   7.252   2.841   1.920
 9828SOL     OW29827   5.893   1.925   0.618
 9828SOL    HW129828   5.882   2.019   0.651
 9828SOL    HW229829   5.888   1.862   0.695
 9829SOL     OW29830   6.609   2.628   0.966
 9829SOL    HW129831   6.624   2.649   1.062
 9829SOL    HW229832   6.579   2.533   0.957
 9830SOL     OW29833   6.566   3.435   1.700
 9830SOL    HW129834   6.546   3.479   1.612
 9830SOL    HW229835   6.605   3.344   1.684
 9831SOL     OW29836   7.445   3.380   1.605
 9831SOL    HW129837   7.459   3.407   1.510
 9831SOL    HW229838   7.528   3.402   1.658
 9832SOL     OW29839   5.936   2.760   1.804
 9832SOL    HW129840   6.012   2.804   1.852
 9832SOL    HW229841   5.971   2.713   1.722
 9833SOL     OW29842   6.654   3.195   0.849
 9833SOL    HW129843   6.661   3.111   0.794
 9833SOL    HW229844   6.716   3.264   0.813
 9834SOL     OW29845   5.905   2.672   0.949
 9834SOL    HW129846   5.998   2.708   0.954
 9834SOL    HW229847   5.899   2.587   1.001
 9835SOL     OW29848   5.925   2.371   1.006
 9835SOL    HW129849   5.873   2.288   0.989
 9835SOL    HW229850   6.002   2.376   0.942
 9836SOL     OW29851   6.724   2.242   1.678
 9836SOL    HW129852   6.679   2.305   1.742
 9836SOL    HW229853   6.817   2.273   1.661
 9837SOL     OW29854   6.746   2.069   1.477
 9837SOL    HW129855   6.746   2.133   1.554
 9837SOL    HW229856   6.774   2.117   1.394
 9838SOL     OW29857   5.674   3.663   0.927
 9838SOL    HW129858   5.632   3.577   0.900
 9838SOL    HW229859   5.768   3.666   0.893
 9839SOL     OW29860   6.090   3.430   0.910
 9839SOL    HW129861   6.156   3.504   0.919
 9839SOL    HW229862   6.134   3.351   0.868
 9840SOL     OW29863   6.588   2.658   1.238
 9840SOL    HW129864   6.629   2.626   1.324
 9840SOL    HW229865   6.492   2.631   1.235
 9841SOL     OW29866   5.626   2.406   1.114
 9841SOL    HW129867   5.711   2.373   1.073
 9841SOL    HW229868   5.639   2.421   1.212
 9842SOL     OW29869   5.775   2.382   1.722
 9842SOL    HW129870   5.834   2.342   1.652
 9842SOL    HW229871   5.717   2.453   1.681
 9843SOL     OW29872   6.955   2.812   1.660
 9843SOL    HW129873   6.994   2.901   1.680
 9843SOL    HW229874   6.965   2.792   1.563
 9844SOL     OW29875   7.243   2.466   1.206
 9844SOL    HW129876   7.205   2.397   1.268
 9844SOL    HW229877   7.325   2.430   1.162
 9845SOL     OW29878   5.838   3.426   1.744
 9845SOL    HW129879   5.808   3.483   1.820
 9845SOL    HW229880   5.831   3.329   1.770
 9846SOL     OW29881   6.257   2.326   1.269
 9846SOL    HW129882   6.223   2.237   1.239
 9846SOL    HW229883   6.283   2.380   1.189
 9847SOL     OW29884   6.516   3.540   1.465
 9847SOL    HW129885   6.492   3.522   1.370
 9847SOL    HW229886   6.546   3.634   1.475
 9848SOL     OW29887   5.745   2.999   1.466
 9848SOL    HW129888   5.767   2.938   1.542
 9848SOL    HW229889   5.755   2.950   1.380
 9849SOL     OW29890   6.933   2.921   1.234
 9849SOL    HW129891   6.957   2.858   1.160
 9849SOL    HW229892   6.843   2.961   1.216
 9850SOL     OW29893   7.345   3.609   1.154
 9850SOL    HW129894   7.406   3.639   1.081
 9850SOL    HW229895   7.307   3.520   1.132
 9851SOL     OW29896   6.838   3.593   1.128
 9851SOL    HW129897   6.922   3.598   1.074
 9851SOL    HW229898   6.815   3.497   1.146
 9852SOL     OW29899   5.669   3.120   1.022
 9852SOL    HW129900   5.664   3.119   1.122
 9852SOL    HW229901   5.586   3.079   0.984
 9853SOL     OW29902   6.274   3.524   1.716
 9853SOL    HW129903   6.218   3.605   1.725
 9853SOL    HW229904   6.326   3.528   1.630
 9854SOL     OW29905   7.312   1.997   0.523
 9854SOL    HW129906   7.385   1.980   0.456
 9854SOL    HW229907   7.281   1.910   0.561
 9855SOL     OW29908   6.974   3.435   0.477
 9855SOL    HW129909   7.041   3.447   0.403
 9855SOL    HW229910   6.934   3.524   0.500
 9856SOL     OW29911   5.716   3.656   1.851
 9856SOL    HW129912   5.675   3.582   1.904
 9856SOL    HW229913   5.780   3.707   1.909
 9857SOL     OW29914   6.866   2.789   0.672
 9857SOL    HW129915   6.926   2.708   0.674
 9857SOL    HW229916   6.906   2.858   0.612
 9858SOL     OW29917   6.416   3.135   1.422
 9858SOL    HW129918   6.411   3.168   1.517
 9858SOL    HW229919   6.330   3.154   1.376
 9859SOL     OW29920   7.236   3.582   1.394
 9859SOL    HW129921   7.289   3.592   1.310
 9859SOL    HW229922   7.209   3.672   1.428
 9860SOL     OW29923   7.427   2.037   0.963
 9860SOL    HW129924   7.466   1.952   0.927
 9860SOL    HW229925   7.329   2.039   0.944
 9861SOL     OW29926   5.849   2.188   0.720
 9861SOL    HW129927   5.770   2.239   0.686
 9861SOL    HW229928   5.840   2.173   0.818
 9862SOL     OW29929   6.408   2.864   1.372
 9862SOL    HW129930   6.448   2.863   1.280
 9862SOL    HW229931   6.418   2.956   1.412
 9863SOL     OW29932   6.502   2.772   0.291
 9863SOL    HW129933   6.565   2.810   0.223
 9863SOL    HW229934   6.542   2.689   0.330
 9864SOL     OW29935   5.958   3.150   1.490
 9864SOL    HW129936   5.945   3.243   1.456
 9864SOL    HW229937   5.874   3.098   1.477
 9865SOL     OW29938   7.200   3.154   1.289
 9865SOL    HW129939   7.260   3.157   1.369
 9865SOL    HW229940   7.125   3.218   1.302
 9866SOL     OW29941   6.625   2.960   0.696
 9866SOL    HW129942   6.555   2.913   0.750
 9866SOL    HW229943   6.684   2.892   0.653
 9867SOL     OW29944   6.600   2.098   0.971
 9867SOL    HW129945   6.592   2.062   0.878
 9867SOL    HW229946   6.598   2.022   1.036
 9868SOL     OW29947   6.176   3.349   0.491
 9868SOL    HW129948   6.218   3.291   0.421
 9868SOL    HW229949   6.132   3.428   0.447
 9869SOL     OW29950   7.295   2.247   1.381
 9869SOL    HW129951   7.368   2.316   1.385
 9869SOL    HW229952   7.323   2.172   1.322
 9870SOL     OW29953   5.691   2.875   1.726
 9870SOL    HW129954   5.614   2.842   1.780
 9870SOL    HW229955   5.776   2.845   1.768
 9871SOL     OW29956   6.258   2.065   1.489
 9871SOL    HW129957   6.348   2.049   1.449
 9871SOL    HW229958   6.266   2.070   1.588
 9872SOL     OW29959   7.026   2.718   1.398
 9872SOL    HW129960   6.969   2.770   1.335
 9872SOL    HW229961   7.122   2.730   1.374
 9873SOL     OW29962   5.658   2.028   0.318
 9873SOL    HW129963   5.641   2.111   0.264
 9873SOL    HW229964   5.748   1.991   0.296
 9874SOL     OW29965   6.199   2.704   1.431
 9874SOL    HW129966   6.255   2.785   1.414
 9874SOL    HW229967   6.258   2.624   1.434
 9875SOL     OW29968   7.079   3.629   0.959
 9875SOL    HW129969   7.112   3.693   0.890
 9875SOL    HW229970   7.145   3.623   1.034
 9876SOL     OW29971   6.302   2.427   1.708
 9876SOL    HW129972   6.321   2.492   1.782
 9876SOL    HW229973   6.362   2.347   1.717
 9877SOL     OW29974   7.036   3.082   1.633
 9877SOL    HW129975   7.027   3.072   1.732
 9877SOL    HW229976   7.132   3.075   1.607
 9878SOL     OW29977   5.976   3.603   1.560
 9878SOL    HW129978   5.885   3.644   1.558
 9878SOL    HW229979   5.969   3.509   1.592
 9879SOL     OW29980   7.260   2.745   1.254
 9879SOL    HW129981   7.233   2.656   1.217
 9879SOL    HW229982   7.261   2.813   1.181
 9880SOL     OW29983   6.180   2.607   0.652
 9880SOL    HW129984   6.230   2.692   0.633
 9880SOL    HW229985   6.092   2.609   0.604
 9881SOL     OW29986   7.363   2.204   1.642
 9881SOL    HW129987   7.346   2.235   1.548
 9881SOL    HW229988   7.279   2.167   1.680
 9882SOL     OW29989   7.316   2.796   1.517
 9882SOL    HW129990   7.354   2.887   1.532
 9882SOL    HW229991   7.308   2.779   1.418
 9883SOL     OW29992   6.247   3.652   0.953
 9883SOL    HW129993   6.201   3.740   0.940
 9883SOL    HW229994   6.346   3.664   0.946
 9884SOL     OW29995   6.445   2.818   0.861
 9884SOL    HW129996   6.499   2.749   0.909
 9884SOL    HW229997   6.413   2.887   0.927
 9885SOL     OW29998   7.447   3.431   0.851
 9885SOL    HW129999   7.376   3.419   0.781
 9885SOL    HW230000   7.448   3.352   0.911
 9886SOL     OW30001   5.807   3.176   1.844
 9886SOL    HW130002   5.742   3.103   1.823
 9886SOL    HW230003   5.811   3.190   1.942
 9887SOL     OW30004   5.665   3.102   0.653
 9887SOL    HW130005   5.664   3.055   0.741
 9887SOL    HW230006   5.747   3.074   0.602
 9888SOL     OW30007   7.410   2.054   1.227
 9888SOL    HW130008   7.406   1.964   1.271
 9888SOL    HW230009   7.413   2.043   1.128
 9889SOL     OW30010   6.014   2.286   0.520
 9889SOL    HW130011   6.044   2.214   0.458
 9889SOL    HW230012   5.975   2.246   0.603
 9890SOL     OW30013   7.291   3.349   1.104
 9890SOL    HW130014   7.198   3.324   1.077
 9890SOL    HW230015   7.317   3.299   1.186
 9891SOL     OW30016   5.903   2.409   1.280
 9891SOL    HW130017   5.941   2.350   1.352
 9891SOL    HW230018   5.943   2.383   1.192
 9892SOL     OW30019   6.398   3.448   0.687
 9892SOL    HW130020   6.430   3.458   0.593
 9892SOL    HW230021   6.319   3.386   0.689
 9893SOL     OW30022   7.010   2.076   1.112
 9893SOL    HW130023   7.062   2.011   1.167
 9893SOL    HW230024   6.961   2.139   1.173
 9894SOL     OW30025   6.587   1.896   1.154
 9894SOL    HW130026   6.524   1.824   1.123
 9894SOL    HW230027   6.680   1.860   1.154
 9895SOL     OW30028   6.204   3.429   1.284
 9895SOL    HW130029   6.199   3.511   1.341
 9895SOL    HW230030   6.293   3.426   1.239
 9896SOL     OW30031   6.886   2.315   0.691
 9896SOL    HW130032   6.827   2.395   0.695
 9896SOL    HW230033   6.901   2.280   0.784
 9897SOL     OW30034   7.179   2.083   0.882
 9897SOL    HW130035   7.095   2.082   0.936
 9897SOL    HW230036   7.181   2.166   0.826
 9898SOL     OW30037   5.816   2.490   1.975
 9898SOL    HW130038   5.723   2.488   2.012
 9898SOL    HW230039   5.817   2.451   1.883
 9899SOL     OW30040   5.811   2.137   2.858
 9899SOL    HW130041   5.846   2.120   2.950
 9899SOL    HW230042   5.723   2.092   2.846
 9900SOL     OW30043   5.605   2.230   2.509
 9900SOL    HW130044   5.523   2.273   2.548
 9900SOL    HW230045   5.577   2.157   2.446
 9901SOL     OW30046   6.155   3.137   3.027
 9901SOL    HW130047   6.062   3.130   2.990
 9901SOL    HW230048   6.166   3.226   3.071
 9902SOL     OW30049   7.141   3.373   2.565
 9902SOL    HW130050   7.084   3.357   2.646
 9902SOL    HW230051   7.082   3.383   2.485
 9903SOL     OW30052   6.721   2.565   2.579
 9903SOL    HW130053   6.778   2.643   2.554
 9903SOL    HW230054   6.661   2.591   2.655
 9904SOL     OW30055   7.341   2.469   2.093
 9904SOL    HW130056   7.329   2.456   1.994
 9904SOL    HW230057   7.311   2.388   2.142
 9905SOL     OW30058   6.354   3.006   2.885
 9905SOL    HW130059   6.276   3.023   2.945
 9905SOL    HW230060   6.388   3.093   2.849
 9906SOL     OW30061   6.436   2.660   3.685
 9906SOL    HW130062   6.432   2.736   3.750
 9906SOL    HW230063   6.458   2.696   3.594
 9907SOL     OW30064   6.271   2.874   2.527
 9907SOL    HW130065   6.340   2.858   2.597
 9907SOL    HW230066   6.198   2.931   2.565
 9908SOL     OW30067   6.272   3.023   3.665
 9908SOL    HW130068   6.332   3.102   3.679
 9908SOL    HW230069   6.186   3.054   3.624
 9909SOL     OW30070   5.921   3.297   2.923
 9909SOL    HW130071   5.843   3.266   2.870
 9909SOL    HW230072   5.979   3.355   2.866
 9910SOL     OW30073   7.046   3.367   3.201
 9910SOL    HW130074   7.070   3.461   3.227
 9910SOL    HW230075   7.030   3.313   3.283
 9911SOL     OW30076   6.024   2.254   3.361
 9911SOL    HW130077   6.106   2.198   3.370
 9911SOL    HW230078   5.943   2.196   3.365
 9912SOL     OW30079   7.189   2.309   2.599
 9912SOL    HW130080   7.115   2.355   2.549
 9912SOL    HW230081   7.240   2.377   2.652
 9913SOL     OW30082   5.817   3.575   2.345
 9913SOL    HW130083   5.851   3.652   2.399
 9913SOL    HW230084   5.861   3.575   2.255
 9914SOL     OW30085   6.713   3.203   3.552
 9914SOL    HW130086   6.760   3.203   3.640
 9914SOL    HW230087   6.665   3.116   3.541
 9915SOL     OW30088   5.816   3.296   2.400
 9915SOL    HW130089   5.790   3.392   2.400
 9915SOL    HW230090   5.745   3.242   2.445
 9916SOL     OW30091   5.826   2.953   2.748
 9916SOL    HW130092   5.840   2.869   2.800
 9916SOL    HW230093   5.771   3.017   2.803
 9917SOL     OW30094   6.206   3.648   3.301
 9917SOL    HW130095   6.114   3.631   3.336
 9917SOL    HW230096   6.234   3.740   3.327
 9918SOL     OW30097   6.192   2.826   1.985
 9918SOL    HW130098   6.199   2.910   1.931
 9918SOL    HW230099   6.238   2.839   2.073
 9919SOL     OW30100   7.180   1.976   3.342
 9919SOL    HW130101   7.162   2.043   3.270
 9919SOL    HW230102   7.177   2.022   3.431
 9920SOL     OW30103   5.708   2.505   2.425
 9920SOL    HW130104   5.663   2.417   2.442
 9920SOL    HW230105   5.707   2.559   2.509
 9921SOL     OW30106   7.428   3.629   2.221
 9921SOL    HW130107   7.482   3.600   2.301
 9921SOL    HW230108   7.458   3.719   2.192
 9922SOL     OW30109   5.613   3.458   1.979
 9922SOL    HW130110   5.594   3.362   2.000
 9922SOL    HW230111   5.580   3.516   2.054
 9923SOL     OW30112   7.275   2.784   2.474
 9923SOL    HW130113   7.370   2.755   2.482
 9923SOL    HW230114   7.267   2.849   2.399
 9924SOL     OW30115   7.227   2.970   2.294
 9924SOL    HW130116   7.313   2.972   2.242
 9924SOL    HW230117   7.241   3.017   2.382
 9925SOL     OW30118   5.699   2.599   3.459
 9925SOL    HW130119   5.787   2.586   3.504
 9925SOL    HW230120   5.686   2.696   3.437
 9926SOL     OW30121   6.199   3.227   2.588
 9926SOL    HW130122   6.150   3.140   2.597
 9926SOL    HW230123   6.176   3.270   2.501
 9927SOL     OW30124   6.879   3.090   3.285
 9927SOL    HW130125   6.916   3.017   3.227
 9927SOL    HW230126   6.931   3.095   3.370
 9928SOL     OW30127   6.395   1.866   2.364
 9928SOL    HW130128   6.435   1.957   2.355
 9928SOL    HW230129   6.295   1.874   2.370
 9929SOL     OW30130   5.783   2.838   3.126
 9929SOL    HW130131   5.872   2.793   3.112
 9929SOL    HW230132   5.710   2.773   3.107
 9930SOL     OW30133   7.111   2.861   2.052
 9930SOL    HW130134   7.048   2.785   2.065
 9930SOL    HW230135   7.159   2.879   2.138
 9931SOL     OW30136   6.773   3.654   3.478
 9931SOL    HW130137   6.797   3.714   3.402
 9931SOL    HW230138   6.780   3.559   3.448
 9932SOL     OW30139   5.903   2.113   3.663
 9932SOL    HW130140   5.974   2.184   3.669
 9932SOL    HW230141   5.815   2.152   3.691
 9933SOL     OW30142   7.052   3.279   2.815
 9933SOL    HW130143   6.993   3.285   2.895
 9933SOL    HW230144   7.037   3.191   2.769
 9934SOL     OW30145   7.253   3.576   2.434
 9934SOL    HW130146   7.212   3.553   2.346
 9934SOL    HW230147   7.235   3.502   2.499
 9935SOL     OW30148   6.184   2.591   2.132
 9935SOL    HW130149   6.208   2.660   2.064
 9935SOL    HW230150   6.106   2.624   2.186
 9936SOL     OW30151   6.867   2.207   2.806
 9936SOL    HW130152   6.781   2.157   2.793
 9936SOL    HW230153   6.929   2.153   2.862
 9937SOL     OW30154   7.162   3.524   2.169
 9937SOL    HW130155   7.251   3.570   2.172
 9937SOL    HW230156   7.141   3.500   2.074
 9938SOL     OW30157   6.393   2.467   3.327
 9938SOL    HW130158   6.346   2.464   3.416
 9938SOL    HW230159   6.342   2.412   3.261
 9939SOL     OW30160   6.980   2.331   3.536
 9939SOL    HW130161   6.960   2.374   3.624
 9939SOL    HW230162   7.058   2.269   3.545
 9940SOL     OW30163   6.559   2.752   3.434
 9940SOL    HW130164   6.605   2.668   3.405
 9940SOL    HW230165   6.503   2.786   3.359
 9941SOL     OW30166   6.577   2.272   3.104
 9941SOL    HW130167   6.500   2.306   3.158
 9941SOL    HW230168   6.543   2.221   3.025
 9942SOL     OW30169   6.627   2.563   2.291
 9942SOL    HW130170   6.653   2.559   2.387
 9942SOL    HW230171   6.542   2.512   2.277
 9943SOL     OW30172   5.662   2.673   2.651
 9943SOL    HW130173   5.761   2.661   2.660
 9943SOL    HW230174   5.638   2.768   2.672
 9944SOL     OW30175   5.716   3.683   3.433
 9944SOL    HW130176   5.706   3.668   3.532
 9944SOL    HW230177   5.630   3.719   3.397
 9945SOL     OW30178   6.451   2.210   2.057
 9945SOL    HW130179   6.510   2.273   2.008
 9945SOL    HW230180   6.470   2.116   2.028
 9946SOL     OW30181   7.305   2.447   3.693
 9946SOL    HW130182   7.279   2.536   3.657
 9946SOL    HW230183   7.303   2.379   3.620
 9947SOL     OW30184   6.948   3.006   2.407
 9947SOL    HW130185   7.031   2.977   2.359
 9947SOL    HW230186   6.899   3.073   2.351
 9948SOL     OW30187   6.136   2.058   2.747
 9948SOL    HW130188   6.131   2.053   2.847
 9948SOL    HW230189   6.138   2.154   2.718
 9949SOL     OW30190   6.594   3.318   2.339
 9949SOL    HW130191   6.548   3.390   2.287
 9949SOL    HW230192   6.590   3.338   2.437
 9950SOL     OW30193   5.937   3.663   2.715
 9950SOL    HW130194   5.987   3.577   2.721
 9950SOL    HW230195   6.002   3.740   2.712
 9951SOL     OW30196   7.381   2.928   2.735
 9951SOL    HW130197   7.319   2.913   2.659
 9951SOL    HW230198   7.329   2.939   2.820
 9952SOL     OW30199   6.813   3.412   3.368
 9952SOL    HW130200   6.819   3.335   3.432
 9952SOL    HW230201   6.761   3.386   3.288
 9953SOL     OW30202   5.907   2.805   2.104
 9953SOL    HW130203   5.989   2.844   2.062
 9953SOL    HW230204   5.880   2.723   2.055
 9954SOL     OW30205   7.044   2.597   2.590
 9954SOL    HW130206   7.039   2.532   2.665
 9954SOL    HW230207   7.124   2.656   2.603
 9955SOL     OW30208   6.047   3.128   3.589
 9955SOL    HW130209   5.997   3.129   3.503
 9955SOL    HW230210   5.984   3.110   3.665
 9956SOL     OW30211   6.697   3.638   2.099
 9956SOL    HW130212   6.637   3.576   2.149
 9956SOL    HW230213   6.728   3.594   2.014
 9957SOL     OW30214   5.788   2.147   3.360
 9957SOL    HW130215   5.708   2.207   3.347
 9957SOL    HW230216   5.778   2.098   3.446
 9958SOL     OW30217   7.218   3.239   1.943
 9958SOL    HW130218   7.186   3.333   1.933
 9958SOL    HW230219   7.142   3.176   1.931
 9959SOL     OW30220   6.050   3.605   2.185
 9959SOL    HW130221   6.083   3.644   2.271
 9959SOL    HW230222   6.126   3.598   2.120
 9960SOL     OW30223   6.986   1.969   2.288
 9960SOL    HW130224   6.962   1.932   2.198
 9960SOL    HW230225   7.085   1.985   2.292
 9961SOL     OW30226   5.835   3.647   3.103
 9961SOL    HW130227   5.892   3.582   3.153
 9961SOL    HW230228   5.819   3.614   3.010
 9962SOL     OW30229   6.526   3.560   2.766
 9962SOL    HW130230   6.606   3.503   2.787
 9962SOL    HW230231   6.477   3.520   2.689
 9963SOL     OW30232   5.968   2.562   2.342
 9963SOL    HW130233   6.013   2.472   2.339
 9963SOL    HW230234   5.874   2.551   2.375
 9964SOL     OW30235   7.133   2.084   3.591
 9964SOL    HW130236   7.128   2.121   3.683
 9964SOL    HW230237   7.061   2.015   3.579
 9965SOL     OW30238   6.200   1.984   1.979
 9965SOL    HW130239   6.298   1.962   1.986
 9965SOL    HW230240   6.169   1.967   1.886
 9966SOL     OW30241   6.367   2.126   3.611
 9966SOL    HW130242   6.434   2.065   3.654
 9966SOL    HW230243   6.294   2.145   3.676
 9967SOL     OW30244   6.474   3.376   3.057
 9967SOL    HW130245   6.451   3.351   2.963
 9967SOL    HW230246   6.535   3.307   3.096
 9968SOL     OW30247   6.937   2.452   3.295
 9968SOL    HW130248   6.965   2.409   3.380
 9968SOL    HW230249   6.962   2.548   3.296
 9969SOL     OW30250   6.389   3.264   2.786
 9969SOL    HW130251   6.479   3.278   2.744
 9969SOL    HW230252   6.318   3.266   2.715
 9970SOL     OW30253   6.508   2.365   2.761
 9970SOL    HW130254   6.483   2.356   2.665
 9970SOL    HW230255   6.556   2.283   2.792
 9971SOL     OW30256   6.125   1.926   2.374
 9971SOL    HW130257   6.044   1.927   2.432
 9971SOL    HW230258   6.128   2.009   2.319
 9972SOL     OW30259   7.020   3.050   1.903
 9972SOL    HW130260   7.052   2.974   1.960
 9972SOL    HW230261   6.928   3.077   1.933
 9973SOL     OW30262   5.883   1.897   2.033
 9973SOL    HW130263   5.932   1.981   2.012
 9973SOL    HW230264   5.945   1.832   2.078
 9974SOL     OW30265   6.521   2.098   2.342
 9974SOL    HW130266   6.473   2.139   2.264
 9974SOL    HW230267   6.620   2.096   2.323
 9975SOL     OW30268   6.662   2.545   3.326
 9975SOL    HW130269   6.582   2.484   3.329
 9975SOL    HW230270   6.743   2.492   3.302
 9976SOL     OW30271   6.813   3.432   2.655
 9976SOL    HW130272   6.834   3.506   2.590
 9976SOL    HW230273   6.881   3.432   2.728
 9977SOL     OW30274   6.045   3.014   2.603
 9977SOL    HW130275   5.974   2.987   2.668
 9977SOL    HW230276   6.019   2.986   2.510
 9978SOL     OW30277   6.857   3.659   2.453
 9978SOL    HW130278   6.901   3.723   2.389
 9978SOL    HW230279   6.807   3.711   2.523
 9979SOL     OW30280   6.618   2.411   1.878
 9979SOL    HW130281   6.577   2.493   1.839
 9979SOL    HW230282   6.682   2.437   1.951
 9980SOL     OW30283   5.664   2.418   3.248
 9980SOL    HW130284   5.756   2.417   3.207
 9980SOL    HW230285   5.658   2.492   3.315
 9981SOL     OW30286   6.147   2.084   3.009
 9981SOL    HW130287   6.185   2.000   3.046
 9981SOL    HW230288   6.059   2.103   3.053
 9982SOL     OW30289   6.452   2.316   2.504
 9982SOL    HW130290   6.420   2.388   2.442
 9982SOL    HW230291   6.476   2.235   2.451
 9983SOL     OW30292   6.603   1.901   2.615
 9983SOL    HW130293   6.531   1.906   2.546
 9983SOL    HW230294   6.579   1.832   2.684
 9984SOL     OW30295   7.015   3.035   2.729
 9984SOL    HW130296   6.960   2.951   2.722
 9984SOL    HW230297   7.041   3.064   2.637
 9985SOL     OW30298   7.052   2.452   2.854
 9985SOL    HW130299   7.022   2.357   2.861
 9985SOL    HW230300   7.125   2.468   2.920
 9986SOL     OW30301   7.443   2.695   2.239
 9986SOL    HW130302   7.485   2.631   2.303
 9986SOL    HW230303   7.405   2.644   2.161
 9987SOL     OW30304   6.074   3.247   2.036
 9987SOL    HW130305   5.987   3.232   2.083
 9987SOL    HW230306   6.057   3.273   1.941
 9988SOL     OW30307   7.250   3.142   2.519
 9988SOL    HW130308   7.349   3.150   2.533
 9988SOL    HW230309   7.205   3.226   2.550
 9989SOL     OW30310   6.976   2.437   1.940
 9989SOL    HW130311   6.922   2.416   2.021
 9989SOL    HW230312   7.067   2.396   1.949
 9990SOL     OW30313   6.113   2.118   2.190
 9990SOL    HW130314   6.140   2.059   2.115
 9990SOL    HW230315   6.113   2.213   2.159
 9991SOL     OW30316   7.340   3.085   3.450
 9991SOL    HW130317   7.431   3.046   3.437
 9991SOL    HW230318   7.348   3.181   3.474
 9992SOL     OW30319   6.650   3.209   3.202
 9992SOL    HW130320   6.570   3.186   3.257
 9992SOL    HW230321   6.733   3.183   3.251
 9993SOL     OW30322   7.178   3.491   3.487
 9993SOL    HW130323   7.205   3.525   3.397
 9993SOL    HW230324   7.257   3.453   3.533
 9994SOL     OW30325   6.697   3.057   2.962
 9994SOL    HW130326   6.657   3.101   3.043
 9994SOL    HW230327   6.656   3.094   2.879
 9995SOL     OW30328   7.224   2.961   2.941
 9995SOL    HW130329   7.229   3.042   3.000
 9995SOL    HW230330   7.138   2.963   2.890
 9996SOL     OW30331   6.501   1.951   3.264
 9996SOL    HW130332   6.526   1.931   3.169
 9996SOL    HW230333   6.573   2.007   3.306
 9997SOL     OW30334   6.566   2.978   3.581
 9997SOL    HW130335   6.467   2.984   3.591
 9997SOL    HW230336   6.589   2.898   3.525
 9998SOL     OW30337   6.291   2.912   2.230
 9998SOL    HW130338   6.277   2.919   2.329
 9998SOL    HW230339   6.375   2.861   2.212
 9999SOL     OW30340   5.996   2.675   3.113
 9999SOL    HW130341   6.082   2.687   3.163
 9999SOL    HW230342   5.954   2.588   3.140
10000SOL     OW30343   6.860   2.248   3.124
10000SOL    HW130344   6.881   2.322   3.188
10000SOL    HW230345   6.771   2.265   3.081
10001SOL     OW30346   5.650   3.426   3.193
10001SOL    HW130347   5.604   3.508   3.159
10001SOL    HW230348   5.748   3.445   3.202
10002SOL     OW30349   5.953   2.962   2.363
10002SOL    HW130350   5.946   3.045   2.307
10002SOL    HW230351   5.957   2.882   2.303
10003SOL     OW30352   6.152   2.399   2.727
10003SOL    HW130353   6.164   2.465   2.653
10003SOL    HW230354   6.198   2.433   2.810
10004SOL     OW30355   6.838   3.210   2.250
10004SOL    HW130356   6.888   3.287   2.290
10004SOL    HW230357   6.743   3.212   2.282
10005SOL     OW30358   6.858   3.307   3.004
10005SOL    HW130359   6.905   3.320   3.091
10005SOL    HW230360   6.792   3.233   3.013
10006SOL     OW30361   7.168   2.501   2.334
10006SOL    HW130362   7.137   2.562   2.407
10006SOL    HW230363   7.218   2.553   2.265
10007SOL     OW30364   5.940   3.372   3.191
10007SOL    HW130365   5.919   3.328   3.104
10007SOL    HW230366   6.037   3.398   3.194
10008SOL     OW30367   5.988   2.613   3.460
10008SOL    HW130368   6.056   2.668   3.413
10008SOL    HW230369   6.028   2.525   3.487
10009SOL     OW30370   7.173   2.641   3.532
10009SOL    HW130371   7.081   2.679   3.527
10009SOL    HW230372   7.233   2.688   3.467
10010SOL     OW30373   6.599   1.967   3.632
10010SOL    HW130374   6.605   2.052   3.580
10010SOL    HW230375   6.631   1.891   3.575
10011SOL     OW30376   6.090   1.912   3.602
10011SOL    HW130377   6.048   1.855   3.532
10011SOL    HW230378   6.024   1.981   3.634
10012SOL     OW30379   6.159   2.732   2.891
10012SOL    HW130380   6.203   2.821   2.882
10012SOL    HW230381   6.096   2.732   2.968
10013SOL     OW30382   6.946   2.724   2.907
10013SOL    HW130383   6.871   2.724   2.841
10013SOL    HW230384   6.983   2.632   2.916
10014SOL     OW30385   6.795   2.387   2.137
10014SOL    HW130386   6.808   2.303   2.191
10014SOL    HW230387   6.766   2.461   2.197
10015SOL     OW30388   5.893   2.075   3.093
10015SOL    HW130389   5.870   2.112   3.183
10015SOL    HW230390   5.863   1.980   3.087
10016SOL     OW30391   5.623   3.172   3.144
10016SOL    HW130392   5.676   3.123   3.212
10016SOL    HW230393   5.645   3.270   3.149
10017SOL     OW30394   6.318   2.496   2.926
10017SOL    HW130395   6.377   2.470   2.850
10017SOL    HW230396   6.290   2.592   2.915
10018SOL     OW30397   7.314   2.797   3.716
10018SOL    HW130398   7.268   2.790   3.627
10018SOL    HW230399   7.252   2.841   3.782
10019SOL     OW30400   5.893   1.925   2.480
10019SOL    HW130401   5.882   2.019   2.513
10019SOL    HW230402   5.888   1.862   2.557
10020SOL     OW30403   7.208   2.229   2.236
10020SOL    HW130404   7.210   2.153   2.300
10020SOL    HW230405   7.160   2.306   2.276
10021SOL     OW30406   6.609   2.628   2.828
10021SOL    HW130407   6.624   2.649   2.924
10021SOL    HW230408   6.579   2.533   2.819
10022SOL     OW30409   6.566   3.435   3.562
10022SOL    HW130410   6.546   3.479   3.474
10022SOL    HW230411   6.605   3.344   3.546
10023SOL     OW30412   7.445   3.380   3.467
10023SOL    HW130413   7.459   3.407   3.372
10023SOL    HW230414   7.528   3.402   3.520
10024SOL     OW30415   5.936   2.760   3.666
10024SOL    HW130416   6.012   2.804   3.714
10024SOL    HW230417   5.971   2.713   3.584
10025SOL     OW30418   7.126   2.136   1.987
10025SOL    HW130419   7.065   2.061   2.010
10025SOL    HW230420   7.148   2.188   2.070
10026SOL     OW30421   6.889   2.700   1.904
10026SOL    HW130422   6.923   2.607   1.919
10026SOL    HW230423   6.907   2.727   1.809
10027SOL     OW30424   6.654   3.195   2.711
10027SOL    HW130425   6.661   3.111   2.656
10027SOL    HW230426   6.716   3.264   2.675
10028SOL     OW30427   5.905   2.672   2.811
10028SOL    HW130428   5.998   2.708   2.816
10028SOL    HW230429   5.899   2.587   2.863
10029SOL     OW30430   5.925   2.371   2.868
10029SOL    HW130431   5.873   2.288   2.851
10029SOL    HW230432   6.002   2.376   2.804
10030SOL     OW30433   6.724   2.242   3.540
10030SOL    HW130434   6.679   2.305   3.604
10030SOL    HW230435   6.817   2.273   3.523
10031SOL     OW30436   6.746   2.069   3.339
10031SOL    HW130437   6.746   2.133   3.416
10031SOL    HW230438   6.774   2.117   3.256
10032SOL     OW30439   5.594   3.188   2.062
10032SOL    HW130440   5.501   3.209   2.031
10032SOL    HW230441   5.604   3.089   2.075
10033SOL     OW30442   5.674   3.663   2.789
10033SOL    HW130443   5.632   3.577   2.762
10033SOL    HW230444   5.768   3.666   2.755
10034SOL     OW30445   6.090   3.430   2.772
10034SOL    HW130446   6.156   3.504   2.781
10034SOL    HW230447   6.134   3.351   2.730
10035SOL     OW30448   6.588   2.658   3.100
10035SOL    HW130449   6.629   2.626   3.186
10035SOL    HW230450   6.492   2.631   3.097
10036SOL     OW30451   5.626   2.406   2.976
10036SOL    HW130452   5.711   2.373   2.935
10036SOL    HW230453   5.639   2.421   3.074
10037SOL     OW30454   5.775   2.382   3.584
10037SOL    HW130455   5.834   2.342   3.514
10037SOL    HW230456   5.717   2.453   3.543
10038SOL     OW30457   6.955   2.812   3.522
10038SOL    HW130458   6.994   2.901   3.542
10038SOL    HW230459   6.965   2.792   3.425
10039SOL     OW30460   6.401   2.434   2.187
10039SOL    HW130461   6.408   2.345   2.141
10039SOL    HW230462   6.307   2.468   2.179
10040SOL     OW30463   7.243   2.466   3.068
10040SOL    HW130464   7.205   2.397   3.130
10040SOL    HW230465   7.325   2.430   3.024
10041SOL     OW30466   5.838   3.426   3.606
10041SOL    HW130467   5.808   3.483   3.682
10041SOL    HW230468   5.831   3.329   3.632
10042SOL     OW30469   6.257   2.326   3.131
10042SOL    HW130470   6.223   2.237   3.101
10042SOL    HW230471   6.283   2.380   3.051
10043SOL     OW30472   6.516   3.540   3.327
10043SOL    HW130473   6.492   3.522   3.232
10043SOL    HW230474   6.546   3.634   3.337
10044SOL     OW30475   6.059   2.362   2.053
10044SOL    HW130476   6.120   2.442   2.057
10044SOL    HW230477   5.964   2.393   2.060
10045SOL     OW30478   5.745   2.999   3.328
10045SOL    HW130479   5.767   2.938   3.404
10045SOL    HW230480   5.755   2.950   3.242
10046SOL     OW30481   6.933   2.921   3.096
10046SOL    HW130482   6.957   2.858   3.022
10046SOL    HW230483   6.843   2.961   3.078
10047SOL     OW30484   6.888   2.717   2.171
10047SOL    HW130485   6.802   2.686   2.213
10047SOL    HW230486   6.884   2.703   2.072
10048SOL     OW30487   6.838   3.593   2.990
10048SOL    HW130488   6.922   3.598   2.936
10048SOL    HW230489   6.815   3.497   3.008
10049SOL     OW30490   5.669   3.120   2.884
10049SOL    HW130491   5.664   3.119   2.984
10049SOL    HW230492   5.586   3.079   2.846
10050SOL     OW30493   6.274   3.524   3.578
10050SOL    HW130494   6.218   3.605   3.587
10050SOL    HW230495   6.326   3.528   3.492
10051SOL     OW30496   7.312   1.997   2.385
10051SOL    HW130497   7.385   1.980   2.318
10051SOL    HW230498   7.281   1.910   2.423
10052SOL     OW30499   6.974   3.435   2.339
10052SOL    HW130500   7.041   3.447   2.265
10052SOL    HW230501   6.934   3.524   2.362
10053SOL     OW30502   5.716   3.656   3.713
10053SOL    HW130503   5.675   3.582   3.766
10053SOL    HW230504   5.780   3.707   3.771
10054SOL     OW30505   6.866   2.789   2.534
10054SOL    HW130506   6.926   2.708   2.536
10054SOL    HW230507   6.906   2.858   2.474
10055SOL     OW30508   6.416   3.135   3.284
10055SOL    HW130509   6.411   3.168   3.379
10055SOL    HW230510   6.330   3.154   3.238
10056SOL     OW30511   6.258   3.478   2.016
10056SOL    HW130512   6.267   3.488   1.917
10056SOL    HW230513   6.218   3.389   2.037
10057SOL     OW30514   7.236   3.582   3.256
10057SOL    HW130515   7.289   3.592   3.172
10057SOL    HW230516   7.209   3.672   3.290
10058SOL     OW30517   7.427   2.037   2.825
10058SOL    HW130518   7.466   1.952   2.789
10058SOL    HW230519   7.329   2.039   2.806
10059SOL     OW30520   5.849   2.188   2.582
10059SOL    HW130521   5.770   2.239   2.548
10059SOL    HW230522   5.840   2.173   2.680
10060SOL     OW30523   6.780   3.474   1.893
10060SOL    HW130524   6.786   3.381   1.930
10060SOL    HW230525   6.721   3.474   1.813
10061SOL     OW30526   6.408   2.864   3.234
10061SOL    HW130527   6.448   2.863   3.142
10061SOL    HW230528   6.418   2.956   3.274
10062SOL     OW30529   6.502   2.772   2.153
10062SOL    HW130530   6.565   2.810   2.085
10062SOL    HW230531   6.542   2.689   2.192
10063SOL     OW30532   7.090   3.469   1.906
10063SOL    HW130533   6.998   3.506   1.913
10063SOL    HW230534   7.128   3.489   1.816
10064SOL     OW30535   5.958   3.150   3.352
10064SOL    HW130536   5.945   3.243   3.318
10064SOL    HW230537   5.874   3.098   3.339
10065SOL     OW30538   7.200   3.154   3.151
10065SOL    HW130539   7.260   3.157   3.231
10065SOL    HW230540   7.125   3.218   3.164
10066SOL     OW30541   6.625   2.960   2.558
10066SOL    HW130542   6.555   2.913   2.612
10066SOL    HW230543   6.684   2.892   2.515
10067SOL     OW30544   6.600   2.098   2.833
10067SOL    HW130545   6.592   2.062   2.740
10067SOL    HW230546   6.598   2.022   2.898
10068SOL     OW30547   6.176   3.349   2.353
10068SOL    HW130548   6.218   3.291   2.283
10068SOL    HW230549   6.132   3.428   2.309
10069SOL     OW30550   7.295   2.247   3.243
10069SOL    HW130551   7.368   2.316   3.247
10069SOL    HW230552   7.323   2.172   3.184
10070SOL     OW30553   5.841   3.210   2.152
10070SOL    HW130554   5.745   3.211   2.125
10070SOL    HW230555   5.853   3.263   2.236
10071SOL     OW30556   5.691   2.875   3.588
10071SOL    HW130557   5.614   2.842   3.642
10071SOL    HW230558   5.776   2.845   3.630
10072SOL     OW30559   6.258   2.065   3.351
10072SOL    HW130560   6.348   2.049   3.311
10072SOL    HW230561   6.266   2.070   3.450
10073SOL     OW30562   5.661   2.207   1.895
10073SOL    HW130563   5.569   2.179   1.866
10073SOL    HW230564   5.692   2.284   1.839
10074SOL     OW30565   7.026   2.718   3.260
10074SOL    HW130566   6.969   2.770   3.197
10074SOL    HW230567   7.122   2.730   3.236
10075SOL     OW30568   5.658   2.028   2.180
10075SOL    HW130569   5.641   2.111   2.126
10075SOL    HW230570   5.748   1.991   2.158
10076SOL     OW30571   6.769   3.197   1.981
10076SOL    HW130572   6.670   3.186   1.983
10076SOL    HW230573   6.803   3.212   2.074
10077SOL     OW30574   6.199   2.704   3.293
10077SOL    HW130575   6.255   2.785   3.276
10077SOL    HW230576   6.258   2.624   3.296
10078SOL     OW30577   7.079   3.629   2.821
10078SOL    HW130578   7.112   3.693   2.752
10078SOL    HW230579   7.145   3.623   2.896
10079SOL     OW30580   6.302   2.427   3.570
10079SOL    HW130581   6.321   2.492   3.644
10079SOL    HW230582   6.362   2.347   3.579
10080SOL     OW30583   7.036   3.082   3.495
10080SOL    HW130584   7.027   3.072   3.594
10080SOL    HW230585   7.132   3.075   3.469
10081SOL     OW30586   5.976   3.603   3.422
10081SOL    HW130587   5.885   3.644   3.420
10081SOL    HW230588   5.969   3.509   3.454
10082SOL     OW30589   7.260   2.745   3.116
10082SOL    HW130590   7.233   2.656   3.079
10082SOL    HW230591   7.261   2.813   3.043
10083SOL     OW30592   6.811   2.187   2.311
10083SOL    HW130593   6.876   2.113   2.300
10083SOL    HW230594   6.831   2.237   2.395
10084SOL     OW30595   6.180   2.607   2.514
10084SOL    HW130596   6.230   2.692   2.495
10084SOL    HW230597   6.092   2.609   2.466
10085SOL     OW30598   7.363   2.204   3.504
10085SOL    HW130599   7.346   2.235   3.410
10085SOL    HW230600   7.279   2.167   3.542
10086SOL     OW30601   7.316   2.796   3.379
10086SOL    HW130602   7.354   2.887   3.394
10086SOL    HW230603   7.308   2.779   3.280
10087SOL     OW30604   6.445   3.236   1.878
10087SOL    HW130605   6.399   3.251   1.966
10087SOL    HW230606   6.489   3.321   1.848
10088SOL     OW30607   6.247   3.652   2.815
10088SOL    HW130608   6.201   3.740   2.802
10088SOL    HW230609   6.346   3.664   2.808
10089SOL     OW30610   6.445   2.818   2.723
10089SOL    HW130611   6.499   2.749   2.771
10089SOL    HW230612   6.413   2.887   2.789
10090SOL     OW30613   6.669   2.846   1.949
10090SOL    HW130614   6.646   2.899   1.867
10090SOL    HW230615   6.750   2.790   1.930
10091SOL     OW30616   7.447   3.431   2.713
10091SOL    HW130617   7.376   3.419   2.643
10091SOL    HW230618   7.448   3.352   2.773
10092SOL     OW30619   5.807   3.176   3.706
10092SOL    HW130620   5.742   3.103   3.685
10092SOL    HW230621   5.811   3.190   3.804
10093SOL     OW30622   5.665   3.102   2.515
10093SOL    HW130623   5.664   3.055   2.603
10093SOL    HW230624   5.747   3.074   2.464
10094SOL     OW30625   6.258   3.253   3.486
10094SOL    HW130626   6.180   3.203   3.524
10094SOL    HW230627   6.255   3.348   3.517
10095SOL     OW30628   7.410   2.054   3.089
10095SOL    HW130629   7.406   1.964   3.133
10095SOL    HW230630   7.413   2.043   2.990
10096SOL     OW30631   6.014   2.286   2.382
10096SOL    HW130632   6.044   2.214   2.320
10096SOL    HW230633   5.975   2.246   2.465
10097SOL     OW30634   7.291   3.349   2.966
10097SOL    HW130635   7.198   3.324   2.939
10097SOL    HW230636   7.317   3.299   3.048
10098SOL     OW30637   5.903   2.409   3.142
10098SOL    HW130638   5.941   2.350   3.214
10098SOL    HW230639   5.943   2.383   3.054
10099SOL     OW30640   6.398   3.448   2.549
10099SOL    HW130641   6.430   3.458   2.455
10099SOL    HW230642   6.319   3.386   2.551
10100SOL     OW30643   7.010   2.076   2.974
10100SOL    HW130644   7.062   2.011   3.029
10100SOL    HW230645   6.961   2.139   3.035
10101SOL     OW30646   6.587   1.896   3.016
10101SOL    HW130647   6.524   1.824   2.985
10101SOL    HW230648   6.680   1.860   3.016
10102SOL     OW30649   6.356   3.192   2.163
10102SOL    HW130650   6.310   3.105   2.180
10102SOL    HW230651   6.447   3.189   2.204
10103SOL     OW30652   6.204   3.429   3.146
10103SOL    HW130653   6.199   3.511   3.203
10103SOL    HW230654   6.293   3.426   3.101
10104SOL     OW30655   6.938   1.914   2.030
10104SOL    HW130656   6.973   1.873   1.946
10104SOL    HW230657   6.848   1.876   2.050
10105SOL     OW30658   6.886   2.315   2.553
10105SOL    HW130659   6.827   2.395   2.557
10105SOL    HW230660   6.901   2.280   2.646
10106SOL     OW30661   7.179   2.083   2.744
10106SOL    HW130662   7.095   2.082   2.798
10106SOL    HW230663   7.181   2.166   2.688
10107SOL     OW30664   5.625   2.939   2.162
10107SOL    HW130665   5.724   2.928   2.153
10107SOL    HW230666   5.585   2.853   2.194
10108SOL     OW30667   6.461   3.508   2.199
10108SOL    HW130668   6.384   3.473   2.145
10108SOL    HW230669   6.429   3.579   2.261
10109SOL     OW30670   5.816   2.490   3.837
10109SOL    HW130671   5.723   2.488   3.874
10109SOL    HW230672   5.817   2.451   3.745
10110SOL     OW30673   5.811   2.137   4.720
10110SOL    HW130674   5.846   2.120   4.812
10110SOL    HW230675   5.723   2.092   4.708
10111SOL     OW30676   5.605   2.230   4.371
10111SOL    HW130677   5.523   2.273   4.410
10111SOL    HW230678   5.577   2.157   4.308
10112SOL     OW30679   6.155   3.137   4.889
10112SOL    HW130680   6.062   3.130   4.852
10112SOL    HW230681   6.166   3.226   4.933
10113SOL     OW30682   7.141   3.373   4.427
10113SOL    HW130683   7.084   3.357   4.508
10113SOL    HW230684   7.082   3.383   4.347
10114SOL     OW30685   6.721   2.565   4.441
10114SOL    HW130686   6.778   2.643   4.416
10114SOL    HW230687   6.661   2.591   4.517
10115SOL     OW30688   7.341   2.469   3.955
10115SOL    HW130689   7.329   2.456   3.856
10115SOL    HW230690   7.311   2.388   4.004
10116SOL     OW30691   6.354   3.006   4.747
10116SOL    HW130692   6.276   3.023   4.807
10116SOL    HW230693   6.388   3.093   4.711
10117SOL     OW30694   6.436   2.660   5.547
10117SOL    HW130695   6.432   2.736   5.612
10117SOL    HW230696   6.458   2.696   5.456
10118SOL     OW30697   6.271   2.874   4.389
10118SOL    HW130698   6.340   2.858   4.459
10118SOL    HW230699   6.198   2.931   4.427
10119SOL     OW30700   6.272   3.023   5.527
10119SOL    HW130701   6.332   3.102   5.541
10119SOL    HW230702   6.186   3.054   5.486
10120SOL     OW30703   5.921   3.297   4.785
10120SOL    HW130704   5.843   3.266   4.732
10120SOL    HW230705   5.979   3.355   4.728
10121SOL     OW30706   7.046   3.367   5.063
10121SOL    HW130707   7.070   3.461   5.089
10121SOL    HW230708   7.030   3.313   5.145
10122SOL     OW30709   6.024   2.254   5.223
10122SOL    HW130710   6.106   2.198   5.232
10122SOL    HW230711   5.943   2.196   5.227
10123SOL     OW30712   7.189   2.309   4.461
10123SOL    HW130713   7.115   2.355   4.411
10123SOL    HW230714   7.240   2.377   4.514
10124SOL     OW30715   5.817   3.575   4.207
10124SOL    HW130716   5.851   3.652   4.261
10124SOL    HW230717   5.861   3.575   4.117
10125SOL     OW30718   6.713   3.203   5.414
10125SOL    HW130719   6.760   3.203   5.502
10125SOL    HW230720   6.665   3.116   5.403
10126SOL     OW30721   5.816   3.296   4.262
10126SOL    HW130722   5.790   3.392   4.262
10126SOL    HW230723   5.745   3.242   4.307
10127SOL     OW30724   5.826   2.953   4.610
10127SOL    HW130725   5.840   2.869   4.662
10127SOL    HW230726   5.771   3.017   4.665
10128SOL     OW30727   6.206   3.648   5.163
10128SOL    HW130728   6.114   3.631   5.198
10128SOL    HW230729   6.234   3.740   5.189
10129SOL     OW30730   6.192   2.826   3.847
10129SOL    HW130731   6.199   2.910   3.793
10129SOL    HW230732   6.238   2.839   3.935
10130SOL     OW30733   7.180   1.976   5.204
10130SOL    HW130734   7.162   2.043   5.132
10130SOL    HW230735   7.177   2.022   5.293
10131SOL     OW30736   5.708   2.505   4.287
10131SOL    HW130737   5.663   2.417   4.304
10131SOL    HW230738   5.707   2.559   4.371
10132SOL     OW30739   7.428   3.629   4.083
10132SOL    HW130740   7.482   3.600   4.163
10132SOL    HW230741   7.458   3.719   4.054
10133SOL     OW30742   5.613   3.458   3.841
10133SOL    HW130743   5.594   3.362   3.862
10133SOL    HW230744   5.580   3.516   3.916
10134SOL     OW30745   7.275   2.784   4.336
10134SOL    HW130746   7.370   2.755   4.344
10134SOL    HW230747   7.267   2.849   4.261
10135SOL     OW30748   7.227   2.970   4.156
10135SOL    HW130749   7.313   2.972   4.104
10135SOL    HW230750   7.241   3.017   4.244
10136SOL     OW30751   5.699   2.599   5.321
10136SOL    HW130752   5.787   2.586   5.366
10136SOL    HW230753   5.686   2.696   5.299
10137SOL     OW30754   6.199   3.227   4.450
10137SOL    HW130755   6.150   3.140   4.459
10137SOL    HW230756   6.176   3.270   4.363
10138SOL     OW30757   6.879   3.090   5.147
10138SOL    HW130758   6.916   3.017   5.089
10138SOL    HW230759   6.931   3.095   5.232
10139SOL     OW30760   6.395   1.866   4.226
10139SOL    HW130761   6.435   1.957   4.217
10139SOL    HW230762   6.295   1.874   4.232
10140SOL     OW30763   5.783   2.838   4.988
10140SOL    HW130764   5.872   2.793   4.974
10140SOL    HW230765   5.710   2.773   4.969
10141SOL     OW30766   7.111   2.861   3.914
10141SOL    HW130767   7.048   2.785   3.927
10141SOL    HW230768   7.159   2.879   4.000
10142SOL     OW30769   6.773   3.654   5.340
10142SOL    HW130770   6.797   3.714   5.264
10142SOL    HW230771   6.780   3.559   5.310
10143SOL     OW30772   5.903   2.113   5.525
10143SOL    HW130773   5.974   2.184   5.531
10143SOL    HW230774   5.815   2.152   5.553
10144SOL     OW30775   7.052   3.279   4.677
10144SOL    HW130776   6.993   3.285   4.757
10144SOL    HW230777   7.037   3.191   4.631
10145SOL     OW30778   7.253   3.576   4.296
10145SOL    HW130779   7.212   3.553   4.208
10145SOL    HW230780   7.235   3.502   4.361
10146SOL     OW30781   6.184   2.591   3.994
10146SOL    HW130782   6.208   2.660   3.926
10146SOL    HW230783   6.106   2.624   4.048
10147SOL     OW30784   6.867   2.207   4.668
10147SOL    HW130785   6.781   2.157   4.655
10147SOL    HW230786   6.929   2.153   4.724
10148SOL     OW30787   7.162   3.524   4.031
10148SOL    HW130788   7.251   3.570   4.034
10148SOL    HW230789   7.141   3.500   3.936
10149SOL     OW30790   6.393   2.467   5.189
10149SOL    HW130791   6.346   2.464   5.278
10149SOL    HW230792   6.342   2.412   5.123
10150SOL     OW30793   6.980   2.331   5.398
10150SOL    HW130794   6.960   2.374   5.486
10150SOL    HW230795   7.058   2.269   5.407
10151SOL     OW30796   6.559   2.752   5.296
10151SOL    HW130797   6.605   2.668   5.267
10151SOL    HW230798   6.503   2.786   5.221
10152SOL     OW30799   6.577   2.272   4.966
10152SOL    HW130800   6.500   2.306   5.020
10152SOL    HW230801   6.543   2.221   4.887
10153SOL     OW30802   6.627   2.563   4.153
10153SOL    HW130803   6.653   2.559   4.249
10153SOL    HW230804   6.542   2.512   4.139
10154SOL     OW30805   5.662   2.673   4.513
10154SOL    HW130806   5.761   2.661   4.522
10154SOL    HW230807   5.638   2.768   4.534
10155SOL     OW30808   5.716   3.683   5.295
10155SOL    HW130809   5.706   3.668   5.394
10155SOL    HW230810   5.630   3.719   5.259
10156SOL     OW30811   6.451   2.210   3.919
10156SOL    HW130812   6.510   2.273   3.870
10156SOL    HW230813   6.470   2.116   3.890
10157SOL     OW30814   7.305   2.447   5.555
10157SOL    HW130815   7.279   2.536   5.519
10157SOL    HW230816   7.303   2.379   5.482
10158SOL     OW30817   6.948   3.006   4.269
10158SOL    HW130818   7.031   2.977   4.221
10158SOL    HW230819   6.899   3.073   4.213
10159SOL     OW30820   6.136   2.058   4.609
10159SOL    HW130821   6.131   2.053   4.709
10159SOL    HW230822   6.138   2.154   4.580
10160SOL     OW30823   6.594   3.318   4.201
10160SOL    HW130824   6.548   3.390   4.149
10160SOL    HW230825   6.590   3.338   4.299
10161SOL     OW30826   5.937   3.663   4.577
10161SOL    HW130827   5.987   3.577   4.583
10161SOL    HW230828   6.002   3.740   4.574
10162SOL     OW30829   7.381   2.928   4.597
10162SOL    HW130830   7.319   2.913   4.521
10162SOL    HW230831   7.329   2.939   4.682
10163SOL     OW30832   6.813   3.412   5.230
10163SOL    HW130833   6.819   3.335   5.294
10163SOL    HW230834   6.761   3.386   5.150
10164SOL     OW30835   5.907   2.805   3.966
10164SOL    HW130836   5.989   2.844   3.924
10164SOL    HW230837   5.880   2.723   3.917
10165SOL     OW30838   7.044   2.597   4.452
10165SOL    HW130839   7.039   2.532   4.527
10165SOL    HW230840   7.124   2.656   4.465
10166SOL     OW30841   6.047   3.128   5.451
10166SOL    HW130842   5.997   3.129   5.365
10166SOL    HW230843   5.984   3.110   5.527
10167SOL     OW30844   6.697   3.638   3.961
10167SOL    HW130845   6.637   3.576   4.011
10167SOL    HW230846   6.728   3.594   3.876
10168SOL     OW30847   5.788   2.147   5.222
10168SOL    HW130848   5.708   2.207   5.209
10168SOL    HW230849   5.778   2.098   5.308
10169SOL     OW30850   7.218   3.239   3.805
10169SOL    HW130851   7.186   3.333   3.795
10169SOL    HW230852   7.142   3.176   3.793
10170SOL     OW30853   6.050   3.605   4.047
10170SOL    HW130854   6.083   3.644   4.133
10170SOL    HW230855   6.126   3.598   3.982
10171SOL     OW30856   6.986   1.969   4.150
10171SOL    HW130857   6.962   1.932   4.060
10171SOL    HW230858   7.085   1.985   4.154
10172SOL     OW30859   5.835   3.647   4.965
10172SOL    HW130860   5.892   3.582   5.015
10172SOL    HW230861   5.819   3.614   4.872
10173SOL     OW30862   6.526   3.560   4.628
10173SOL    HW130863   6.606   3.503   4.649
10173SOL    HW230864   6.477   3.520   4.551
10174SOL     OW30865   5.968   2.562   4.204
10174SOL    HW130866   6.013   2.472   4.201
10174SOL    HW230867   5.874   2.551   4.237
10175SOL     OW30868   7.133   2.084   5.453
10175SOL    HW130869   7.128   2.121   5.545
10175SOL    HW230870   7.061   2.015   5.441
10176SOL     OW30871   6.200   1.984   3.841
10176SOL    HW130872   6.298   1.962   3.848
10176SOL    HW230873   6.169   1.967   3.748
10177SOL     OW30874   6.367   2.126   5.473
10177SOL    HW130875   6.434   2.065   5.516
10177SOL    HW230876   6.294   2.145   5.538
10178SOL     OW30877   6.474   3.376   4.919
10178SOL    HW130878   6.451   3.351   4.825
10178SOL    HW230879   6.535   3.307   4.958
10179SOL     OW30880   6.937   2.452   5.157
10179SOL    HW130881   6.965   2.409   5.242
10179SOL    HW230882   6.962   2.548   5.158
10180SOL     OW30883   6.389   3.264   4.648
10180SOL    HW130884   6.479   3.278   4.606
10180SOL    HW230885   6.318   3.266   4.577
10181SOL     OW30886   6.508   2.365   4.623
10181SOL    HW130887   6.483   2.356   4.527
10181SOL    HW230888   6.556   2.283   4.654
10182SOL     OW30889   6.125   1.926   4.236
10182SOL    HW130890   6.044   1.927   4.294
10182SOL    HW230891   6.128   2.009   4.181
10183SOL     OW30892   7.020   3.050   3.765
10183SOL    HW130893   7.052   2.974   3.822
10183SOL    HW230894   6.928   3.077   3.795
10184SOL     OW30895   5.883   1.897   3.895
10184SOL    HW130896   5.932   1.981   3.874
10184SOL    HW230897   5.945   1.832   3.940
10185SOL     OW30898   6.521   2.098   4.204
10185SOL    HW130899   6.473   2.139   4.126
10185SOL    HW230900   6.620   2.096   4.185
10186SOL     OW30901   6.662   2.545   5.188
10186SOL    HW130902   6.582   2.484   5.191
10186SOL    HW230903   6.743   2.492   5.164
10187SOL     OW30904   6.813   3.432   4.517
10187SOL    HW130905   6.834   3.506   4.452
10187SOL    HW230906   6.881   3.432   4.590
10188SOL     OW30907   6.045   3.014   4.465
10188SOL    HW130908   5.974   2.987   4.530
10188SOL    HW230909   6.019   2.986   4.372
10189SOL     OW30910   6.857   3.659   4.315
10189SOL    HW130911   6.901   3.723   4.251
10189SOL    HW230912   6.807   3.711   4.385
10190SOL     OW30913   6.618   2.411   3.740
10190SOL    HW130914   6.577   2.493   3.701
10190SOL    HW230915   6.682   2.437   3.813
10191SOL     OW30916   5.664   2.418   5.110
10191SOL    HW130917   5.756   2.417   5.069
10191SOL    HW230918   5.658   2.492   5.177
10192SOL     OW30919   6.147   2.084   4.871
10192SOL    HW130920   6.185   2.000   4.908
10192SOL    HW230921   6.059   2.103   4.915
10193SOL     OW30922   6.452   2.316   4.366
10193SOL    HW130923   6.420   2.388   4.304
10193SOL    HW230924   6.476   2.235   4.313
10194SOL     OW30925   6.603   1.901   4.477
10194SOL    HW130926   6.531   1.906   4.408
10194SOL    HW230927   6.579   1.832   4.546
10195SOL     OW30928   7.015   3.035   4.591
10195SOL    HW130929   6.960   2.951   4.584
10195SOL    HW230930   7.041   3.064   4.499
10196SOL     OW30931   7.052   2.452   4.716
10196SOL    HW130932   7.022   2.357   4.723
10196SOL    HW230933   7.125   2.468   4.782
10197SOL     OW30934   7.443   2.695   4.101
10197SOL    HW130935   7.485   2.631   4.165
10197SOL    HW230936   7.405   2.644   4.023
10198SOL     OW30937   6.074   3.247   3.898
10198SOL    HW130938   5.987   3.232   3.945
10198SOL    HW230939   6.057   3.273   3.803
10199SOL     OW30940   7.250   3.142   4.381
10199SOL    HW130941   7.349   3.150   4.395
10199SOL    HW230942   7.205   3.226   4.412
10200SOL     OW30943   6.976   2.437   3.802
10200SOL    HW130944   6.922   2.416   3.883
10200SOL    HW230945   7.067   2.396   3.811
10201SOL     OW30946   6.113   2.118   4.052
10201SOL    HW130947   6.140   2.059   3.977
10201SOL    HW230948   6.113   2.213   4.021
10202SOL     OW30949   7.340   3.085   5.312
10202SOL    HW130950   7.431   3.046   5.299
10202SOL    HW230951   7.348   3.181   5.336
10203SOL     OW30952   6.650   3.209   5.064
10203SOL    HW130953   6.570   3.186   5.119
10203SOL    HW230954   6.733   3.183   5.113
10204SOL     OW30955   7.178   3.491   5.349
10204SOL    HW130956   7.205   3.525   5.259
10204SOL    HW230957   7.257   3.453   5.395
10205SOL     OW30958   6.697   3.057   4.824
10205SOL    HW130959   6.657   3.101   4.905
10205SOL    HW230960   6.656   3.094   4.741
10206SOL     OW30961   7.224   2.961   4.803
10206SOL    HW130962   7.229   3.042   4.862
10206SOL    HW230963   7.138   2.963   4.752
10207SOL     OW30964   6.501   1.951   5.126
10207SOL    HW130965   6.526   1.931   5.031
10207SOL    HW230966   6.573   2.007   5.168
10208SOL     OW30967   6.566   2.978   5.443
10208SOL    HW130968   6.467   2.984   5.453
10208SOL    HW230969   6.589   2.898   5.387
10209SOL     OW30970   6.291   2.912   4.092
10209SOL    HW130971   6.277   2.919   4.191
10209SOL    HW230972   6.375   2.861   4.074
10210SOL     OW30973   5.996   2.675   4.975
10210SOL    HW130974   6.082   2.687   5.025
10210SOL    HW230975   5.954   2.588   5.002
10211SOL     OW30976   6.860   2.248   4.986
10211SOL    HW130977   6.881   2.322   5.050
10211SOL    HW230978   6.771   2.265   4.943
10212SOL     OW30979   5.650   3.426   5.055
10212SOL    HW130980   5.604   3.508   5.021
10212SOL    HW230981   5.748   3.445   5.064
10213SOL     OW30982   5.953   2.962   4.225
10213SOL    HW130983   5.946   3.045   4.169
10213SOL    HW230984   5.957   2.882   4.165
10214SOL     OW30985   6.152   2.399   4.589
10214SOL    HW130986   6.164   2.465   4.515
10214SOL    HW230987   6.198   2.433   4.672
10215SOL     OW30988   6.838   3.210   4.112
10215SOL    HW130989   6.888   3.287   4.152
10215SOL    HW230990   6.743   3.212   4.144
10216SOL     OW30991   6.858   3.307   4.866
10216SOL    HW130992   6.905   3.320   4.953
10216SOL    HW230993   6.792   3.233   4.875
10217SOL     OW30994   7.168   2.501   4.196
10217SOL    HW130995   7.137   2.562   4.269
10217SOL    HW230996   7.218   2.553   4.127
10218SOL     OW30997   5.940   3.372   5.053
10218SOL    HW130998   5.919   3.328   4.966
10218SOL    HW230999   6.037   3.398   5.056
10219SOL     OW31000   5.988   2.613   5.322
10219SOL    HW131001   6.056   2.668   5.275
10219SOL    HW231002   6.028   2.525   5.349
10220SOL     OW31003   7.173   2.641   5.394
10220SOL    HW131004   7.081   2.679   5.389
10220SOL    HW231005   7.233   2.688   5.329
10221SOL     OW31006   6.599   1.967   5.494
10221SOL    HW131007   6.605   2.052   5.442
10221SOL    HW231008   6.631   1.891   5.437
10222SOL     OW31009   6.090   1.912   5.464
10222SOL    HW131010   6.048   1.855   5.394
10222SOL    HW231011   6.024   1.981   5.496
10223SOL     OW31012   6.159   2.732   4.753
10223SOL    HW131013   6.203   2.821   4.744
10223SOL    HW231014   6.096   2.732   4.830
10224SOL     OW31015   6.946   2.724   4.769
10224SOL    HW131016   6.871   2.724   4.703
10224SOL    HW231017   6.983   2.632   4.778
10225SOL     OW31018   6.795   2.387   3.999
10225SOL    HW131019   6.808   2.303   4.053
10225SOL    HW231020   6.766   2.461   4.059
10226SOL     OW31021   5.893   2.075   4.955
10226SOL    HW131022   5.870   2.112   5.045
10226SOL    HW231023   5.863   1.980   4.949
10227SOL     OW31024   5.623   3.172   5.006
10227SOL    HW131025   5.676   3.123   5.074
10227SOL    HW231026   5.645   3.270   5.011
10228SOL     OW31027   6.318   2.496   4.788
10228SOL    HW131028   6.377   2.470   4.712
10228SOL    HW231029   6.290   2.592   4.777
10229SOL     OW31030   7.314   2.797   5.578
10229SOL    HW131031   7.268   2.790   5.489
10229SOL    HW231032   7.252   2.841   5.644
10230SOL     OW31033   5.893   1.925   4.342
10230SOL    HW131034   5.882   2.019   4.375
10230SOL    HW231035   5.888   1.862   4.419
10231SOL     OW31036   7.208   2.229   4.098
10231SOL    HW131037   7.210   2.153   4.162
10231SOL    HW231038   7.160   2.306   4.138
10232SOL     OW31039   6.609   2.628   4.690
10232SOL    HW131040   6.624   2.649   4.786
10232SOL    HW231041   6.579   2.533   4.681
10233SOL     OW31042   6.566   3.435   5.424
10233SOL    HW131043   6.546   3.479   5.336
10233SOL    HW231044   6.605   3.344   5.408
10234SOL     OW31045   7.445   3.380   5.329
10234SOL    HW131046   7.459   3.407   5.234
10234SOL    HW231047   7.528   3.402   5.382
10235SOL     OW31048   5.936   2.760   5.528
10235SOL    HW131049   6.012   2.804   5.576
10235SOL    HW231050   5.971   2.713   5.446
10236SOL     OW31051   7.126   2.136   3.849
10236SOL    HW131052   7.065   2.061   3.872
10236SOL    HW231053   7.148   2.188   3.932
10237SOL     OW31054   6.889   2.700   3.766
10237SOL    HW131055   6.923   2.607   3.781
10237SOL    HW231056   6.907   2.727   3.671
10238SOL     OW31057   6.654   3.195   4.573
10238SOL    HW131058   6.661   3.111   4.518
10238SOL    HW231059   6.716   3.264   4.537
10239SOL     OW31060   5.905   2.672   4.673
10239SOL    HW131061   5.998   2.708   4.678
10239SOL    HW231062   5.899   2.587   4.725
10240SOL     OW31063   5.925   2.371   4.730
10240SOL    HW131064   5.873   2.288   4.713
10240SOL    HW231065   6.002   2.376   4.666
10241SOL     OW31066   6.724   2.242   5.402
10241SOL    HW131067   6.679   2.305   5.466
10241SOL    HW231068   6.817   2.273   5.385
10242SOL     OW31069   6.746   2.069   5.201
10242SOL    HW131070   6.746   2.133   5.278
10242SOL    HW231071   6.774   2.117   5.118
10243SOL     OW31072   5.594   3.188   3.924
10243SOL    HW131073   5.501   3.209   3.893
10243SOL    HW231074   5.604   3.089   3.937
10244SOL     OW31075   5.674   3.663   4.651
10244SOL    HW131076   5.632   3.577   4.624
10244SOL    HW231077   5.768   3.666   4.617
10245SOL     OW31078   6.090   3.430   4.634
10245SOL    HW131079   6.156   3.504   4.643
10245SOL    HW231080   6.134   3.351   4.592
10246SOL     OW31081   6.588   2.658   4.962
10246SOL    HW131082   6.629   2.626   5.048
10246SOL    HW231083   6.492   2.631   4.959
10247SOL     OW31084   5.626   2.406   4.838
10247SOL    HW131085   5.711   2.373   4.797
10247SOL    HW231086   5.639   2.421   4.936
10248SOL     OW31087   5.775   2.382   5.446
10248SOL    HW131088   5.834   2.342   5.376
10248SOL    HW231089   5.717   2.453   5.405
10249SOL     OW31090   6.955   2.812   5.384
10249SOL    HW131091   6.994   2.901   5.404
10249SOL    HW231092   6.965   2.792   5.287
10250SOL     OW31093   6.401   2.434   4.049
10250SOL    HW131094   6.408   2.345   4.003
10250SOL    HW231095   6.307   2.468   4.041
10251SOL     OW31096   7.243   2.466   4.930
10251SOL    HW131097   7.205   2.397   4.992
10251SOL    HW231098   7.325   2.430   4.886
10252SOL     OW31099   5.838   3.426   5.468
10252SOL    HW131100   5.808   3.483   5.544
10252SOL    HW231101   5.831   3.329   5.494
10253SOL     OW31102   6.257   2.326   4.993
10253SOL    HW131103   6.223   2.237   4.963
10253SOL    HW231104   6.283   2.380   4.913
10254SOL     OW31105   6.516   3.540   5.189
10254SOL    HW131106   6.492   3.522   5.094
10254SOL    HW231107   6.546   3.634   5.199
10255SOL     OW31108   6.059   2.362   3.915
10255SOL    HW131109   6.120   2.442   3.919
10255SOL    HW231110   5.964   2.393   3.922
10256SOL     OW31111   5.745   2.999   5.190
10256SOL    HW131112   5.767   2.938   5.266
10256SOL    HW231113   5.755   2.950   5.104
10257SOL     OW31114   6.933   2.921   4.958
10257SOL    HW131115   6.957   2.858   4.884
10257SOL    HW231116   6.843   2.961   4.940
10258SOL     OW31117   6.888   2.717   4.033
10258SOL    HW131118   6.802   2.686   4.075
10258SOL    HW231119   6.884   2.703   3.934
10259SOL     OW31120   7.345   3.609   4.878
10259SOL    HW131121   7.406   3.639   4.805
10259SOL    HW231122   7.307   3.520   4.856
10260SOL     OW31123   6.838   3.593   4.852
10260SOL    HW131124   6.922   3.598   4.798
10260SOL    HW231125   6.815   3.497   4.870
10261SOL     OW31126   5.669   3.120   4.746
10261SOL    HW131127   5.664   3.119   4.846
10261SOL    HW231128   5.586   3.079   4.708
10262SOL     OW31129   6.274   3.524   5.440
10262SOL    HW131130   6.218   3.605   5.449
10262SOL    HW231131   6.326   3.528   5.354
10263SOL     OW31132   7.312   1.997   4.247
10263SOL    HW131133   7.385   1.980   4.180
10263SOL    HW231134   7.281   1.910   4.285
10264SOL     OW31135   6.974   3.435   4.201
10264SOL    HW131136   7.041   3.447   4.127
10264SOL    HW231137   6.934   3.524   4.224
10265SOL     OW31138   5.716   3.656   5.575
10265SOL    HW131139   5.675   3.582   5.628
10265SOL    HW231140   5.780   3.707   5.633
10266SOL     OW31141   6.866   2.789   4.396
10266SOL    HW131142   6.926   2.708   4.398
10266SOL    HW231143   6.906   2.858   4.336
10267SOL     OW31144   6.416   3.135   5.146
10267SOL    HW131145   6.411   3.168   5.241
10267SOL    HW231146   6.330   3.154   5.100
10268SOL     OW31147   6.258   3.478   3.878
10268SOL    HW131148   6.267   3.488   3.779
10268SOL    HW231149   6.218   3.389   3.899
10269SOL     OW31150   7.236   3.582   5.118
10269SOL    HW131151   7.289   3.592   5.034
10269SOL    HW231152   7.209   3.672   5.152
10270SOL     OW31153   7.427   2.037   4.687
10270SOL    HW131154   7.466   1.952   4.651
10270SOL    HW231155   7.329   2.039   4.668
10271SOL     OW31156   5.849   2.188   4.444
10271SOL    HW131157   5.770   2.239   4.410
10271SOL    HW231158   5.840   2.173   4.542
10272SOL     OW31159   6.780   3.474   3.755
10272SOL    HW131160   6.786   3.381   3.792
10272SOL    HW231161   6.721   3.474   3.675
10273SOL     OW31162   6.408   2.864   5.096
10273SOL    HW131163   6.448   2.863   5.004
10273SOL    HW231164   6.418   2.956   5.136
10274SOL     OW31165   6.502   2.772   4.015
10274SOL    HW131166   6.565   2.810   3.947
10274SOL    HW231167   6.542   2.689   4.054
10275SOL     OW31168   7.090   3.469   3.768
10275SOL    HW131169   6.998   3.506   3.775
10275SOL    HW231170   7.128   3.489   3.678
10276SOL     OW31171   5.958   3.150   5.214
10276SOL    HW131172   5.945   3.243   5.180
10276SOL    HW231173   5.874   3.098   5.201
10277SOL     OW31174   7.200   3.154   5.013
10277SOL    HW131175   7.260   3.157   5.093
10277SOL    HW231176   7.125   3.218   5.026
10278SOL     OW31177   6.625   2.960   4.420
10278SOL    HW131178   6.555   2.913   4.474
10278SOL    HW231179   6.684   2.892   4.377
10279SOL     OW31180   6.600   2.098   4.695
10279SOL    HW131181   6.592   2.062   4.602
10279SOL    HW231182   6.598   2.022   4.760
10280SOL     OW31183   6.176   3.349   4.215
10280SOL    HW131184   6.218   3.291   4.145
10280SOL    HW231185   6.132   3.428   4.171
10281SOL     OW31186   7.295   2.247   5.105
10281SOL    HW131187   7.368   2.316   5.109
10281SOL    HW231188   7.323   2.172   5.046
10282SOL     OW31189   5.841   3.210   4.014
10282SOL    HW131190   5.745   3.211   3.987
10282SOL    HW231191   5.853   3.263   4.098
10283SOL     OW31192   5.691   2.875   5.450
10283SOL    HW131193   5.614   2.842   5.504
10283SOL    HW231194   5.776   2.845   5.492
10284SOL     OW31195   6.258   2.065   5.213
10284SOL    HW131196   6.348   2.049   5.173
10284SOL    HW231197   6.266   2.070   5.312
10285SOL     OW31198   5.661   2.207   3.757
10285SOL    HW131199   5.569   2.179   3.728
10285SOL    HW231200   5.692   2.284   3.701
10286SOL     OW31201   7.026   2.718   5.122
10286SOL    HW131202   6.969   2.770   5.059
10286SOL    HW231203   7.122   2.730   5.098
10287SOL     OW31204   5.658   2.028   4.042
10287SOL    HW131205   5.641   2.111   3.988
10287SOL    HW231206   5.748   1.991   4.020
10288SOL     OW31207   6.769   3.197   3.843
10288SOL    HW131208   6.670   3.186   3.845
10288SOL    HW231209   6.803   3.212   3.936
10289SOL     OW31210   6.199   2.704   5.155
10289SOL    HW131211   6.255   2.785   5.138
10289SOL    HW231212   6.258   2.624   5.158
10290SOL     OW31213   7.079   3.629   4.683
10290SOL    HW131214   7.112   3.693   4.614
10290SOL    HW231215   7.145   3.623   4.758
10291SOL     OW31216   6.302   2.427   5.432
10291SOL    HW131217   6.321   2.492   5.506
10291SOL    HW231218   6.362   2.347   5.441
10292SOL     OW31219   7.036   3.082   5.357
10292SOL    HW131220   7.027   3.072   5.456
10292SOL    HW231221   7.132   3.075   5.331
10293SOL     OW31222   5.976   3.603   5.284
10293SOL    HW131223   5.885   3.644   5.282
10293SOL    HW231224   5.969   3.509   5.316
10294SOL     OW31225   7.260   2.745   4.978
10294SOL    HW131226   7.233   2.656   4.941
10294SOL    HW231227   7.261   2.813   4.905
10295SOL     OW31228   6.811   2.187   4.173
10295SOL    HW131229   6.876   2.113   4.162
10295SOL    HW231230   6.831   2.237   4.257
10296SOL     OW31231   6.180   2.607   4.376
10296SOL    HW131232   6.230   2.692   4.357
10296SOL    HW231233   6.092   2.609   4.328
10297SOL     OW31234   7.363   2.204   5.366
10297SOL    HW131235   7.346   2.235   5.272
10297SOL    HW231236   7.279   2.167   5.404
10298SOL     OW31237   7.316   2.796   5.241
10298SOL    HW131238   7.354   2.887   5.256
10298SOL    HW231239   7.308   2.779   5.142
10299SOL     OW31240   6.445   3.236   3.740
10299SOL    HW131241   6.399   3.251   3.828
10299SOL    HW231242   6.489   3.321   3.710
10300SOL     OW31243   6.247   3.652   4.677
10300SOL    HW131244   6.201   3.740   4.664
10300SOL    HW231245   6.346   3.664   4.670
10301SOL     OW31246   6.445   2.818   4.585
10301SOL    HW131247   6.499   2.749   4.633
10301SOL    HW231248   6.413   2.887   4.651
10302SOL     OW31249   6.669   2.846   3.811
10302SOL    HW131250   6.646   2.899   3.729
10302SOL    HW231251   6.750   2.790   3.792
10303SOL     OW31252   7.447   3.431   4.575
10303SOL    HW131253   7.376   3.419   4.505
10303SOL    HW231254   7.448   3.352   4.635
10304SOL     OW31255   5.807   3.176   5.568
10304SOL    HW131256   5.742   3.103   5.547
10304SOL    HW231257   5.811   3.190   5.666
10305SOL     OW31258   5.665   3.102   4.377
10305SOL    HW131259   5.664   3.055   4.465
10305SOL    HW231260   5.747   3.074   4.326
10306SOL     OW31261   6.258   3.253   5.348
10306SOL    HW131262   6.180   3.203   5.386
10306SOL    HW231263   6.255   3.348   5.379
10307SOL     OW31264   7.410   2.054   4.951
10307SOL    HW131265   7.406   1.964   4.995
10307SOL    HW231266   7.413   2.043   4.852
10308SOL     OW31267   6.014   2.286   4.244
10308SOL    HW131268   6.044   2.214   4.182
10308SOL    HW231269   5.975   2.246   4.327
10309SOL     OW31270   7.291   3.349   4.828
10309SOL    HW131271   7.198   3.324   4.801
10309SOL    HW231272   7.317   3.299   4.910
10310SOL     OW31273   5.903   2.409   5.004
10310SOL    HW131274   5.941   2.350   5.076
10310SOL    HW231275   5.943   2.383   4.916
10311SOL     OW31276   6.398   3.448   4.411
10311SOL    HW131277   6.430   3.458   4.317
10311SOL    HW231278   6.319   3.386   4.413
10312SOL     OW31279   7.010   2.076   4.836
10312SOL    HW131280   7.062   2.011   4.891
10312SOL    HW231281   6.961   2.139   4.897
10313SOL     OW31282   6.587   1.896   4.878
10313SOL    HW131283   6.524   1.824   4.847
10313SOL    HW231284   6.680   1.860   4.878
10314SOL     OW31285   6.356   3.192   4.025
10314SOL    HW131286   6.310   3.105   4.042
10314SOL    HW231287   6.447   3.189   4.066
10315SOL     OW31288   6.204   3.429   5.008
10315SOL    HW131289   6.199   3.511   5.065
10315SOL    HW231290   6.293   3.426   4.963
10316SOL     OW31291   6.938   1.914   3.892
10316SOL    HW131292   6.973   1.873   3.808
10316SOL    HW231293   6.848   1.876   3.912
10317SOL     OW31294   6.886   2.315   4.415
10317SOL    HW131295   6.827   2.395   4.419
10317SOL    HW231296   6.901   2.280   4.508
10318SOL     OW31297   7.179   2.083   4.606
10318SOL    HW131298   7.095   2.082   4.660
10318SOL    HW231299   7.181   2.166   4.550
10319SOL     OW31300   5.625   2.939   4.024
10319SOL    HW131301   5.724   2.928   4.015
10319SOL    HW231302   5.585   2.853   4.056
10320SOL     OW31303   6.461   3.508   4.061
10320SOL    HW131304   6.384   3.473   4.007
10320SOL    HW231305   6.429   3.579   4.123
10321SOL     OW31306   5.816   2.490   5.699
10321SOL    HW131307   5.723   2.488   5.736
10321SOL    HW231308   5.817   2.451   5.607
10322SOL     OW31309   5.811   2.137   6.582
10322SOL    HW131310   5.846   2.120   6.674
10322SOL    HW231311   5.723   2.092   6.570
10323SOL     OW31312   5.605   2.230   6.233
10323SOL    HW131313   5.523   2.273   6.272
10323SOL    HW231314   5.577   2.157   6.170
10324SOL     OW31315   7.141   3.373   6.289
10324SOL    HW131316   7.084   3.357   6.370
10324SOL    HW231317   7.082   3.383   6.209
10325SOL     OW31318   6.721   2.565   6.303
10325SOL    HW131319   6.778   2.643   6.278
10325SOL    HW231320   6.661   2.591   6.379
10326SOL     OW31321   7.341   2.469   5.817
10326SOL    HW131322   7.329   2.456   5.718
10326SOL    HW231323   7.311   2.388   5.866
10327SOL     OW31324   6.271   2.874   6.251
10327SOL    HW131325   6.340   2.858   6.321
10327SOL    HW231326   6.198   2.931   6.289
10328SOL     OW31327   7.189   2.309   6.323
10328SOL    HW131328   7.115   2.355   6.273
10328SOL    HW231329   7.240   2.377   6.376
10329SOL     OW31330   5.817   3.575   6.069
10329SOL    HW131331   5.851   3.652   6.123
10329SOL    HW231332   5.861   3.575   5.979
10330SOL     OW31333   5.816   3.296   6.124
10330SOL    HW131334   5.790   3.392   6.124
10330SOL    HW231335   5.745   3.242   6.169
10331SOL     OW31336   6.192   2.826   5.709
10331SOL    HW131337   6.199   2.910   5.655
10331SOL    HW231338   6.238   2.839   5.797
10332SOL     OW31339   5.708   2.505   6.149
10332SOL    HW131340   5.663   2.417   6.166
10332SOL    HW231341   5.707   2.559   6.233
10333SOL     OW31342   7.428   3.629   5.945
10333SOL    HW131343   7.482   3.600   6.025
10333SOL    HW231344   7.458   3.719   5.916
10334SOL     OW31345   5.613   3.458   5.703
10334SOL    HW131346   5.594   3.362   5.724
10334SOL    HW231347   5.580   3.516   5.778
10335SOL     OW31348   7.275   2.784   6.198
10335SOL    HW131349   7.370   2.755   6.206
10335SOL    HW231350   7.267   2.849   6.123
10336SOL     OW31351   7.227   2.970   6.018
10336SOL    HW131352   7.313   2.972   5.966
10336SOL    HW231353   7.241   3.017   6.106
10337SOL     OW31354   6.199   3.227   6.312
10337SOL    HW131355   6.150   3.140   6.321
10337SOL    HW231356   6.176   3.270   6.225
10338SOL     OW31357   6.395   1.866   6.088
10338SOL    HW131358   6.435   1.957   6.079
10338SOL    HW231359   6.295   1.874   6.094
10339SOL     OW31360   7.111   2.861   5.776
10339SOL    HW131361   7.048   2.785   5.789
10339SOL    HW231362   7.159   2.879   5.862
10340SOL     OW31363   7.253   3.576   6.158
10340SOL    HW131364   7.212   3.553   6.070
10340SOL    HW231365   7.235   3.502   6.223
10341SOL     OW31366   6.184   2.591   5.856
10341SOL    HW131367   6.208   2.660   5.788
10341SOL    HW231368   6.106   2.624   5.910
10342SOL     OW31369   6.867   2.207   6.530
10342SOL    HW131370   6.781   2.157   6.517
10342SOL    HW231371   6.929   2.153   6.586
10343SOL     OW31372   7.162   3.524   5.893
10343SOL    HW131373   7.251   3.570   5.896
10343SOL    HW231374   7.141   3.500   5.798
10344SOL     OW31375   6.577   2.272   6.828
10344SOL    HW131376   6.500   2.306   6.882
10344SOL    HW231377   6.543   2.221   6.749
10345SOL     OW31378   6.627   2.563   6.015
10345SOL    HW131379   6.653   2.559   6.111
10345SOL    HW231380   6.542   2.512   6.001
10346SOL     OW31381   6.451   2.210   5.781
10346SOL    HW131382   6.510   2.273   5.732
10346SOL    HW231383   6.470   2.116   5.752
10347SOL     OW31384   6.948   3.006   6.131
10347SOL    HW131385   7.031   2.977   6.083
10347SOL    HW231386   6.899   3.073   6.075
10348SOL     OW31387   6.594   3.318   6.063
10348SOL    HW131388   6.548   3.390   6.011
10348SOL    HW231389   6.590   3.338   6.161
10349SOL     OW31390   5.937   3.663   6.439
10349SOL    HW131391   5.987   3.577   6.445
10349SOL    HW231392   6.002   3.740   6.436
10350SOL     OW31393   5.907   2.805   5.828
10350SOL    HW131394   5.989   2.844   5.786
10350SOL    HW231395   5.880   2.723   5.779
10351SOL     OW31396   7.044   2.597   6.314
10351SOL    HW131397   7.039   2.532   6.389
10351SOL    HW231398   7.124   2.656   6.327
10352SOL     OW31399   6.697   3.638   5.823
10352SOL    HW131400   6.637   3.576   5.873
10352SOL    HW231401   6.728   3.594   5.738
10353SOL     OW31402   7.218   3.239   5.667
10353SOL    HW131403   7.186   3.333   5.657
10353SOL    HW231404   7.142   3.176   5.655
10354SOL     OW31405   6.050   3.605   5.909
10354SOL    HW131406   6.083   3.644   5.995
10354SOL    HW231407   6.126   3.598   5.844
10355SOL     OW31408   6.986   1.969   6.012
10355SOL    HW131409   6.962   1.932   5.922
10355SOL    HW231410   7.085   1.985   6.016
10356SOL     OW31411   5.835   3.647   6.827
10356SOL    HW131412   5.892   3.582   6.877
10356SOL    HW231413   5.819   3.614   6.734
10357SOL     OW31414   6.526   3.560   6.490
10357SOL    HW131415   6.606   3.503   6.511
10357SOL    HW231416   6.477   3.520   6.413
10358SOL     OW31417   5.968   2.562   6.066
10358SOL    HW131418   6.013   2.472   6.063
10358SOL    HW231419   5.874   2.551   6.099
10359SOL     OW31420   6.200   1.984   5.703
10359SOL    HW131421   6.298   1.962   5.710
10359SOL    HW231422   6.169   1.967   5.610
10360SOL     OW31423   6.389   3.264   6.510
10360SOL    HW131424   6.479   3.278   6.468
10360SOL    HW231425   6.318   3.266   6.439
10361SOL     OW31426   6.125   1.926   6.098
10361SOL    HW131427   6.044   1.927   6.156
10361SOL    HW231428   6.128   2.009   6.043
10362SOL     OW31429   7.020   3.050   5.627
10362SOL    HW131430   7.052   2.974   5.684
10362SOL    HW231431   6.928   3.077   5.657
10363SOL     OW31432   5.883   1.897   5.757
10363SOL    HW131433   5.932   1.981   5.736
10363SOL    HW231434   5.945   1.832   5.802
10364SOL     OW31435   6.521   2.098   6.066
10364SOL    HW131436   6.473   2.139   5.988
10364SOL    HW231437   6.620   2.096   6.047
10365SOL     OW31438   6.813   3.432   6.379
10365SOL    HW131439   6.834   3.506   6.314
10365SOL    HW231440   6.881   3.432   6.452
10366SOL     OW31441   6.045   3.014   6.327
10366SOL    HW131442   5.974   2.987   6.392
10366SOL    HW231443   6.019   2.986   6.234
10367SOL     OW31444   6.857   3.659   6.177
10367SOL    HW131445   6.901   3.723   6.113
10367SOL    HW231446   6.807   3.711   6.247
10368SOL     OW31447   6.618   2.411   5.602
10368SOL    HW131448   6.577   2.493   5.563
10368SOL    HW231449   6.682   2.437   5.675
10369SOL     OW31450   6.452   2.316   6.228
10369SOL    HW131451   6.420   2.388   6.166
10369SOL    HW231452   6.476   2.235   6.175
10370SOL     OW31453   6.603   1.901   6.339
10370SOL    HW131454   6.531   1.906   6.270
10370SOL    HW231455   6.579   1.832   6.408
10371SOL     OW31456   7.015   3.035   6.453
10371SOL    HW131457   6.960   2.951   6.446
10371SOL    HW231458   7.041   3.064   6.361
10372SOL     OW31459   7.052   2.452   6.578
10372SOL    HW131460   7.022   2.357   6.585
10372SOL    HW231461   7.125   2.468   6.644
10373SOL     OW31462   7.443   2.695   5.963
10373SOL    HW131463   7.485   2.631   6.027
10373SOL    HW231464   7.405   2.644   5.885
10374SOL     OW31465   6.074   3.247   5.760
10374SOL    HW131466   5.987   3.232   5.807
10374SOL    HW231467   6.057   3.273   5.665
10375SOL     OW31468   7.250   3.142   6.243
10375SOL    HW131469   7.349   3.150   6.257
10375SOL    HW231470   7.205   3.226   6.274
10376SOL     OW31471   6.976   2.437   5.664
10376SOL    HW131472   6.922   2.416   5.745
10376SOL    HW231473   7.067   2.396   5.673
10377SOL     OW31474   6.113   2.118   5.914
10377SOL    HW131475   6.140   2.059   5.839
10377SOL    HW231476   6.113   2.213   5.883
10378SOL     OW31477   7.224   2.961   6.665
10378SOL    HW131478   7.229   3.042   6.724
10378SOL    HW231479   7.138   2.963   6.614
10379SOL     OW31480   6.291   2.912   5.954
10379SOL    HW131481   6.277   2.919   6.053
10379SOL    HW231482   6.375   2.861   5.936
10380SOL     OW31483   5.953   2.962   6.087
10380SOL    HW131484   5.946   3.045   6.031
10380SOL    HW231485   5.957   2.882   6.027
10381SOL     OW31486   6.152   2.399   6.451
10381SOL    HW131487   6.164   2.465   6.377
10381SOL    HW231488   6.198   2.433   6.534
10382SOL     OW31489   6.838   3.210   5.974
10382SOL    HW131490   6.888   3.287   6.014
10382SOL    HW231491   6.743   3.212   6.006
10383SOL     OW31492   6.795   2.387   5.861
10383SOL    HW131493   6.808   2.303   5.915
10383SOL    HW231494   6.766   2.461   5.921
10384SOL     OW31495   5.893   1.925   6.204
10384SOL    HW131496   5.882   2.019   6.237
10384SOL    HW231497   5.888   1.862   6.281
10385SOL     OW31498   7.208   2.229   5.960
10385SOL    HW131499   7.210   2.153   6.024
10385SOL    HW231500   7.160   2.306   6.000
10386SOL     OW31501   7.126   2.136   5.711
10386SOL    HW131502   7.065   2.061   5.734
10386SOL    HW231503   7.148   2.188   5.794
10387SOL     OW31504   6.889   2.700   5.628
10387SOL    HW131505   6.923   2.607   5.643
10387SOL    HW231506   6.907   2.727   5.533
10388SOL     OW31507   6.654   3.195   6.435
10388SOL    HW131508   6.661   3.111   6.380
10388SOL    HW231509   6.716   3.264   6.399
10389SOL     OW31510   5.594   3.188   5.786
10389SOL    HW131511   5.501   3.209   5.755
10389SOL    HW231512   5.604   3.089   5.799
10390SOL     OW31513   5.674   3.663   6.513
10390SOL    HW131514   5.632   3.577   6.486
10390SOL    HW231515   5.768   3.666   6.479
10391SOL     OW31516   6.401   2.434   5.911
10391SOL    HW131517   6.408   2.345   5.865
10391SOL    HW231518   6.307   2.468   5.903
10392SOL     OW31519   6.059   2.362   5.777
10392SOL    HW131520   6.120   2.442   5.781
10392SOL    HW231521   5.964   2.393   5.784
10393SOL     OW31522   6.888   2.717   5.895
10393SOL    HW131523   6.802   2.686   5.937
10393SOL    HW231524   6.884   2.703   5.796
10394SOL     OW31525   7.312   1.997   6.109
10394SOL    HW131526   7.385   1.980   6.042
10394SOL    HW231527   7.281   1.910   6.147
10395SOL     OW31528   6.974   3.435   6.063
10395SOL    HW131529   7.041   3.447   5.989
10395SOL    HW231530   6.934   3.524   6.086
10396SOL     OW31531   6.866   2.789   6.258
10396SOL    HW131532   6.926   2.708   6.260
10396SOL    HW231533   6.906   2.858   6.198
10397SOL     OW31534   6.258   3.478   5.740
10397SOL    HW131535   6.267   3.488   5.641
10397SOL    HW231536   6.218   3.389   5.761
10398SOL     OW31537   7.427   2.037   6.549
10398SOL    HW131538   7.466   1.952   6.513
10398SOL    HW231539   7.329   2.039   6.530
10399SOL     OW31540   6.780   3.474   5.617
10399SOL    HW131541   6.786   3.381   5.654
10399SOL    HW231542   6.721   3.474   5.537
10400SOL     OW31543   6.502   2.772   5.877
10400SOL    HW131544   6.565   2.810   5.809
10400SOL    HW231545   6.542   2.689   5.916
10401SOL     OW31546   7.090   3.469   5.630
10401SOL    HW131547   6.998   3.506   5.637
10401SOL    HW231548   7.128   3.489   5.540
10402SOL     OW31549   6.625   2.960   6.282
10402SOL    HW131550   6.555   2.913   6.336
10402SOL    HW231551   6.684   2.892   6.239
10403SOL     OW31552   6.176   3.349   6.077
10403SOL    HW131553   6.218   3.291   6.007
10403SOL    HW231554   6.132   3.428   6.033
10404SOL     OW31555   5.841   3.210   5.876
10404SOL    HW131556   5.745   3.211   5.849
10404SOL    HW231557   5.853   3.263   5.960
10405SOL     OW31558   5.661   2.207   5.619
10405SOL    HW131559   5.569   2.179   5.590
10405SOL    HW231560   5.692   2.284   5.563
10406SOL     OW31561   5.658   2.028   5.904
10406SOL    HW131562   5.641   2.111   5.850
10406SOL    HW231563   5.748   1.991   5.882
10407SOL     OW31564   6.769   3.197   5.705
10407SOL    HW131565   6.670   3.186   5.707
10407SOL    HW231566   6.803   3.212   5.798
10408SOL     OW31567   7.079   3.629   6.545
10408SOL    HW131568   7.112   3.693   6.476
10408SOL    HW231569   7.145   3.623   6.620
10409SOL     OW31570   6.811   2.187   6.035
10409SOL    HW131571   6.876   2.113   6.024
10409SOL    HW231572   6.831   2.237   6.119
10410SOL     OW31573   6.180   2.607   6.238
10410SOL    HW131574   6.230   2.692   6.219
10410SOL    HW231575   6.092   2.609   6.190
10411SOL     OW31576   6.445   3.236   5.602
10411SOL    HW131577   6.399   3.251   5.690
10411SOL    HW231578   6.489   3.321   5.572
10412SOL     OW31579   6.247   3.652   6.539
10412SOL    HW131580   6.201   3.740   6.526
10412SOL    HW231581   6.346   3.664   6.532
10413SOL     OW31582   6.445   2.818   6.447
10413SOL    HW131583   6.499   2.749   6.495
10413SOL    HW231584   6.413   2.887   6.513
10414SOL     OW31585   6.669   2.846   5.673
10414SOL    HW131586   6.646   2.899   5.591
10414SOL    HW231587   6.750   2.790   5.654
10415SOL     OW31588   5.665   3.102   6.239
10415SOL    HW131589   5.664   3.055   6.327
10415SOL    HW231590   5.747   3.074   6.188
10416SOL     OW31591   7.410   2.054   6.813
10416SOL    HW131592   7.406   1.964   6.857
10416SOL    HW231593   7.413   2.043   6.714
10417SOL     OW31594   6.014   2.286   6.106
10417SOL    HW131595   6.044   2.214   6.044
10417SOL    HW231596   5.975   2.246   6.189
10418SOL     OW31597   6.398   3.448   6.273
10418SOL    HW131598   6.430   3.458   6.179
10418SOL    HW231599   6.319   3.386   6.275
10419SOL     OW31600   6.356   3.192   5.887
10419SOL    HW131601   6.310   3.105   5.904
10419SOL    HW231602   6.447   3.189   5.928
10420SOL     OW31603   6.938   1.914   5.754
10420SOL    HW131604   6.973   1.873   5.670
10420SOL    HW231605   6.848   1.876   5.774
10421SOL     OW31606   6.886   2.315   6.277
10421SOL    HW131607   6.827   2.395   6.281
10421SOL    HW231608   6.901   2.280   6.370
10422SOL     OW31609   7.179   2.083   6.468
10422SOL    HW131610   7.095   2.082   6.522
10422SOL    HW231611   7.181   2.166   6.412
10423SOL     OW31612   5.625   2.939   5.886
10423SOL    HW131613   5.724   2.928   5.877
10423SOL    HW231614   5.585   2.853   5.918
10424SOL     OW31615   6.461   3.508   5.923
10424SOL    HW131616   6.384   3.473   5.869
10424SOL    HW231617   6.429   3.579   5.985
10425SOL     OW31618   5.811   3.999   0.996
10425SOL    HW131619   5.846   3.982   1.088
10425SOL    HW231620   5.723   3.954   0.984
10426SOL     OW31621   5.605   4.092   0.647
10426SOL    HW131622   5.523   4.135   0.686
10426SOL    HW231623   5.577   4.019   0.584
10427SOL     OW31624   6.155   4.999   1.165
10427SOL    HW131625   6.062   4.992   1.128
10427SOL    HW231626   6.166   5.088   1.209
10428SOL     OW31627   7.141   5.235   0.703
10428SOL    HW131628   7.084   5.219   0.784
10428SOL    HW231629   7.082   5.245   0.623
10429SOL     OW31630   6.721   4.427   0.717
10429SOL    HW131631   6.778   4.505   0.692
10429SOL    HW231632   6.661   4.453   0.793
10430SOL     OW31633   6.436   4.522   1.823
10430SOL    HW131634   6.432   4.598   1.888
10430SOL    HW231635   6.458   4.558   1.732
10431SOL     OW31636   6.271   4.736   0.665
10431SOL    HW131637   6.340   4.720   0.735
10431SOL    HW231638   6.198   4.793   0.703
10432SOL     OW31639   6.272   4.885   1.803
10432SOL    HW131640   6.332   4.964   1.817
10432SOL    HW231641   6.186   4.916   1.762
10433SOL     OW31642   5.921   5.159   1.061
10433SOL    HW131643   5.843   5.128   1.008
10433SOL    HW231644   5.979   5.217   1.004
10434SOL     OW31645   7.046   5.229   1.339
10434SOL    HW131646   7.070   5.323   1.365
10434SOL    HW231647   7.030   5.175   1.421
10435SOL     OW31648   6.024   4.116   1.499
10435SOL    HW131649   6.106   4.060   1.508
10435SOL    HW231650   5.943   4.058   1.503
10436SOL     OW31651   7.189   4.171   0.737
10436SOL    HW131652   7.115   4.217   0.687
10436SOL    HW231653   7.240   4.239   0.790
10437SOL     OW31654   5.817   5.437   0.483
10437SOL    HW131655   5.851   5.514   0.537
10437SOL    HW231656   5.861   5.437   0.393
10438SOL     OW31657   6.713   5.065   1.690
10438SOL    HW131658   6.760   5.065   1.778
10438SOL    HW231659   6.665   4.978   1.679
10439SOL     OW31660   5.816   5.158   0.538
10439SOL    HW131661   5.790   5.254   0.538
10439SOL    HW231662   5.745   5.104   0.583
10440SOL     OW31663   5.826   4.815   0.886
10440SOL    HW131664   5.840   4.731   0.938
10440SOL    HW231665   5.771   4.879   0.941
10441SOL     OW31666   6.206   5.510   1.439
10441SOL    HW131667   6.114   5.493   1.474
10441SOL    HW231668   6.234   5.602   1.465
10442SOL     OW31669   7.180   3.838   1.480
10442SOL    HW131670   7.162   3.905   1.408
10442SOL    HW231671   7.177   3.884   1.569
10443SOL     OW31672   5.708   4.367   0.563
10443SOL    HW131673   5.663   4.279   0.580
10443SOL    HW231674   5.707   4.421   0.647
10444SOL     OW31675   7.275   4.646   0.612
10444SOL    HW131676   7.370   4.617   0.620
10444SOL    HW231677   7.267   4.711   0.537
10445SOL     OW31678   7.227   4.832   0.432
10445SOL    HW131679   7.313   4.834   0.380
10445SOL    HW231680   7.241   4.879   0.520
10446SOL     OW31681   5.699   4.461   1.597
10446SOL    HW131682   5.787   4.448   1.642
10446SOL    HW231683   5.686   4.558   1.575
10447SOL     OW31684   6.199   5.089   0.726
10447SOL    HW131685   6.150   5.002   0.735
10447SOL    HW231686   6.176   5.132   0.639
10448SOL     OW31687   6.879   4.952   1.423
10448SOL    HW131688   6.916   4.879   1.365
10448SOL    HW231689   6.931   4.957   1.508
10449SOL     OW31690   6.395   3.728   0.502
10449SOL    HW131691   6.435   3.819   0.493
10449SOL    HW231692   6.295   3.736   0.508
10450SOL     OW31693   5.783   4.700   1.264
10450SOL    HW131694   5.872   4.655   1.250
10450SOL    HW231695   5.710   4.635   1.245
10451SOL     OW31696   6.773   5.516   1.616
10451SOL    HW131697   6.797   5.576   1.540
10451SOL    HW231698   6.780   5.421   1.586
10452SOL     OW31699   5.903   3.975   1.801
10452SOL    HW131700   5.974   4.046   1.807
10452SOL    HW231701   5.815   4.014   1.829
10453SOL     OW31702   7.052   5.141   0.953
10453SOL    HW131703   6.993   5.147   1.033
10453SOL    HW231704   7.037   5.053   0.907
10454SOL     OW31705   7.253   5.438   0.572
10454SOL    HW131706   7.212   5.415   0.484
10454SOL    HW231707   7.235   5.364   0.637
10455SOL     OW31708   6.184   4.453   0.270
10455SOL    HW131709   6.208   4.522   0.202
10455SOL    HW231710   6.106   4.486   0.324
10456SOL     OW31711   6.867   4.069   0.944
10456SOL    HW131712   6.781   4.019   0.931
10456SOL    HW231713   6.929   4.015   1.000
10457SOL     OW31714   6.393   4.329   1.465
10457SOL    HW131715   6.346   4.326   1.554
10457SOL    HW231716   6.342   4.274   1.399
10458SOL     OW31717   6.980   4.193   1.674
10458SOL    HW131718   6.960   4.236   1.762
10458SOL    HW231719   7.058   4.131   1.683
10459SOL     OW31720   6.559   4.614   1.572
10459SOL    HW131721   6.605   4.530   1.543
10459SOL    HW231722   6.503   4.648   1.497
10460SOL     OW31723   6.577   4.134   1.242
10460SOL    HW131724   6.500   4.168   1.296
10460SOL    HW231725   6.543   4.083   1.163
10461SOL     OW31726   6.627   4.425   0.429
10461SOL    HW131727   6.653   4.421   0.525
10461SOL    HW231728   6.542   4.374   0.415
10462SOL     OW31729   5.662   4.535   0.789
10462SOL    HW131730   5.761   4.523   0.798
10462SOL    HW231731   5.638   4.630   0.810
10463SOL     OW31732   5.716   5.545   1.571
10463SOL    HW131733   5.706   5.530   1.670
10463SOL    HW231734   5.630   5.581   1.535
10464SOL     OW31735   6.451   4.072   0.195
10464SOL    HW131736   6.510   4.135   0.146
10464SOL    HW231737   6.470   3.978   0.166
10465SOL     OW31738   7.305   4.309   1.831
10465SOL    HW131739   7.279   4.398   1.795
10465SOL    HW231740   7.303   4.241   1.758
10466SOL     OW31741   6.948   4.868   0.545
10466SOL    HW131742   7.031   4.839   0.497
10466SOL    HW231743   6.899   4.935   0.489
10467SOL     OW31744   6.136   3.920   0.885
10467SOL    HW131745   6.131   3.915   0.985
10467SOL    HW231746   6.138   4.016   0.856
10468SOL     OW31747   6.594   5.180   0.477
10468SOL    HW131748   6.548   5.252   0.425
10468SOL    HW231749   6.590   5.200   0.575
10469SOL     OW31750   5.937   5.525   0.853
10469SOL    HW131751   5.987   5.439   0.859
10469SOL    HW231752   6.002   5.602   0.850
10470SOL     OW31753   7.381   4.790   0.873
10470SOL    HW131754   7.319   4.775   0.797
10470SOL    HW231755   7.329   4.801   0.958
10471SOL     OW31756   6.813   5.274   1.506
10471SOL    HW131757   6.819   5.197   1.570
10471SOL    HW231758   6.761   5.248   1.426
10472SOL     OW31759   7.044   4.459   0.728
10472SOL    HW131760   7.039   4.394   0.803
10472SOL    HW231761   7.124   4.518   0.741
10473SOL     OW31762   6.047   4.990   1.727
10473SOL    HW131763   5.997   4.991   1.641
10473SOL    HW231764   5.984   4.972   1.803
10474SOL     OW31765   5.788   4.009   1.498
10474SOL    HW131766   5.708   4.069   1.485
10474SOL    HW231767   5.778   3.960   1.584
10475SOL     OW31768   6.050   5.467   0.323
10475SOL    HW131769   6.083   5.506   0.409
10475SOL    HW231770   6.126   5.460   0.258
10476SOL     OW31771   5.835   5.509   1.241
10476SOL    HW131772   5.892   5.444   1.291
10476SOL    HW231773   5.819   5.476   1.148
10477SOL     OW31774   6.526   5.422   0.904
10477SOL    HW131775   6.606   5.365   0.925
10477SOL    HW231776   6.477   5.382   0.827
10478SOL     OW31777   5.968   4.424   0.480
10478SOL    HW131778   6.013   4.334   0.477
10478SOL    HW231779   5.874   4.413   0.513
10479SOL     OW31780   7.133   3.946   1.729
10479SOL    HW131781   7.128   3.983   1.821
10479SOL    HW231782   7.061   3.877   1.717
10480SOL     OW31783   6.367   3.988   1.749
10480SOL    HW131784   6.434   3.927   1.792
10480SOL    HW231785   6.294   4.007   1.814
10481SOL     OW31786   6.474   5.238   1.195
10481SOL    HW131787   6.451   5.213   1.101
10481SOL    HW231788   6.535   5.169   1.234
10482SOL     OW31789   6.937   4.314   1.433
10482SOL    HW131790   6.965   4.271   1.518
10482SOL    HW231791   6.962   4.410   1.434
10483SOL     OW31792   6.389   5.126   0.924
10483SOL    HW131793   6.479   5.140   0.882
10483SOL    HW231794   6.318   5.128   0.853
10484SOL     OW31795   6.508   4.227   0.899
10484SOL    HW131796   6.483   4.218   0.803
10484SOL    HW231797   6.556   4.145   0.930
10485SOL     OW31798   6.125   3.788   0.512
10485SOL    HW131799   6.044   3.789   0.570
10485SOL    HW231800   6.128   3.871   0.457
10486SOL     OW31801   6.521   3.960   0.480
10486SOL    HW131802   6.473   4.001   0.402
10486SOL    HW231803   6.620   3.958   0.461
10487SOL     OW31804   6.662   4.407   1.464
10487SOL    HW131805   6.582   4.346   1.467
10487SOL    HW231806   6.743   4.354   1.440
10488SOL     OW31807   6.813   5.294   0.793
10488SOL    HW131808   6.834   5.368   0.728
10488SOL    HW231809   6.881   5.294   0.866
10489SOL     OW31810   6.045   4.876   0.741
10489SOL    HW131811   5.974   4.849   0.806
10489SOL    HW231812   6.019   4.848   0.648
10490SOL     OW31813   6.857   5.521   0.591
10490SOL    HW131814   6.901   5.585   0.527
10490SOL    HW231815   6.807   5.573   0.661
10491SOL     OW31816   5.664   4.280   1.386
10491SOL    HW131817   5.756   4.279   1.345
10491SOL    HW231818   5.658   4.354   1.453
10492SOL     OW31819   6.147   3.946   1.147
10492SOL    HW131820   6.185   3.862   1.184
10492SOL    HW231821   6.059   3.965   1.191
10493SOL     OW31822   6.603   3.763   0.753
10493SOL    HW131823   6.531   3.768   0.684
10493SOL    HW231824   6.579   3.694   0.822
10494SOL     OW31825   7.015   4.897   0.867
10494SOL    HW131826   6.960   4.813   0.860
10494SOL    HW231827   7.041   4.926   0.775
10495SOL     OW31828   7.052   4.314   0.992
10495SOL    HW131829   7.022   4.219   0.999
10495SOL    HW231830   7.125   4.330   1.058
10496SOL     OW31831   7.443   4.557   0.377
10496SOL    HW131832   7.485   4.493   0.441
10496SOL    HW231833   7.405   4.506   0.299
10497SOL     OW31834   7.250   5.004   0.657
10497SOL    HW131835   7.349   5.012   0.671
10497SOL    HW231836   7.205   5.088   0.688
10498SOL     OW31837   6.113   3.980   0.328
10498SOL    HW131838   6.140   3.921   0.253
10498SOL    HW231839   6.113   4.075   0.297
10499SOL     OW31840   7.340   4.947   1.588
10499SOL    HW131841   7.431   4.908   1.575
10499SOL    HW231842   7.348   5.043   1.612
10500SOL     OW31843   6.650   5.071   1.340
10500SOL    HW131844   6.570   5.048   1.395
10500SOL    HW231845   6.733   5.045   1.389
10501SOL     OW31846   7.178   5.353   1.625
10501SOL    HW131847   7.205   5.387   1.535
10501SOL    HW231848   7.257   5.315   1.671
10502SOL     OW31849   6.697   4.919   1.100
10502SOL    HW131850   6.657   4.963   1.181
10502SOL    HW231851   6.656   4.956   1.017
10503SOL     OW31852   7.224   4.823   1.079
10503SOL    HW131853   7.229   4.904   1.138
10503SOL    HW231854   7.138   4.825   1.028
10504SOL     OW31855   6.501   3.813   1.402
10504SOL    HW131856   6.526   3.793   1.307
10504SOL    HW231857   6.573   3.869   1.444
10505SOL     OW31858   6.566   4.840   1.719
10505SOL    HW131859   6.467   4.846   1.729
10505SOL    HW231860   6.589   4.760   1.663
10506SOL     OW31861   6.291   4.774   0.368
10506SOL    HW131862   6.277   4.781   0.467
10506SOL    HW231863   6.375   4.723   0.350
10507SOL     OW31864   5.996   4.537   1.251
10507SOL    HW131865   6.082   4.549   1.301
10507SOL    HW231866   5.954   4.450   1.278
10508SOL     OW31867   6.860   4.110   1.262
10508SOL    HW131868   6.881   4.184   1.326
10508SOL    HW231869   6.771   4.127   1.219
10509SOL     OW31870   5.650   5.288   1.331
10509SOL    HW131871   5.604   5.370   1.297
10509SOL    HW231872   5.748   5.307   1.340
10510SOL     OW31873   5.953   4.824   0.501
10510SOL    HW131874   5.946   4.907   0.445
10510SOL    HW231875   5.957   4.744   0.441
10511SOL     OW31876   6.152   4.261   0.865
10511SOL    HW131877   6.164   4.327   0.791
10511SOL    HW231878   6.198   4.295   0.948
10512SOL     OW31879   6.838   5.072   0.388
10512SOL    HW131880   6.888   5.149   0.428
10512SOL    HW231881   6.743   5.074   0.420
10513SOL     OW31882   6.858   5.169   1.142
10513SOL    HW131883   6.905   5.182   1.229
10513SOL    HW231884   6.792   5.095   1.151
10514SOL     OW31885   7.168   4.363   0.472
10514SOL    HW131886   7.137   4.424   0.545
10514SOL    HW231887   7.218   4.415   0.403
10515SOL     OW31888   5.940   5.234   1.329
10515SOL    HW131889   5.919   5.190   1.242
10515SOL    HW231890   6.037   5.260   1.332
10516SOL     OW31891   5.988   4.475   1.598
10516SOL    HW131892   6.056   4.530   1.551
10516SOL    HW231893   6.028   4.387   1.625
10517SOL     OW31894   7.173   4.503   1.670
10517SOL    HW131895   7.081   4.541   1.665
10517SOL    HW231896   7.233   4.550   1.605
10518SOL     OW31897   6.599   3.829   1.770
10518SOL    HW131898   6.605   3.914   1.718
10518SOL    HW231899   6.631   3.753   1.713
10519SOL     OW31900   6.090   3.774   1.740
10519SOL    HW131901   6.048   3.717   1.670
10519SOL    HW231902   6.024   3.843   1.772
10520SOL     OW31903   6.159   4.594   1.029
10520SOL    HW131904   6.203   4.683   1.020
10520SOL    HW231905   6.096   4.594   1.106
10521SOL     OW31906   6.946   4.586   1.045
10521SOL    HW131907   6.871   4.586   0.979
10521SOL    HW231908   6.983   4.494   1.054
10522SOL     OW31909   6.795   4.249   0.275
10522SOL    HW131910   6.808   4.165   0.329
10522SOL    HW231911   6.766   4.323   0.335
10523SOL     OW31912   5.893   3.937   1.231
10523SOL    HW131913   5.870   3.974   1.321
10523SOL    HW231914   5.863   3.842   1.225
10524SOL     OW31915   5.623   5.034   1.282
10524SOL    HW131916   5.676   4.985   1.350
10524SOL    HW231917   5.645   5.132   1.287
10525SOL     OW31918   6.318   4.358   1.064
10525SOL    HW131919   6.377   4.332   0.988
10525SOL    HW231920   6.290   4.454   1.053
10526SOL     OW31921   7.314   4.659   1.854
10526SOL    HW131922   7.268   4.652   1.765
10526SOL    HW231923   7.252   4.703   1.920
10527SOL     OW31924   5.893   3.787   0.618
10527SOL    HW131925   5.882   3.881   0.651
10527SOL    HW231926   5.888   3.724   0.695
10528SOL     OW31927   6.609   4.490   0.966
10528SOL    HW131928   6.624   4.511   1.062
10528SOL    HW231929   6.579   4.395   0.957
10529SOL     OW31930   6.566   5.297   1.700
10529SOL    HW131931   6.546   5.341   1.612
10529SOL    HW231932   6.605   5.206   1.684
10530SOL     OW31933   7.445   5.242   1.605
10530SOL    HW131934   7.459   5.269   1.510
10530SOL    HW231935   7.528   5.264   1.658
10531SOL     OW31936   5.936   4.622   1.804
10531SOL    HW131937   6.012   4.666   1.852
10531SOL    HW231938   5.971   4.575   1.722
10532SOL     OW31939   6.654   5.057   0.849
10532SOL    HW131940   6.661   4.973   0.794
10532SOL    HW231941   6.716   5.126   0.813
10533SOL     OW31942   5.905   4.534   0.949
10533SOL    HW131943   5.998   4.570   0.954
10533SOL    HW231944   5.899   4.449   1.001
10534SOL     OW31945   5.925   4.233   1.006
10534SOL    HW131946   5.873   4.150   0.989
10534SOL    HW231947   6.002   4.238   0.942
10535SOL     OW31948   6.724   4.104   1.678
10535SOL    HW131949   6.679   4.167   1.742
10535SOL    HW231950   6.817   4.135   1.661
10536SOL     OW31951   6.746   3.931   1.477
10536SOL    HW131952   6.746   3.995   1.554
10536SOL    HW231953   6.774   3.979   1.394
10537SOL     OW31954   5.674   5.525   0.927
10537SOL    HW131955   5.632   5.439   0.900
10537SOL    HW231956   5.768   5.528   0.893
10538SOL     OW31957   6.090   5.292   0.910
10538SOL    HW131958   6.156   5.366   0.919
10538SOL    HW231959   6.134   5.213   0.868
10539SOL     OW31960   6.588   4.520   1.238
10539SOL    HW131961   6.629   4.488   1.324
10539SOL    HW231962   6.492   4.493   1.235
10540SOL     OW31963   5.626   4.268   1.114
10540SOL    HW131964   5.711   4.235   1.073
10540SOL    HW231965   5.639   4.283   1.212
10541SOL     OW31966   5.775   4.244   1.722
10541SOL    HW131967   5.834   4.204   1.652
10541SOL    HW231968   5.717   4.315   1.681
10542SOL     OW31969   6.955   4.674   1.660
10542SOL    HW131970   6.994   4.763   1.680
10542SOL    HW231971   6.965   4.654   1.563
10543SOL     OW31972   7.243   4.328   1.206
10543SOL    HW131973   7.205   4.259   1.268
10543SOL    HW231974   7.325   4.292   1.162
10544SOL     OW31975   5.838   5.288   1.744
10544SOL    HW131976   5.808   5.345   1.820
10544SOL    HW231977   5.831   5.191   1.770
10545SOL     OW31978   6.257   4.188   1.269
10545SOL    HW131979   6.223   4.099   1.239
10545SOL    HW231980   6.283   4.242   1.189
10546SOL     OW31981   6.516   5.402   1.465
10546SOL    HW131982   6.492   5.384   1.370
10546SOL    HW231983   6.546   5.496   1.475
10547SOL     OW31984   6.933   4.783   1.234
10547SOL    HW131985   6.957   4.720   1.160
10547SOL    HW231986   6.843   4.823   1.216
10548SOL     OW31987   7.345   5.471   1.154
10548SOL    HW131988   7.406   5.501   1.081
10548SOL    HW231989   7.307   5.382   1.132
10549SOL     OW31990   6.838   5.455   1.128
10549SOL    HW131991   6.922   5.460   1.074
10549SOL    HW231992   6.815   5.359   1.146
10550SOL     OW31993   5.669   4.982   1.022
10550SOL    HW131994   5.664   4.981   1.122
10550SOL    HW231995   5.586   4.941   0.984
10551SOL     OW31996   6.274   5.386   1.716
10551SOL    HW131997   6.218   5.467   1.725
10551SOL    HW231998   6.326   5.390   1.630
10552SOL     OW31999   7.312   3.859   0.523
10552SOL    HW132000   7.385   3.842   0.456
10552SOL    HW232001   7.281   3.772   0.561
10553SOL     OW32002   6.974   5.297   0.477
10553SOL    HW132003   7.041   5.309   0.403
10553SOL    HW232004   6.934   5.386   0.500
10554SOL     OW32005   5.716   5.518   1.851
10554SOL    HW132006   5.675   5.444   1.904
10554SOL    HW232007   5.780   5.569   1.909
10555SOL     OW32008   6.866   4.651   0.672
10555SOL    HW132009   6.926   4.570   0.674
10555SOL    HW232010   6.906   4.720   0.612
10556SOL     OW32011   6.416   4.997   1.422
10556SOL    HW132012   6.411   5.030   1.517
10556SOL    HW232013   6.330   5.016   1.376
10557SOL     OW32014   7.236   5.444   1.394
10557SOL    HW132015   7.289   5.454   1.310
10557SOL    HW232016   7.209   5.534   1.428
10558SOL     OW32017   7.427   3.899   0.963
10558SOL    HW132018   7.466   3.814   0.927
10558SOL    HW232019   7.329   3.901   0.944
10559SOL     OW32020   5.849   4.050   0.720
10559SOL    HW132021   5.770   4.101   0.686
10559SOL    HW232022   5.840   4.035   0.818
10560SOL     OW32023   6.408   4.726   1.372
10560SOL    HW132024   6.448   4.725   1.280
10560SOL    HW232025   6.418   4.818   1.412
10561SOL     OW32026   6.502   4.634   0.291
10561SOL    HW132027   6.565   4.672   0.223
10561SOL    HW232028   6.542   4.551   0.330
10562SOL     OW32029   5.958   5.012   1.490
10562SOL    HW132030   5.945   5.105   1.456
10562SOL    HW232031   5.874   4.960   1.477
10563SOL     OW32032   7.200   5.016   1.289
10563SOL    HW132033   7.260   5.019   1.369
10563SOL    HW232034   7.125   5.080   1.302
10564SOL     OW32035   6.625   4.822   0.696
10564SOL    HW132036   6.555   4.775   0.750
10564SOL    HW232037   6.684   4.754   0.653
10565SOL     OW32038   6.600   3.960   0.971
10565SOL    HW132039   6.592   3.924   0.878
10565SOL    HW232040   6.598   3.884   1.036
10566SOL     OW32041   6.176   5.211   0.491
10566SOL    HW132042   6.218   5.153   0.421
10566SOL    HW232043   6.132   5.290   0.447
10567SOL     OW32044   7.295   4.109   1.381
10567SOL    HW132045   7.368   4.178   1.385
10567SOL    HW232046   7.323   4.034   1.322
10568SOL     OW32047   5.691   4.737   1.726
10568SOL    HW132048   5.614   4.704   1.780
10568SOL    HW232049   5.776   4.707   1.768
10569SOL     OW32050   6.258   3.927   1.489
10569SOL    HW132051   6.348   3.911   1.449
10569SOL    HW232052   6.266   3.932   1.588
10570SOL     OW32053   7.026   4.580   1.398
10570SOL    HW132054   6.969   4.632   1.335
10570SOL    HW232055   7.122   4.592   1.374
10571SOL     OW32056   6.199   4.566   1.431
10571SOL    HW132057   6.255   4.647   1.414
10571SOL    HW232058   6.258   4.486   1.434
10572SOL     OW32059   7.079   5.491   0.959
10572SOL    HW132060   7.112   5.555   0.890
10572SOL    HW232061   7.145   5.485   1.034
10573SOL     OW32062   6.302   4.289   1.708
10573SOL    HW132063   6.321   4.354   1.782
10573SOL    HW232064   6.362   4.209   1.717
10574SOL     OW32065   7.036   4.944   1.633
10574SOL    HW132066   7.027   4.934   1.732
10574SOL    HW232067   7.132   4.937   1.607
10575SOL     OW32068   5.976   5.465   1.560
10575SOL    HW132069   5.885   5.506   1.558
10575SOL    HW232070   5.969   5.371   1.592
10576SOL     OW32071   7.260   4.607   1.254
10576SOL    HW132072   7.233   4.518   1.217
10576SOL    HW232073   7.261   4.675   1.181
10577SOL     OW32074   6.811   4.049   0.449
10577SOL    HW132075   6.876   3.975   0.438
10577SOL    HW232076   6.831   4.099   0.533
10578SOL     OW32077   6.180   4.469   0.652
10578SOL    HW132078   6.230   4.554   0.633
10578SOL    HW232079   6.092   4.471   0.604
10579SOL     OW32080   7.363   4.066   1.642
10579SOL    HW132081   7.346   4.097   1.548
10579SOL    HW232082   7.279   4.029   1.680
10580SOL     OW32083   7.316   4.658   1.517
10580SOL    HW132084   7.354   4.749   1.532
10580SOL    HW232085   7.308   4.641   1.418
10581SOL     OW32086   6.247   5.514   0.953
10581SOL    HW132087   6.201   5.602   0.940
10581SOL    HW232088   6.346   5.526   0.946
10582SOL     OW32089   6.445   4.680   0.861
10582SOL    HW132090   6.499   4.611   0.909
10582SOL    HW232091   6.413   4.749   0.927
10583SOL     OW32092   7.447   5.293   0.851
10583SOL    HW132093   7.376   5.281   0.781
10583SOL    HW232094   7.448   5.214   0.911
10584SOL     OW32095   5.807   5.038   1.844
10584SOL    HW132096   5.742   4.965   1.823
10584SOL    HW232097   5.811   5.052   1.942
10585SOL     OW32098   5.665   4.964   0.653
10585SOL    HW132099   5.664   4.917   0.741
10585SOL    HW232100   5.747   4.936   0.602
10586SOL     OW32101   6.258   5.115   1.624
10586SOL    HW132102   6.180   5.065   1.662
10586SOL    HW232103   6.255   5.210   1.655
10587SOL     OW32104   7.410   3.916   1.227
10587SOL    HW132105   7.406   3.826   1.271
10587SOL    HW232106   7.413   3.905   1.128
10588SOL     OW32107   6.014   4.148   0.520
10588SOL    HW132108   6.044   4.076   0.458
10588SOL    HW232109   5.975   4.108   0.603
10589SOL     OW32110   7.291   5.211   1.104
10589SOL    HW132111   7.198   5.186   1.077
10589SOL    HW232112   7.317   5.161   1.186
10590SOL     OW32113   5.903   4.271   1.280
10590SOL    HW132114   5.941   4.212   1.352
10590SOL    HW232115   5.943   4.245   1.192
10591SOL     OW32116   6.398   5.310   0.687
10591SOL    HW132117   6.430   5.320   0.593
10591SOL    HW232118   6.319   5.248   0.689
10592SOL     OW32119   7.010   3.938   1.112
10592SOL    HW132120   7.062   3.873   1.167
10592SOL    HW232121   6.961   4.001   1.173
10593SOL     OW32122   6.587   3.758   1.154
10593SOL    HW132123   6.524   3.686   1.123
10593SOL    HW232124   6.680   3.722   1.154
10594SOL     OW32125   6.204   5.291   1.284
10594SOL    HW132126   6.199   5.373   1.341
10594SOL    HW232127   6.293   5.288   1.239
10595SOL     OW32128   6.886   4.177   0.691
10595SOL    HW132129   6.827   4.257   0.695
10595SOL    HW232130   6.901   4.142   0.784
10596SOL     OW32131   7.179   3.945   0.882
10596SOL    HW132132   7.095   3.944   0.936
10596SOL    HW232133   7.181   4.028   0.826
10597SOL     OW32134   5.625   4.801   0.300
10597SOL    HW132135   5.724   4.790   0.291
10597SOL    HW232136   5.585   4.715   0.332
10598SOL     OW32137   6.461   5.370   0.337
10598SOL    HW132138   6.384   5.335   0.283
10598SOL    HW232139   6.429   5.441   0.399
10599SOL     OW32140   5.816   4.352   1.975
10599SOL    HW132141   5.723   4.350   2.012
10599SOL    HW232142   5.817   4.313   1.883
10600SOL     OW32143   5.811   3.999   2.858
10600SOL    HW132144   5.846   3.982   2.950
10600SOL    HW232145   5.723   3.954   2.846
10601SOL     OW32146   5.605   4.092   2.509
10601SOL    HW132147   5.523   4.135   2.548
10601SOL    HW232148   5.577   4.019   2.446
10602SOL     OW32149   6.155   4.999   3.027
10602SOL    HW132150   6.062   4.992   2.990
10602SOL    HW232151   6.166   5.088   3.071
10603SOL     OW32152   7.141   5.235   2.565
10603SOL    HW132153   7.084   5.219   2.646
10603SOL    HW232154   7.082   5.245   2.485
10604SOL     OW32155   6.721   4.427   2.579
10604SOL    HW132156   6.778   4.505   2.554
10604SOL    HW232157   6.661   4.453   2.655
10605SOL     OW32158   7.341   4.331   2.093
10605SOL    HW132159   7.329   4.318   1.994
10605SOL    HW232160   7.311   4.250   2.142
10606SOL     OW32161   6.354   4.868   2.885
10606SOL    HW132162   6.276   4.885   2.945
10606SOL    HW232163   6.388   4.955   2.849
10607SOL     OW32164   6.436   4.522   3.685
10607SOL    HW132165   6.432   4.598   3.750
10607SOL    HW232166   6.458   4.558   3.594
10608SOL     OW32167   6.271   4.736   2.527
10608SOL    HW132168   6.340   4.720   2.597
10608SOL    HW232169   6.198   4.793   2.565
10609SOL     OW32170   6.272   4.885   3.665
10609SOL    HW132171   6.332   4.964   3.679
10609SOL    HW232172   6.186   4.916   3.624
10610SOL     OW32173   5.921   5.159   2.923
10610SOL    HW132174   5.843   5.128   2.870
10610SOL    HW232175   5.979   5.217   2.866
10611SOL     OW32176   7.046   5.229   3.201
10611SOL    HW132177   7.070   5.323   3.227
10611SOL    HW232178   7.030   5.175   3.283
10612SOL     OW32179   6.024   4.116   3.361
10612SOL    HW132180   6.106   4.060   3.370
10612SOL    HW232181   5.943   4.058   3.365
10613SOL     OW32182   7.189   4.171   2.599
10613SOL    HW132183   7.115   4.217   2.549
10613SOL    HW232184   7.240   4.239   2.652
10614SOL     OW32185   5.817   5.437   2.345
10614SOL    HW132186   5.851   5.514   2.399
10614SOL    HW232187   5.861   5.437   2.255
10615SOL     OW32188   6.713   5.065   3.552
10615SOL    HW132189   6.760   5.065   3.640
10615SOL    HW232190   6.665   4.978   3.541
10616SOL     OW32191   5.816   5.158   2.400
10616SOL    HW132192   5.790   5.254   2.400
10616SOL    HW232193   5.745   5.104   2.445
10617SOL     OW32194   5.826   4.815   2.748
10617SOL    HW132195   5.840   4.731   2.800
10617SOL    HW232196   5.771   4.879   2.803
10618SOL     OW32197   6.206   5.510   3.301
10618SOL    HW132198   6.114   5.493   3.336
10618SOL    HW232199   6.234   5.602   3.327
10619SOL     OW32200   6.192   4.688   1.985
10619SOL    HW132201   6.199   4.772   1.931
10619SOL    HW232202   6.238   4.701   2.073
10620SOL     OW32203   7.180   3.838   3.342
10620SOL    HW132204   7.162   3.905   3.270
10620SOL    HW232205   7.177   3.884   3.431
10621SOL     OW32206   5.708   4.367   2.425
10621SOL    HW132207   5.663   4.279   2.442
10621SOL    HW232208   5.707   4.421   2.509
10622SOL     OW32209   7.428   5.491   2.221
10622SOL    HW132210   7.482   5.462   2.301
10622SOL    HW232211   7.458   5.581   2.192
10623SOL     OW32212   5.613   5.320   1.979
10623SOL    HW132213   5.594   5.224   2.000
10623SOL    HW232214   5.580   5.378   2.054
10624SOL     OW32215   7.275   4.646   2.474
10624SOL    HW132216   7.370   4.617   2.482
10624SOL    HW232217   7.267   4.711   2.399
10625SOL     OW32218   7.227   4.832   2.294
10625SOL    HW132219   7.313   4.834   2.242
10625SOL    HW232220   7.241   4.879   2.382
10626SOL     OW32221   5.699   4.461   3.459
10626SOL    HW132222   5.787   4.448   3.504
10626SOL    HW232223   5.686   4.558   3.437
10627SOL     OW32224   6.199   5.089   2.588
10627SOL    HW132225   6.150   5.002   2.597
10627SOL    HW232226   6.176   5.132   2.501
10628SOL     OW32227   6.879   4.952   3.285
10628SOL    HW132228   6.916   4.879   3.227
10628SOL    HW232229   6.931   4.957   3.370
10629SOL     OW32230   6.395   3.728   2.364
10629SOL    HW132231   6.435   3.819   2.355
10629SOL    HW232232   6.295   3.736   2.370
10630SOL     OW32233   5.783   4.700   3.126
10630SOL    HW132234   5.872   4.655   3.112
10630SOL    HW232235   5.710   4.635   3.107
10631SOL     OW32236   7.111   4.723   2.052
10631SOL    HW132237   7.048   4.647   2.065
10631SOL    HW232238   7.159   4.741   2.138
10632SOL     OW32239   6.773   5.516   3.478
10632SOL    HW132240   6.797   5.576   3.402
10632SOL    HW232241   6.780   5.421   3.448
10633SOL     OW32242   5.903   3.975   3.663
10633SOL    HW132243   5.974   4.046   3.669
10633SOL    HW232244   5.815   4.014   3.691
10634SOL     OW32245   7.052   5.141   2.815
10634SOL    HW132246   6.993   5.147   2.895
10634SOL    HW232247   7.037   5.053   2.769
10635SOL     OW32248   7.253   5.438   2.434
10635SOL    HW132249   7.212   5.415   2.346
10635SOL    HW232250   7.235   5.364   2.499
10636SOL     OW32251   6.184   4.453   2.132
10636SOL    HW132252   6.208   4.522   2.064
10636SOL    HW232253   6.106   4.486   2.186
10637SOL     OW32254   6.867   4.069   2.806
10637SOL    HW132255   6.781   4.019   2.793
10637SOL    HW232256   6.929   4.015   2.862
10638SOL     OW32257   7.162   5.386   2.169
10638SOL    HW132258   7.251   5.432   2.172
10638SOL    HW232259   7.141   5.362   2.074
10639SOL     OW32260   6.393   4.329   3.327
10639SOL    HW132261   6.346   4.326   3.416
10639SOL    HW232262   6.342   4.274   3.261
10640SOL     OW32263   6.980   4.193   3.536
10640SOL    HW132264   6.960   4.236   3.624
10640SOL    HW232265   7.058   4.131   3.545
10641SOL     OW32266   6.559   4.614   3.434
10641SOL    HW132267   6.605   4.530   3.405
10641SOL    HW232268   6.503   4.648   3.359
10642SOL     OW32269   6.577   4.134   3.104
10642SOL    HW132270   6.500   4.168   3.158
10642SOL    HW232271   6.543   4.083   3.025
10643SOL     OW32272   6.627   4.425   2.291
10643SOL    HW132273   6.653   4.421   2.387
10643SOL    HW232274   6.542   4.374   2.277
10644SOL     OW32275   5.662   4.535   2.651
10644SOL    HW132276   5.761   4.523   2.660
10644SOL    HW232277   5.638   4.630   2.672
10645SOL     OW32278   5.716   5.545   3.433
10645SOL    HW132279   5.706   5.530   3.532
10645SOL    HW232280   5.630   5.581   3.397
10646SOL     OW32281   6.451   4.072   2.057
10646SOL    HW132282   6.510   4.135   2.008
10646SOL    HW232283   6.470   3.978   2.028
10647SOL     OW32284   7.305   4.309   3.693
10647SOL    HW132285   7.279   4.398   3.657
10647SOL    HW232286   7.303   4.241   3.620
10648SOL     OW32287   6.948   4.868   2.407
10648SOL    HW132288   7.031   4.839   2.359
10648SOL    HW232289   6.899   4.935   2.351
10649SOL     OW32290   6.136   3.920   2.747
10649SOL    HW132291   6.131   3.915   2.847
10649SOL    HW232292   6.138   4.016   2.718
10650SOL     OW32293   6.594   5.180   2.339
10650SOL    HW132294   6.548   5.252   2.287
10650SOL    HW232295   6.590   5.200   2.437
10651SOL     OW32296   5.937   5.525   2.715
10651SOL    HW132297   5.987   5.439   2.721
10651SOL    HW232298   6.002   5.602   2.712
10652SOL     OW32299   7.381   4.790   2.735
10652SOL    HW132300   7.319   4.775   2.659
10652SOL    HW232301   7.329   4.801   2.820
10653SOL     OW32302   6.813   5.274   3.368
10653SOL    HW132303   6.819   5.197   3.432
10653SOL    HW232304   6.761   5.248   3.288
10654SOL     OW32305   5.907   4.667   2.104
10654SOL    HW132306   5.989   4.706   2.062
10654SOL    HW232307   5.880   4.585   2.055
10655SOL     OW32308   7.044   4.459   2.590
10655SOL    HW132309   7.039   4.394   2.665
10655SOL    HW232310   7.124   4.518   2.603
10656SOL     OW32311   6.047   4.990   3.589
10656SOL    HW132312   5.997   4.991   3.503
10656SOL    HW232313   5.984   4.972   3.665
10657SOL     OW32314   6.697   5.500   2.099
10657SOL    HW132315   6.637   5.438   2.149
10657SOL    HW232316   6.728   5.456   2.014
10658SOL     OW32317   5.788   4.009   3.360
10658SOL    HW132318   5.708   4.069   3.347
10658SOL    HW232319   5.778   3.960   3.446
10659SOL     OW32320   7.218   5.101   1.943
10659SOL    HW132321   7.186   5.195   1.933
10659SOL    HW232322   7.142   5.038   1.931
10660SOL     OW32323   6.050   5.467   2.185
10660SOL    HW132324   6.083   5.506   2.271
10660SOL    HW232325   6.126   5.460   2.120
10661SOL     OW32326   6.986   3.831   2.288
10661SOL    HW132327   6.962   3.794   2.198
10661SOL    HW232328   7.085   3.847   2.292
10662SOL     OW32329   5.835   5.509   3.103
10662SOL    HW132330   5.892   5.444   3.153
10662SOL    HW232331   5.819   5.476   3.010
10663SOL     OW32332   6.526   5.422   2.766
10663SOL    HW132333   6.606   5.365   2.787
10663SOL    HW232334   6.477   5.382   2.689
10664SOL     OW32335   5.968   4.424   2.342
10664SOL    HW132336   6.013   4.334   2.339
10664SOL    HW232337   5.874   4.413   2.375
10665SOL     OW32338   7.133   3.946   3.591
10665SOL    HW132339   7.128   3.983   3.683
10665SOL    HW232340   7.061   3.877   3.579
10666SOL     OW32341   6.200   3.846   1.979
10666SOL    HW132342   6.298   3.824   1.986
10666SOL    HW232343   6.169   3.829   1.886
10667SOL     OW32344   6.367   3.988   3.611
10667SOL    HW132345   6.434   3.927   3.654
10667SOL    HW232346   6.294   4.007   3.676
10668SOL     OW32347   6.474   5.238   3.057
10668SOL    HW132348   6.451   5.213   2.963
10668SOL    HW232349   6.535   5.169   3.096
10669SOL     OW32350   6.937   4.314   3.295
10669SOL    HW132351   6.965   4.271   3.380
10669SOL    HW232352   6.962   4.410   3.296
10670SOL     OW32353   6.389   5.126   2.786
10670SOL    HW132354   6.479   5.140   2.744
10670SOL    HW232355   6.318   5.128   2.715
10671SOL     OW32356   6.508   4.227   2.761
10671SOL    HW132357   6.483   4.218   2.665
10671SOL    HW232358   6.556   4.145   2.792
10672SOL     OW32359   6.125   3.788   2.374
10672SOL    HW132360   6.044   3.789   2.432
10672SOL    HW232361   6.128   3.871   2.319
10673SOL     OW32362   7.020   4.912   1.903
10673SOL    HW132363   7.052   4.836   1.960
10673SOL    HW232364   6.928   4.939   1.933
10674SOL     OW32365   5.883   3.759   2.033
10674SOL    HW132366   5.932   3.843   2.012
10674SOL    HW232367   5.945   3.694   2.078
10675SOL     OW32368   6.521   3.960   2.342
10675SOL    HW132369   6.473   4.001   2.264
10675SOL    HW232370   6.620   3.958   2.323
10676SOL     OW32371   6.662   4.407   3.326
10676SOL    HW132372   6.582   4.346   3.329
10676SOL    HW232373   6.743   4.354   3.302
10677SOL     OW32374   6.813   5.294   2.655
10677SOL    HW132375   6.834   5.368   2.590
10677SOL    HW232376   6.881   5.294   2.728
10678SOL     OW32377   6.045   4.876   2.603
10678SOL    HW132378   5.974   4.849   2.668
10678SOL    HW232379   6.019   4.848   2.510
10679SOL     OW32380   6.857   5.521   2.453
10679SOL    HW132381   6.901   5.585   2.389
10679SOL    HW232382   6.807   5.573   2.523
10680SOL     OW32383   6.618   4.273   1.878
10680SOL    HW132384   6.577   4.355   1.839
10680SOL    HW232385   6.682   4.299   1.951
10681SOL     OW32386   5.664   4.280   3.248
10681SOL    HW132387   5.756   4.279   3.207
10681SOL    HW232388   5.658   4.354   3.315
10682SOL     OW32389   6.147   3.946   3.009
10682SOL    HW132390   6.185   3.862   3.046
10682SOL    HW232391   6.059   3.965   3.053
10683SOL     OW32392   6.452   4.178   2.504
10683SOL    HW132393   6.420   4.250   2.442
10683SOL    HW232394   6.476   4.097   2.451
10684SOL     OW32395   6.603   3.763   2.615
10684SOL    HW132396   6.531   3.768   2.546
10684SOL    HW232397   6.579   3.694   2.684
10685SOL     OW32398   7.015   4.897   2.729
10685SOL    HW132399   6.960   4.813   2.722
10685SOL    HW232400   7.041   4.926   2.637
10686SOL     OW32401   7.052   4.314   2.854
10686SOL    HW132402   7.022   4.219   2.861
10686SOL    HW232403   7.125   4.330   2.920
10687SOL     OW32404   7.443   4.557   2.239
10687SOL    HW132405   7.485   4.493   2.303
10687SOL    HW232406   7.405   4.506   2.161
10688SOL     OW32407   6.074   5.109   2.036
10688SOL    HW132408   5.987   5.094   2.083
10688SOL    HW232409   6.057   5.135   1.941
10689SOL     OW32410   7.250   5.004   2.519
10689SOL    HW132411   7.349   5.012   2.533
10689SOL    HW232412   7.205   5.088   2.550
10690SOL     OW32413   6.976   4.299   1.940
10690SOL    HW132414   6.922   4.278   2.021
10690SOL    HW232415   7.067   4.258   1.949
10691SOL     OW32416   6.113   3.980   2.190
10691SOL    HW132417   6.140   3.921   2.115
10691SOL    HW232418   6.113   4.075   2.159
10692SOL     OW32419   7.340   4.947   3.450
10692SOL    HW132420   7.431   4.908   3.437
10692SOL    HW232421   7.348   5.043   3.474
10693SOL     OW32422   6.650   5.071   3.202
10693SOL    HW132423   6.570   5.048   3.257
10693SOL    HW232424   6.733   5.045   3.251
10694SOL     OW32425   7.178   5.353   3.487
10694SOL    HW132426   7.205   5.387   3.397
10694SOL    HW232427   7.257   5.315   3.533
10695SOL     OW32428   6.697   4.919   2.962
10695SOL    HW132429   6.657   4.963   3.043
10695SOL    HW232430   6.656   4.956   2.879
10696SOL     OW32431   7.224   4.823   2.941
10696SOL    HW132432   7.229   4.904   3.000
10696SOL    HW232433   7.138   4.825   2.890
10697SOL     OW32434   6.501   3.813   3.264
10697SOL    HW132435   6.526   3.793   3.169
10697SOL    HW232436   6.573   3.869   3.306
10698SOL     OW32437   6.566   4.840   3.581
10698SOL    HW132438   6.467   4.846   3.591
10698SOL    HW232439   6.589   4.760   3.525
10699SOL     OW32440   6.291   4.774   2.230
10699SOL    HW132441   6.277   4.781   2.329
10699SOL    HW232442   6.375   4.723   2.212
10700SOL     OW32443   5.996   4.537   3.113
10700SOL    HW132444   6.082   4.549   3.163
10700SOL    HW232445   5.954   4.450   3.140
10701SOL     OW32446   6.860   4.110   3.124
10701SOL    HW132447   6.881   4.184   3.188
10701SOL    HW232448   6.771   4.127   3.081
10702SOL     OW32449   5.650   5.288   3.193
10702SOL    HW132450   5.604   5.370   3.159
10702SOL    HW232451   5.748   5.307   3.202
10703SOL     OW32452   5.953   4.824   2.363
10703SOL    HW132453   5.946   4.907   2.307
10703SOL    HW232454   5.957   4.744   2.303
10704SOL     OW32455   6.152   4.261   2.727
10704SOL    HW132456   6.164   4.327   2.653
10704SOL    HW232457   6.198   4.295   2.810
10705SOL     OW32458   6.838   5.072   2.250
10705SOL    HW132459   6.888   5.149   2.290
10705SOL    HW232460   6.743   5.074   2.282
10706SOL     OW32461   6.858   5.169   3.004
10706SOL    HW132462   6.905   5.182   3.091
10706SOL    HW232463   6.792   5.095   3.013
10707SOL     OW32464   7.168   4.363   2.334
10707SOL    HW132465   7.137   4.424   2.407
10707SOL    HW232466   7.218   4.415   2.265
10708SOL     OW32467   5.940   5.234   3.191
10708SOL    HW132468   5.919   5.190   3.104
10708SOL    HW232469   6.037   5.260   3.194
10709SOL     OW32470   5.988   4.475   3.460
10709SOL    HW132471   6.056   4.530   3.413
10709SOL    HW232472   6.028   4.387   3.487
10710SOL     OW32473   7.173   4.503   3.532
10710SOL    HW132474   7.081   4.541   3.527
10710SOL    HW232475   7.233   4.550   3.467
10711SOL     OW32476   6.599   3.829   3.632
10711SOL    HW132477   6.605   3.914   3.580
10711SOL    HW232478   6.631   3.753   3.575
10712SOL     OW32479   6.090   3.774   3.602
10712SOL    HW132480   6.048   3.717   3.532
10712SOL    HW232481   6.024   3.843   3.634
10713SOL     OW32482   6.159   4.594   2.891
10713SOL    HW132483   6.203   4.683   2.882
10713SOL    HW232484   6.096   4.594   2.968
10714SOL     OW32485   6.946   4.586   2.907
10714SOL    HW132486   6.871   4.586   2.841
10714SOL    HW232487   6.983   4.494   2.916
10715SOL     OW32488   6.795   4.249   2.137
10715SOL    HW132489   6.808   4.165   2.191
10715SOL    HW232490   6.766   4.323   2.197
10716SOL     OW32491   5.893   3.937   3.093
10716SOL    HW132492   5.870   3.974   3.183
10716SOL    HW232493   5.863   3.842   3.087
10717SOL     OW32494   5.623   5.034   3.144
10717SOL    HW132495   5.676   4.985   3.212
10717SOL    HW232496   5.645   5.132   3.149
10718SOL     OW32497   6.318   4.358   2.926
10718SOL    HW132498   6.377   4.332   2.850
10718SOL    HW232499   6.290   4.454   2.915
10719SOL     OW32500   7.314   4.659   3.716
10719SOL    HW132501   7.268   4.652   3.627
10719SOL    HW232502   7.252   4.703   3.782
10720SOL     OW32503   5.893   3.787   2.480
10720SOL    HW132504   5.882   3.881   2.513
10720SOL    HW232505   5.888   3.724   2.557
10721SOL     OW32506   7.208   4.091   2.236
10721SOL    HW132507   7.210   4.015   2.300
10721SOL    HW232508   7.160   4.168   2.276
10722SOL     OW32509   6.609   4.490   2.828
10722SOL    HW132510   6.624   4.511   2.924
10722SOL    HW232511   6.579   4.395   2.819
10723SOL     OW32512   6.566   5.297   3.562
10723SOL    HW132513   6.546   5.341   3.474
10723SOL    HW232514   6.605   5.206   3.546
10724SOL     OW32515   7.445   5.242   3.467
10724SOL    HW132516   7.459   5.269   3.372
10724SOL    HW232517   7.528   5.264   3.520
10725SOL     OW32518   5.936   4.622   3.666
10725SOL    HW132519   6.012   4.666   3.714
10725SOL    HW232520   5.971   4.575   3.584
10726SOL     OW32521   7.126   3.998   1.987
10726SOL    HW132522   7.065   3.923   2.010
10726SOL    HW232523   7.148   4.050   2.070
10727SOL     OW32524   6.889   4.562   1.904
10727SOL    HW132525   6.923   4.469   1.919
10727SOL    HW232526   6.907   4.589   1.809
10728SOL     OW32527   6.654   5.057   2.711
10728SOL    HW132528   6.661   4.973   2.656
10728SOL    HW232529   6.716   5.126   2.675
10729SOL     OW32530   5.905   4.534   2.811
10729SOL    HW132531   5.998   4.570   2.816
10729SOL    HW232532   5.899   4.449   2.863
10730SOL     OW32533   5.925   4.233   2.868
10730SOL    HW132534   5.873   4.150   2.851
10730SOL    HW232535   6.002   4.238   2.804
10731SOL     OW32536   6.724   4.104   3.540
10731SOL    HW132537   6.679   4.167   3.604
10731SOL    HW232538   6.817   4.135   3.523
10732SOL     OW32539   6.746   3.931   3.339
10732SOL    HW132540   6.746   3.995   3.416
10732SOL    HW232541   6.774   3.979   3.256
10733SOL     OW32542   5.594   5.050   2.062
10733SOL    HW132543   5.501   5.071   2.031
10733SOL    HW232544   5.604   4.951   2.075
10734SOL     OW32545   5.674   5.525   2.789
10734SOL    HW132546   5.632   5.439   2.762
10734SOL    HW232547   5.768   5.528   2.755
10735SOL     OW32548   6.090   5.292   2.772
10735SOL    HW132549   6.156   5.366   2.781
10735SOL    HW232550   6.134   5.213   2.730
10736SOL     OW32551   6.588   4.520   3.100
10736SOL    HW132552   6.629   4.488   3.186
10736SOL    HW232553   6.492   4.493   3.097
10737SOL     OW32554   5.626   4.268   2.976
10737SOL    HW132555   5.711   4.235   2.935
10737SOL    HW232556   5.639   4.283   3.074
10738SOL     OW32557   5.775   4.244   3.584
10738SOL    HW132558   5.834   4.204   3.514
10738SOL    HW232559   5.717   4.315   3.543
10739SOL     OW32560   6.955   4.674   3.522
10739SOL    HW132561   6.994   4.763   3.542
10739SOL    HW232562   6.965   4.654   3.425
10740SOL     OW32563   6.401   4.296   2.187
10740SOL    HW132564   6.408   4.207   2.141
10740SOL    HW232565   6.307   4.330   2.179
10741SOL     OW32566   7.243   4.328   3.068
10741SOL    HW132567   7.205   4.259   3.130
10741SOL    HW232568   7.325   4.292   3.024
10742SOL     OW32569   5.838   5.288   3.606
10742SOL    HW132570   5.808   5.345   3.682
10742SOL    HW232571   5.831   5.191   3.632
10743SOL     OW32572   6.257   4.188   3.131
10743SOL    HW132573   6.223   4.099   3.101
10743SOL    HW232574   6.283   4.242   3.051
10744SOL     OW32575   6.516   5.402   3.327
10744SOL    HW132576   6.492   5.384   3.232
10744SOL    HW232577   6.546   5.496   3.337
10745SOL     OW32578   6.059   4.224   2.053
10745SOL    HW132579   6.120   4.304   2.057
10745SOL    HW232580   5.964   4.255   2.060
10746SOL     OW32581   5.745   4.861   3.328
10746SOL    HW132582   5.767   4.800   3.404
10746SOL    HW232583   5.755   4.812   3.242
10747SOL     OW32584   6.933   4.783   3.096
10747SOL    HW132585   6.957   4.720   3.022
10747SOL    HW232586   6.843   4.823   3.078
10748SOL     OW32587   6.888   4.579   2.171
10748SOL    HW132588   6.802   4.548   2.213
10748SOL    HW232589   6.884   4.565   2.072
10749SOL     OW32590   7.345   5.471   3.016
10749SOL    HW132591   7.406   5.501   2.943
10749SOL    HW232592   7.307   5.382   2.994
10750SOL     OW32593   6.838   5.455   2.990
10750SOL    HW132594   6.922   5.460   2.936
10750SOL    HW232595   6.815   5.359   3.008
10751SOL     OW32596   5.669   4.982   2.884
10751SOL    HW132597   5.664   4.981   2.984
10751SOL    HW232598   5.586   4.941   2.846
10752SOL     OW32599   6.274   5.386   3.578
10752SOL    HW132600   6.218   5.467   3.587
10752SOL    HW232601   6.326   5.390   3.492
10753SOL     OW32602   7.312   3.859   2.385
10753SOL    HW132603   7.385   3.842   2.318
10753SOL    HW232604   7.281   3.772   2.423
10754SOL     OW32605   6.974   5.297   2.339
10754SOL    HW132606   7.041   5.309   2.265
10754SOL    HW232607   6.934   5.386   2.362
10755SOL     OW32608   5.716   5.518   3.713
10755SOL    HW132609   5.675   5.444   3.766
10755SOL    HW232610   5.780   5.569   3.771
10756SOL     OW32611   6.866   4.651   2.534
10756SOL    HW132612   6.926   4.570   2.536
10756SOL    HW232613   6.906   4.720   2.474
10757SOL     OW32614   6.416   4.997   3.284
10757SOL    HW132615   6.411   5.030   3.379
10757SOL    HW232616   6.330   5.016   3.238
10758SOL     OW32617   6.258   5.340   2.016
10758SOL    HW132618   6.267   5.350   1.917
10758SOL    HW232619   6.218   5.251   2.037
10759SOL     OW32620   7.236   5.444   3.256
10759SOL    HW132621   7.289   5.454   3.172
10759SOL    HW232622   7.209   5.534   3.290
10760SOL     OW32623   7.427   3.899   2.825
10760SOL    HW132624   7.466   3.814   2.789
10760SOL    HW232625   7.329   3.901   2.806
10761SOL     OW32626   5.849   4.050   2.582
10761SOL    HW132627   5.770   4.101   2.548
10761SOL    HW232628   5.840   4.035   2.680
10762SOL     OW32629   6.780   5.336   1.893
10762SOL    HW132630   6.786   5.243   1.930
10762SOL    HW232631   6.721   5.336   1.813
10763SOL     OW32632   6.408   4.726   3.234
10763SOL    HW132633   6.448   4.725   3.142
10763SOL    HW232634   6.418   4.818   3.274
10764SOL     OW32635   6.502   4.634   2.153
10764SOL    HW132636   6.565   4.672   2.085
10764SOL    HW232637   6.542   4.551   2.192
10765SOL     OW32638   7.090   5.331   1.906
10765SOL    HW132639   6.998   5.368   1.913
10765SOL    HW232640   7.128   5.351   1.816
10766SOL     OW32641   6.625   4.822   2.558
10766SOL    HW132642   6.555   4.775   2.612
10766SOL    HW232643   6.684   4.754   2.515
10767SOL     OW32644   6.600   3.960   2.833
10767SOL    HW132645   6.592   3.924   2.740
10767SOL    HW232646   6.598   3.884   2.898
10768SOL     OW32647   6.176   5.211   2.353
10768SOL    HW132648   6.218   5.153   2.283
10768SOL    HW232649   6.132   5.290   2.309
10769SOL     OW32650   7.295   4.109   3.243
10769SOL    HW132651   7.368   4.178   3.247
10769SOL    HW232652   7.323   4.034   3.184
10770SOL     OW32653   5.841   5.072   2.152
10770SOL    HW132654   5.745   5.073   2.125
10770SOL    HW232655   5.853   5.125   2.236
10771SOL     OW32656   5.691   4.737   3.588
10771SOL    HW132657   5.614   4.704   3.642
10771SOL    HW232658   5.776   4.707   3.630
10772SOL     OW32659   6.258   3.927   3.351
10772SOL    HW132660   6.348   3.911   3.311
10772SOL    HW232661   6.266   3.932   3.450
10773SOL     OW32662   5.661   4.069   1.895
10773SOL    HW132663   5.569   4.041   1.866
10773SOL    HW232664   5.692   4.146   1.839
10774SOL     OW32665   7.026   4.580   3.260
10774SOL    HW132666   6.969   4.632   3.197
10774SOL    HW232667   7.122   4.592   3.236
10775SOL     OW32668   5.658   3.890   2.180
10775SOL    HW132669   5.641   3.973   2.126
10775SOL    HW232670   5.748   3.853   2.158
10776SOL     OW32671   6.769   5.059   1.981
10776SOL    HW132672   6.670   5.048   1.983
10776SOL    HW232673   6.803   5.074   2.074
10777SOL     OW32674   6.199   4.566   3.293
10777SOL    HW132675   6.255   4.647   3.276
10777SOL    HW232676   6.258   4.486   3.296
10778SOL     OW32677   7.079   5.491   2.821
10778SOL    HW132678   7.112   5.555   2.752
10778SOL    HW232679   7.145   5.485   2.896
10779SOL     OW32680   6.302   4.289   3.570
10779SOL    HW132681   6.321   4.354   3.644
10779SOL    HW232682   6.362   4.209   3.579
10780SOL     OW32683   7.036   4.944   3.495
10780SOL    HW132684   7.027   4.934   3.594
10780SOL    HW232685   7.132   4.937   3.469
10781SOL     OW32686   5.976   5.465   3.422
10781SOL    HW132687   5.885   5.506   3.420
10781SOL    HW232688   5.969   5.371   3.454
10782SOL     OW32689   7.260   4.607   3.116
10782SOL    HW132690   7.233   4.518   3.079
10782SOL    HW232691   7.261   4.675   3.043
10783SOL     OW32692   6.811   4.049   2.311
10783SOL    HW132693   6.876   3.975   2.300
10783SOL    HW232694   6.831   4.099   2.395
10784SOL     OW32695   6.180   4.469   2.514
10784SOL    HW132696   6.230   4.554   2.495
10784SOL    HW232697   6.092   4.471   2.466
10785SOL     OW32698   7.363   4.066   3.504
10785SOL    HW132699   7.346   4.097   3.410
10785SOL    HW232700   7.279   4.029   3.542
10786SOL     OW32701   7.316   4.658   3.379
10786SOL    HW132702   7.354   4.749   3.394
10786SOL    HW232703   7.308   4.641   3.280
10787SOL     OW32704   6.445   5.098   1.878
10787SOL    HW132705   6.399   5.113   1.966
10787SOL    HW232706   6.489   5.183   1.848
10788SOL     OW32707   6.247   5.514   2.815
10788SOL    HW132708   6.201   5.602   2.802
10788SOL    HW232709   6.346   5.526   2.808
10789SOL     OW32710   6.445   4.680   2.723
10789SOL    HW132711   6.499   4.611   2.771
10789SOL    HW232712   6.413   4.749   2.789
10790SOL     OW32713   6.669   4.708   1.949
10790SOL    HW132714   6.646   4.761   1.867
10790SOL    HW232715   6.750   4.652   1.930
10791SOL     OW32716   7.447   5.293   2.713
10791SOL    HW132717   7.376   5.281   2.643
10791SOL    HW232718   7.448   5.214   2.773
10792SOL     OW32719   5.807   5.038   3.706
10792SOL    HW132720   5.742   4.965   3.685
10792SOL    HW232721   5.811   5.052   3.804
10793SOL     OW32722   5.665   4.964   2.515
10793SOL    HW132723   5.664   4.917   2.603
10793SOL    HW232724   5.747   4.936   2.464
10794SOL     OW32725   6.258   5.115   3.486
10794SOL    HW132726   6.180   5.065   3.524
10794SOL    HW232727   6.255   5.210   3.517
10795SOL     OW32728   7.410   3.916   3.089
10795SOL    HW132729   7.406   3.826   3.133
10795SOL    HW232730   7.413   3.905   2.990
10796SOL     OW32731   6.014   4.148   2.382
10796SOL    HW132732   6.044   4.076   2.320
10796SOL    HW232733   5.975   4.108   2.465
10797SOL     OW32734   7.291   5.211   2.966
10797SOL    HW132735   7.198   5.186   2.939
10797SOL    HW232736   7.317   5.161   3.048
10798SOL     OW32737   5.903   4.271   3.142
10798SOL    HW132738   5.941   4.212   3.214
10798SOL    HW232739   5.943   4.245   3.054
10799SOL     OW32740   6.398   5.310   2.549
10799SOL    HW132741   6.430   5.320   2.455
10799SOL    HW232742   6.319   5.248   2.551
10800SOL     OW32743   7.010   3.938   2.974
10800SOL    HW132744   7.062   3.873   3.029
10800SOL    HW232745   6.961   4.001   3.035
10801SOL     OW32746   6.587   3.758   3.016
10801SOL    HW132747   6.524   3.686   2.985
10801SOL    HW232748   6.680   3.722   3.016
10802SOL     OW32749   6.356   5.054   2.163
10802SOL    HW132750   6.310   4.967   2.180
10802SOL    HW232751   6.447   5.051   2.204
10803SOL     OW32752   6.204   5.291   3.146
10803SOL    HW132753   6.199   5.373   3.203
10803SOL    HW232754   6.293   5.288   3.101
10804SOL     OW32755   6.938   3.776   2.030
10804SOL    HW132756   6.973   3.735   1.946
10804SOL    HW232757   6.848   3.738   2.050
10805SOL     OW32758   6.886   4.177   2.553
10805SOL    HW132759   6.827   4.257   2.557
10805SOL    HW232760   6.901   4.142   2.646
10806SOL     OW32761   7.179   3.945   2.744
10806SOL    HW132762   7.095   3.944   2.798
10806SOL    HW232763   7.181   4.028   2.688
10807SOL     OW32764   5.625   4.801   2.162
10807SOL    HW132765   5.724   4.790   2.153
10807SOL    HW232766   5.585   4.715   2.194
10808SOL     OW32767   6.461   5.370   2.199
10808SOL    HW132768   6.384   5.335   2.145
10808SOL    HW232769   6.429   5.441   2.261
10809SOL     OW32770   5.816   4.352   3.837
10809SOL    HW132771   5.723   4.350   3.874
10809SOL    HW232772   5.817   4.313   3.745
10810SOL     OW32773   5.811   3.999   4.720
10810SOL    HW132774   5.846   3.982   4.812
10810SOL    HW232775   5.723   3.954   4.708
10811SOL     OW32776   5.605   4.092   4.371
10811SOL    HW132777   5.523   4.135   4.410
10811SOL    HW232778   5.577   4.019   4.308
10812SOL     OW32779   6.155   4.999   4.889
10812SOL    HW132780   6.062   4.992   4.852
10812SOL    HW232781   6.166   5.088   4.933
10813SOL     OW32782   7.141   5.235   4.427
10813SOL    HW132783   7.084   5.219   4.508
10813SOL    HW232784   7.082   5.245   4.347
10814SOL     OW32785   6.721   4.427   4.441
10814SOL    HW132786   6.778   4.505   4.416
10814SOL    HW232787   6.661   4.453   4.517
10815SOL     OW32788   7.341   4.331   3.955
10815SOL    HW132789   7.329   4.318   3.856
10815SOL    HW232790   7.311   4.250   4.004
10816SOL     OW32791   6.354   4.868   4.747
10816SOL    HW132792   6.276   4.885   4.807
10816SOL    HW232793   6.388   4.955   4.711
10817SOL     OW32794   6.436   4.522   5.547
10817SOL    HW132795   6.432   4.598   5.612
10817SOL    HW232796   6.458   4.558   5.456
10818SOL     OW32797   6.271   4.736   4.389
10818SOL    HW132798   6.340   4.720   4.459
10818SOL    HW232799   6.198   4.793   4.427
10819SOL     OW32800   6.272   4.885   5.527
10819SOL    HW132801   6.332   4.964   5.541
10819SOL    HW232802   6.186   4.916   5.486
10820SOL     OW32803   5.921   5.159   4.785
10820SOL    HW132804   5.843   5.128   4.732
10820SOL    HW232805   5.979   5.217   4.728
10821SOL     OW32806   7.046   5.229   5.063
10821SOL    HW132807   7.070   5.323   5.089
10821SOL    HW232808   7.030   5.175   5.145
10822SOL     OW32809   6.024   4.116   5.223
10822SOL    HW132810   6.106   4.060   5.232
10822SOL    HW232811   5.943   4.058   5.227
10823SOL     OW32812   7.189   4.171   4.461
10823SOL    HW132813   7.115   4.217   4.411
10823SOL    HW232814   7.240   4.239   4.514
10824SOL     OW32815   5.817   5.437   4.207
10824SOL    HW132816   5.851   5.514   4.261
10824SOL    HW232817   5.861   5.437   4.117
10825SOL     OW32818   6.713   5.065   5.414
10825SOL    HW132819   6.760   5.065   5.502
10825SOL    HW232820   6.665   4.978   5.403
10826SOL     OW32821   5.816   5.158   4.262
10826SOL    HW132822   5.790   5.254   4.262
10826SOL    HW232823   5.745   5.104   4.307
10827SOL     OW32824   5.826   4.815   4.610
10827SOL    HW132825   5.840   4.731   4.662
10827SOL    HW232826   5.771   4.879   4.665
10828SOL     OW32827   6.206   5.510   5.163
10828SOL    HW132828   6.114   5.493   5.198
10828SOL    HW232829   6.234   5.602   5.189
10829SOL     OW32830   6.192   4.688   3.847
10829SOL    HW132831   6.199   4.772   3.793
10829SOL    HW232832   6.238   4.701   3.935
10830SOL     OW32833   7.180   3.838   5.204
10830SOL    HW132834   7.162   3.905   5.132
10830SOL    HW232835   7.177   3.884   5.293
10831SOL     OW32836   5.708   4.367   4.287
10831SOL    HW132837   5.663   4.279   4.304
10831SOL    HW232838   5.707   4.421   4.371
10832SOL     OW32839   7.428   5.491   4.083
10832SOL    HW132840   7.482   5.462   4.163
10832SOL    HW232841   7.458   5.581   4.054
10833SOL     OW32842   5.613   5.320   3.841
10833SOL    HW132843   5.594   5.224   3.862
10833SOL    HW232844   5.580   5.378   3.916
10834SOL     OW32845   7.275   4.646   4.336
10834SOL    HW132846   7.370   4.617   4.344
10834SOL    HW232847   7.267   4.711   4.261
10835SOL     OW32848   7.227   4.832   4.156
10835SOL    HW132849   7.313   4.834   4.104
10835SOL    HW232850   7.241   4.879   4.244
10836SOL     OW32851   5.699   4.461   5.321
10836SOL    HW132852   5.787   4.448   5.366
10836SOL    HW232853   5.686   4.558   5.299
10837SOL     OW32854   6.199   5.089   4.450
10837SOL    HW132855   6.150   5.002   4.459
10837SOL    HW232856   6.176   5.132   4.363
10838SOL     OW32857   6.879   4.952   5.147
10838SOL    HW132858   6.916   4.879   5.089
10838SOL    HW232859   6.931   4.957   5.232
10839SOL     OW32860   6.395   3.728   4.226
10839SOL    HW132861   6.435   3.819   4.217
10839SOL    HW232862   6.295   3.736   4.232
10840SOL     OW32863   5.783   4.700   4.988
10840SOL    HW132864   5.872   4.655   4.974
10840SOL    HW232865   5.710   4.635   4.969
10841SOL     OW32866   7.111   4.723   3.914
10841SOL    HW132867   7.048   4.647   3.927
10841SOL    HW232868   7.159   4.741   4.000
10842SOL     OW32869   6.773   5.516   5.340
10842SOL    HW132870   6.797   5.576   5.264
10842SOL    HW232871   6.780   5.421   5.310
10843SOL     OW32872   5.903   3.975   5.525
10843SOL    HW132873   5.974   4.046   5.531
10843SOL    HW232874   5.815   4.014   5.553
10844SOL     OW32875   7.052   5.141   4.677
10844SOL    HW132876   6.993   5.147   4.757
10844SOL    HW232877   7.037   5.053   4.631
10845SOL     OW32878   7.253   5.438   4.296
10845SOL    HW132879   7.212   5.415   4.208
10845SOL    HW232880   7.235   5.364   4.361
10846SOL     OW32881   6.184   4.453   3.994
10846SOL    HW132882   6.208   4.522   3.926
10846SOL    HW232883   6.106   4.486   4.048
10847SOL     OW32884   6.867   4.069   4.668
10847SOL    HW132885   6.781   4.019   4.655
10847SOL    HW232886   6.929   4.015   4.724
10848SOL     OW32887   7.162   5.386   4.031
10848SOL    HW132888   7.251   5.432   4.034
10848SOL    HW232889   7.141   5.362   3.936
10849SOL     OW32890   6.393   4.329   5.189
10849SOL    HW132891   6.346   4.326   5.278
10849SOL    HW232892   6.342   4.274   5.123
10850SOL     OW32893   6.980   4.193   5.398
10850SOL    HW132894   6.960   4.236   5.486
10850SOL    HW232895   7.058   4.131   5.407
10851SOL     OW32896   6.559   4.614   5.296
10851SOL    HW132897   6.605   4.530   5.267
10851SOL    HW232898   6.503   4.648   5.221
10852SOL     OW32899   6.577   4.134   4.966
10852SOL    HW132900   6.500   4.168   5.020
10852SOL    HW232901   6.543   4.083   4.887
10853SOL     OW32902   6.627   4.425   4.153
10853SOL    HW132903   6.653   4.421   4.249
10853SOL    HW232904   6.542   4.374   4.139
10854SOL     OW32905   5.662   4.535   4.513
10854SOL    HW132906   5.761   4.523   4.522
10854SOL    HW232907   5.638   4.630   4.534
10855SOL     OW32908   5.716   5.545   5.295
10855SOL    HW132909   5.706   5.530   5.394
10855SOL    HW232910   5.630   5.581   5.259
10856SOL     OW32911   6.451   4.072   3.919
10856SOL    HW132912   6.510   4.135   3.870
10856SOL    HW232913   6.470   3.978   3.890
10857SOL     OW32914   7.305   4.309   5.555
10857SOL    HW132915   7.279   4.398   5.519
10857SOL    HW232916   7.303   4.241   5.482
10858SOL     OW32917   6.948   4.868   4.269
10858SOL    HW132918   7.031   4.839   4.221
10858SOL    HW232919   6.899   4.935   4.213
10859SOL     OW32920   6.136   3.920   4.609
10859SOL    HW132921   6.131   3.915   4.709
10859SOL    HW232922   6.138   4.016   4.580
10860SOL     OW32923   6.594   5.180   4.201
10860SOL    HW132924   6.548   5.252   4.149
10860SOL    HW232925   6.590   5.200   4.299
10861SOL     OW32926   5.937   5.525   4.577
10861SOL    HW132927   5.987   5.439   4.583
10861SOL    HW232928   6.002   5.602   4.574
10862SOL     OW32929   7.381   4.790   4.597
10862SOL    HW132930   7.319   4.775   4.521
10862SOL    HW232931   7.329   4.801   4.682
10863SOL     OW32932   6.813   5.274   5.230
10863SOL    HW132933   6.819   5.197   5.294
10863SOL    HW232934   6.761   5.248   5.150
10864SOL     OW32935   5.907   4.667   3.966
10864SOL    HW132936   5.989   4.706   3.924
10864SOL    HW232937   5.880   4.585   3.917
10865SOL     OW32938   7.044   4.459   4.452
10865SOL    HW132939   7.039   4.394   4.527
10865SOL    HW232940   7.124   4.518   4.465
10866SOL     OW32941   6.047   4.990   5.451
10866SOL    HW132942   5.997   4.991   5.365
10866SOL    HW232943   5.984   4.972   5.527
10867SOL     OW32944   6.697   5.500   3.961
10867SOL    HW132945   6.637   5.438   4.011
10867SOL    HW232946   6.728   5.456   3.876
10868SOL     OW32947   5.788   4.009   5.222
10868SOL    HW132948   5.708   4.069   5.209
10868SOL    HW232949   5.778   3.960   5.308
10869SOL     OW32950   7.218   5.101   3.805
10869SOL    HW132951   7.186   5.195   3.795
10869SOL    HW232952   7.142   5.038   3.793
10870SOL     OW32953   6.050   5.467   4.047
10870SOL    HW132954   6.083   5.506   4.133
10870SOL    HW232955   6.126   5.460   3.982
10871SOL     OW32956   6.986   3.831   4.150
10871SOL    HW132957   6.962   3.794   4.060
10871SOL    HW232958   7.085   3.847   4.154
10872SOL     OW32959   5.835   5.509   4.965
10872SOL    HW132960   5.892   5.444   5.015
10872SOL    HW232961   5.819   5.476   4.872
10873SOL     OW32962   6.526   5.422   4.628
10873SOL    HW132963   6.606   5.365   4.649
10873SOL    HW232964   6.477   5.382   4.551
10874SOL     OW32965   5.968   4.424   4.204
10874SOL    HW132966   6.013   4.334   4.201
10874SOL    HW232967   5.874   4.413   4.237
10875SOL     OW32968   7.133   3.946   5.453
10875SOL    HW132969   7.128   3.983   5.545
10875SOL    HW232970   7.061   3.877   5.441
10876SOL     OW32971   6.200   3.846   3.841
10876SOL    HW132972   6.298   3.824   3.848
10876SOL    HW232973   6.169   3.829   3.748
10877SOL     OW32974   6.367   3.988   5.473
10877SOL    HW132975   6.434   3.927   5.516
10877SOL    HW232976   6.294   4.007   5.538
10878SOL     OW32977   6.474   5.238   4.919
10878SOL    HW132978   6.451   5.213   4.825
10878SOL    HW232979   6.535   5.169   4.958
10879SOL     OW32980   6.937   4.314   5.157
10879SOL    HW132981   6.965   4.271   5.242
10879SOL    HW232982   6.962   4.410   5.158
10880SOL     OW32983   6.389   5.126   4.648
10880SOL    HW132984   6.479   5.140   4.606
10880SOL    HW232985   6.318   5.128   4.577
10881SOL     OW32986   6.508   4.227   4.623
10881SOL    HW132987   6.483   4.218   4.527
10881SOL    HW232988   6.556   4.145   4.654
10882SOL     OW32989   6.125   3.788   4.236
10882SOL    HW132990   6.044   3.789   4.294
10882SOL    HW232991   6.128   3.871   4.181
10883SOL     OW32992   7.020   4.912   3.765
10883SOL    HW132993   7.052   4.836   3.822
10883SOL    HW232994   6.928   4.939   3.795
10884SOL     OW32995   5.883   3.759   3.895
10884SOL    HW132996   5.932   3.843   3.874
10884SOL    HW232997   5.945   3.694   3.940
10885SOL     OW32998   6.521   3.960   4.204
10885SOL    HW132999   6.473   4.001   4.126
10885SOL    HW233000   6.620   3.958   4.185
10886SOL     OW33001   6.662   4.407   5.188
10886SOL    HW133002   6.582   4.346   5.191
10886SOL    HW233003   6.743   4.354   5.164
10887SOL     OW33004   6.813   5.294   4.517
10887SOL    HW133005   6.834   5.368   4.452
10887SOL    HW233006   6.881   5.294   4.590
10888SOL     OW33007   6.045   4.876   4.465
10888SOL    HW133008   5.974   4.849   4.530
10888SOL    HW233009   6.019   4.848   4.372
10889SOL     OW33010   6.857   5.521   4.315
10889SOL    HW133011   6.901   5.585   4.251
10889SOL    HW233012   6.807   5.573   4.385
10890SOL     OW33013   6.618   4.273   3.740
10890SOL    HW133014   6.577   4.355   3.701
10890SOL    HW233015   6.682   4.299   3.813
10891SOL     OW33016   5.664   4.280   5.110
10891SOL    HW133017   5.756   4.279   5.069
10891SOL    HW233018   5.658   4.354   5.177
10892SOL     OW33019   6.147   3.946   4.871
10892SOL    HW133020   6.185   3.862   4.908
10892SOL    HW233021   6.059   3.965   4.915
10893SOL     OW33022   6.452   4.178   4.366
10893SOL    HW133023   6.420   4.250   4.304
10893SOL    HW233024   6.476   4.097   4.313
10894SOL     OW33025   6.603   3.763   4.477
10894SOL    HW133026   6.531   3.768   4.408
10894SOL    HW233027   6.579   3.694   4.546
10895SOL     OW33028   7.015   4.897   4.591
10895SOL    HW133029   6.960   4.813   4.584
10895SOL    HW233030   7.041   4.926   4.499
10896SOL     OW33031   7.052   4.314   4.716
10896SOL    HW133032   7.022   4.219   4.723
10896SOL    HW233033   7.125   4.330   4.782
10897SOL     OW33034   7.443   4.557   4.101
10897SOL    HW133035   7.485   4.493   4.165
10897SOL    HW233036   7.405   4.506   4.023
10898SOL     OW33037   6.074   5.109   3.898
10898SOL    HW133038   5.987   5.094   3.945
10898SOL    HW233039   6.057   5.135   3.803
10899SOL     OW33040   7.250   5.004   4.381
10899SOL    HW133041   7.349   5.012   4.395
10899SOL    HW233042   7.205   5.088   4.412
10900SOL     OW33043   6.976   4.299   3.802
10900SOL    HW133044   6.922   4.278   3.883
10900SOL    HW233045   7.067   4.258   3.811
10901SOL     OW33046   6.113   3.980   4.052
10901SOL    HW133047   6.140   3.921   3.977
10901SOL    HW233048   6.113   4.075   4.021
10902SOL     OW33049   7.340   4.947   5.312
10902SOL    HW133050   7.431   4.908   5.299
10902SOL    HW233051   7.348   5.043   5.336
10903SOL     OW33052   6.650   5.071   5.064
10903SOL    HW133053   6.570   5.048   5.119
10903SOL    HW233054   6.733   5.045   5.113
10904SOL     OW33055   7.178   5.353   5.349
10904SOL    HW133056   7.205   5.387   5.259
10904SOL    HW233057   7.257   5.315   5.395
10905SOL     OW33058   6.697   4.919   4.824
10905SOL    HW133059   6.657   4.963   4.905
10905SOL    HW233060   6.656   4.956   4.741
10906SOL     OW33061   7.224   4.823   4.803
10906SOL    HW133062   7.229   4.904   4.862
10906SOL    HW233063   7.138   4.825   4.752
10907SOL     OW33064   6.501   3.813   5.126
10907SOL    HW133065   6.526   3.793   5.031
10907SOL    HW233066   6.573   3.869   5.168
10908SOL     OW33067   6.566   4.840   5.443
10908SOL    HW133068   6.467   4.846   5.453
10908SOL    HW233069   6.589   4.760   5.387
10909SOL     OW33070   6.291   4.774   4.092
10909SOL    HW133071   6.277   4.781   4.191
10909SOL    HW233072   6.375   4.723   4.074
10910SOL     OW33073   5.996   4.537   4.975
10910SOL    HW133074   6.082   4.549   5.025
10910SOL    HW233075   5.954   4.450   5.002
10911SOL     OW33076   6.860   4.110   4.986
10911SOL    HW133077   6.881   4.184   5.050
10911SOL    HW233078   6.771   4.127   4.943
10912SOL     OW33079   5.650   5.288   5.055
10912SOL    HW133080   5.604   5.370   5.021
10912SOL    HW233081   5.748   5.307   5.064
10913SOL     OW33082   5.953   4.824   4.225
10913SOL    HW133083   5.946   4.907   4.169
10913SOL    HW233084   5.957   4.744   4.165
10914SOL     OW33085   6.152   4.261   4.589
10914SOL    HW133086   6.164   4.327   4.515
10914SOL    HW233087   6.198   4.295   4.672
10915SOL     OW33088   6.838   5.072   4.112
10915SOL    HW133089   6.888   5.149   4.152
10915SOL    HW233090   6.743   5.074   4.144
10916SOL     OW33091   6.858   5.169   4.866
10916SOL    HW133092   6.905   5.182   4.953
10916SOL    HW233093   6.792   5.095   4.875
10917SOL     OW33094   7.168   4.363   4.196
10917SOL    HW133095   7.137   4.424   4.269
10917SOL    HW233096   7.218   4.415   4.127
10918SOL     OW33097   5.940   5.234   5.053
10918SOL    HW133098   5.919   5.190   4.966
10918SOL    HW233099   6.037   5.260   5.056
10919SOL     OW33100   5.988   4.475   5.322
10919SOL    HW133101   6.056   4.530   5.275
10919SOL    HW233102   6.028   4.387   5.349
10920SOL     OW33103   7.173   4.503   5.394
10920SOL    HW133104   7.081   4.541   5.389
10920SOL    HW233105   7.233   4.550   5.329
10921SOL     OW33106   6.599   3.829   5.494
10921SOL    HW133107   6.605   3.914   5.442
10921SOL    HW233108   6.631   3.753   5.437
10922SOL     OW33109   6.090   3.774   5.464
10922SOL    HW133110   6.048   3.717   5.394
10922SOL    HW233111   6.024   3.843   5.496
10923SOL     OW33112   6.159   4.594   4.753
10923SOL    HW133113   6.203   4.683   4.744
10923SOL    HW233114   6.096   4.594   4.830
10924SOL     OW33115   6.946   4.586   4.769
10924SOL    HW133116   6.871   4.586   4.703
10924SOL    HW233117   6.983   4.494   4.778
10925SOL     OW33118   6.795   4.249   3.999
10925SOL    HW133119   6.808   4.165   4.053
10925SOL    HW233120   6.766   4.323   4.059
10926SOL     OW33121   5.893   3.937   4.955
10926SOL    HW133122   5.870   3.974   5.045
10926SOL    HW233123   5.863   3.842   4.949
10927SOL     OW33124   5.623   5.034   5.006
10927SOL    HW133125   5.676   4.985   5.074
10927SOL    HW233126   5.645   5.132   5.011
10928SOL     OW33127   6.318   4.358   4.788
10928SOL    HW133128   6.377   4.332   4.712
10928SOL    HW233129   6.290   4.454   4.777
10929SOL     OW33130   7.314   4.659   5.578
10929SOL    HW133131   7.268   4.652   5.489
10929SOL    HW233132   7.252   4.703   5.644
10930SOL     OW33133   5.893   3.787   4.342
10930SOL    HW133134   5.882   3.881   4.375
10930SOL    HW233135   5.888   3.724   4.419
10931SOL     OW33136   7.208   4.091   4.098
10931SOL    HW133137   7.210   4.015   4.162
10931SOL    HW233138   7.160   4.168   4.138
10932SOL     OW33139   6.609   4.490   4.690
10932SOL    HW133140   6.624   4.511   4.786
10932SOL    HW233141   6.579   4.395   4.681
10933SOL     OW33142   6.566   5.297   5.424
10933SOL    HW133143   6.546   5.341   5.336
10933SOL    HW233144   6.605   5.206   5.408
10934SOL     OW33145   7.445   5.242   5.329
10934SOL    HW133146   7.459   5.269   5.234
10934SOL    HW233147   7.528   5.264   5.382
10935SOL     OW33148   5.936   4.622   5.528
10935SOL    HW133149   6.012   4.666   5.576
10935SOL    HW233150   5.971   4.575   5.446
10936SOL     OW33151   7.126   3.998   3.849
10936SOL    HW133152   7.065   3.923   3.872
10936SOL    HW233153   7.148   4.050   3.932
10937SOL     OW33154   6.889   4.562   3.766
10937SOL    HW133155   6.923   4.469   3.781
10937SOL    HW233156   6.907   4.589   3.671
10938SOL     OW33157   6.654   5.057   4.573
10938SOL    HW133158   6.661   4.973   4.518
10938SOL    HW233159   6.716   5.126   4.537
10939SOL     OW33160   5.905   4.534   4.673
10939SOL    HW133161   5.998   4.570   4.678
10939SOL    HW233162   5.899   4.449   4.725
10940SOL     OW33163   5.925   4.233   4.730
10940SOL    HW133164   5.873   4.150   4.713
10940SOL    HW233165   6.002   4.238   4.666
10941SOL     OW33166   6.724   4.104   5.402
10941SOL    HW133167   6.679   4.167   5.466
10941SOL    HW233168   6.817   4.135   5.385
10942SOL     OW33169   6.746   3.931   5.201
10942SOL    HW133170   6.746   3.995   5.278
10942SOL    HW233171   6.774   3.979   5.118
10943SOL     OW33172   5.594   5.050   3.924
10943SOL    HW133173   5.501   5.071   3.893
10943SOL    HW233174   5.604   4.951   3.937
10944SOL     OW33175   5.674   5.525   4.651
10944SOL    HW133176   5.632   5.439   4.624
10944SOL    HW233177   5.768   5.528   4.617
10945SOL     OW33178   6.090   5.292   4.634
10945SOL    HW133179   6.156   5.366   4.643
10945SOL    HW233180   6.134   5.213   4.592
10946SOL     OW33181   6.588   4.520   4.962
10946SOL    HW133182   6.629   4.488   5.048
10946SOL    HW233183   6.492   4.493   4.959
10947SOL     OW33184   5.626   4.268   4.838
10947SOL    HW133185   5.711   4.235   4.797
10947SOL    HW233186   5.639   4.283   4.936
10948SOL     OW33187   5.775   4.244   5.446
10948SOL    HW133188   5.834   4.204   5.376
10948SOL    HW233189   5.717   4.315   5.405
10949SOL     OW33190   6.955   4.674   5.384
10949SOL    HW133191   6.994   4.763   5.404
10949SOL    HW233192   6.965   4.654   5.287
10950SOL     OW33193   6.401   4.296   4.049
10950SOL    HW133194   6.408   4.207   4.003
10950SOL    HW233195   6.307   4.330   4.041
10951SOL     OW33196   7.243   4.328   4.930
10951SOL    HW133197   7.205   4.259   4.992
10951SOL    HW233198   7.325   4.292   4.886
10952SOL     OW33199   5.838   5.288   5.468
10952SOL    HW133200   5.808   5.345   5.544
10952SOL    HW233201   5.831   5.191   5.494
10953SOL     OW33202   6.257   4.188   4.993
10953SOL    HW133203   6.223   4.099   4.963
10953SOL    HW233204   6.283   4.242   4.913
10954SOL     OW33205   6.516   5.402   5.189
10954SOL    HW133206   6.492   5.384   5.094
10954SOL    HW233207   6.546   5.496   5.199
10955SOL     OW33208   6.059   4.224   3.915
10955SOL    HW133209   6.120   4.304   3.919
10955SOL    HW233210   5.964   4.255   3.922
10956SOL     OW33211   5.745   4.861   5.190
10956SOL    HW133212   5.767   4.800   5.266
10956SOL    HW233213   5.755   4.812   5.104
10957SOL     OW33214   6.933   4.783   4.958
10957SOL    HW133215   6.957   4.720   4.884
10957SOL    HW233216   6.843   4.823   4.940
10958SOL     OW33217   6.888   4.579   4.033
10958SOL    HW133218   6.802   4.548   4.075
10958SOL    HW233219   6.884   4.565   3.934
10959SOL     OW33220   7.345   5.471   4.878
10959SOL    HW133221   7.406   5.501   4.805
10959SOL    HW233222   7.307   5.382   4.856
10960SOL     OW33223   6.838   5.455   4.852
10960SOL    HW133224   6.922   5.460   4.798
10960SOL    HW233225   6.815   5.359   4.870
10961SOL     OW33226   5.669   4.982   4.746
10961SOL    HW133227   5.664   4.981   4.846
10961SOL    HW233228   5.586   4.941   4.708
10962SOL     OW33229   6.274   5.386   5.440
10962SOL    HW133230   6.218   5.467   5.449
10962SOL    HW233231   6.326   5.390   5.354
10963SOL     OW33232   7.312   3.859   4.247
10963SOL    HW133233   7.385   3.842   4.180
10963SOL    HW233234   7.281   3.772   4.285
10964SOL     OW33235   6.974   5.297   4.201
10964SOL    HW133236   7.041   5.309   4.127
10964SOL    HW233237   6.934   5.386   4.224
10965SOL     OW33238   5.716   5.518   5.575
10965SOL    HW133239   5.675   5.444   5.628
10965SOL    HW233240   5.780   5.569   5.633
10966SOL     OW33241   6.866   4.651   4.396
10966SOL    HW133242   6.926   4.570   4.398
10966SOL    HW233243   6.906   4.720   4.336
10967SOL     OW33244   6.416   4.997   5.146
10967SOL    HW133245   6.411   5.030   5.241
10967SOL    HW233246   6.330   5.016   5.100
10968SOL     OW33247   6.258   5.340   3.878
10968SOL    HW133248   6.267   5.350   3.779
10968SOL    HW233249   6.218   5.251   3.899
10969SOL     OW33250   7.236   5.444   5.118
10969SOL    HW133251   7.289   5.454   5.034
10969SOL    HW233252   7.209   5.534   5.152
10970SOL     OW33253   7.427   3.899   4.687
10970SOL    HW133254   7.466   3.814   4.651
10970SOL    HW233255   7.329   3.901   4.668
10971SOL     OW33256   5.849   4.050   4.444
10971SOL    HW133257   5.770   4.101   4.410
10971SOL    HW233258   5.840   4.035   4.542
10972SOL     OW33259   6.780   5.336   3.755
10972SOL    HW133260   6.786   5.243   3.792
10972SOL    HW233261   6.721   5.336   3.675
10973SOL     OW33262   6.408   4.726   5.096
10973SOL    HW133263   6.448   4.725   5.004
10973SOL    HW233264   6.418   4.818   5.136
10974SOL     OW33265   6.502   4.634   4.015
10974SOL    HW133266   6.565   4.672   3.947
10974SOL    HW233267   6.542   4.551   4.054
10975SOL     OW33268   7.090   5.331   3.768
10975SOL    HW133269   6.998   5.368   3.775
10975SOL    HW233270   7.128   5.351   3.678
10976SOL     OW33271   5.958   5.012   5.214
10976SOL    HW133272   5.945   5.105   5.180
10976SOL    HW233273   5.874   4.960   5.201
10977SOL     OW33274   7.200   5.016   5.013
10977SOL    HW133275   7.260   5.019   5.093
10977SOL    HW233276   7.125   5.080   5.026
10978SOL     OW33277   6.625   4.822   4.420
10978SOL    HW133278   6.555   4.775   4.474
10978SOL    HW233279   6.684   4.754   4.377
10979SOL     OW33280   6.600   3.960   4.695
10979SOL    HW133281   6.592   3.924   4.602
10979SOL    HW233282   6.598   3.884   4.760
10980SOL     OW33283   6.176   5.211   4.215
10980SOL    HW133284   6.218   5.153   4.145
10980SOL    HW233285   6.132   5.290   4.171
10981SOL     OW33286   7.295   4.109   5.105
10981SOL    HW133287   7.368   4.178   5.109
10981SOL    HW233288   7.323   4.034   5.046
10982SOL     OW33289   5.841   5.072   4.014
10982SOL    HW133290   5.745   5.073   3.987
10982SOL    HW233291   5.853   5.125   4.098
10983SOL     OW33292   5.691   4.737   5.450
10983SOL    HW133293   5.614   4.704   5.504
10983SOL    HW233294   5.776   4.707   5.492
10984SOL     OW33295   6.258   3.927   5.213
10984SOL    HW133296   6.348   3.911   5.173
10984SOL    HW233297   6.266   3.932   5.312
10985SOL     OW33298   5.661   4.069   3.757
10985SOL    HW133299   5.569   4.041   3.728
10985SOL    HW233300   5.692   4.146   3.701
10986SOL     OW33301   7.026   4.580   5.122
10986SOL    HW133302   6.969   4.632   5.059
10986SOL    HW233303   7.122   4.592   5.098
10987SOL     OW33304   5.658   3.890   4.042
10987SOL    HW133305   5.641   3.973   3.988
10987SOL    HW233306   5.748   3.853   4.020
10988SOL     OW33307   6.769   5.059   3.843
10988SOL    HW133308   6.670   5.048   3.845
10988SOL    HW233309   6.803   5.074   3.936
10989SOL     OW33310   6.199   4.566   5.155
10989SOL    HW133311   6.255   4.647   5.138
10989SOL    HW233312   6.258   4.486   5.158
10990SOL     OW33313   7.079   5.491   4.683
10990SOL    HW133314   7.112   5.555   4.614
10990SOL    HW233315   7.145   5.485   4.758
10991SOL     OW33316   6.302   4.289   5.432
10991SOL    HW133317   6.321   4.354   5.506
10991SOL    HW233318   6.362   4.209   5.441
10992SOL     OW33319   7.036   4.944   5.357
10992SOL    HW133320   7.027   4.934   5.456
10992SOL    HW233321   7.132   4.937   5.331
10993SOL     OW33322   5.976   5.465   5.284
10993SOL    HW133323   5.885   5.506   5.282
10993SOL    HW233324   5.969   5.371   5.316
10994SOL     OW33325   7.260   4.607   4.978
10994SOL    HW133326   7.233   4.518   4.941
10994SOL    HW233327   7.261   4.675   4.905
10995SOL     OW33328   6.811   4.049   4.173
10995SOL    HW133329   6.876   3.975   4.162
10995SOL    HW233330   6.831   4.099   4.257
10996SOL     OW33331   6.180   4.469   4.376
10996SOL    HW133332   6.230   4.554   4.357
10996SOL    HW233333   6.092   4.471   4.328
10997SOL     OW33334   7.363   4.066   5.366
10997SOL    HW133335   7.346   4.097   5.272
10997SOL    HW233336   7.279   4.029   5.404
10998SOL     OW33337   7.316   4.658   5.241
10998SOL    HW133338   7.354   4.749   5.256
10998SOL    HW233339   7.308   4.641   5.142
10999SOL     OW33340   6.445   5.098   3.740
10999SOL    HW133341   6.399   5.113   3.828
10999SOL    HW233342   6.489   5.183   3.710
11000SOL     OW33343   6.247   5.514   4.677
11000SOL    HW133344   6.201   5.602   4.664
11000SOL    HW233345   6.346   5.526   4.670
11001SOL     OW33346   6.445   4.680   4.585
11001SOL    HW133347   6.499   4.611   4.633
11001SOL    HW233348   6.413   4.749   4.651
11002SOL     OW33349   6.669   4.708   3.811
11002SOL    HW133350   6.646   4.761   3.729
11002SOL    HW233351   6.750   4.652   3.792
11003SOL     OW33352   7.447   5.293   4.575
11003SOL    HW133353   7.376   5.281   4.505
11003SOL    HW233354   7.448   5.214   4.635
11004SOL     OW33355   5.807   5.038   5.568
11004SOL    HW133356   5.742   4.965   5.547
11004SOL    HW233357   5.811   5.052   5.666
11005SOL     OW33358   5.665   4.964   4.377
11005SOL    HW133359   5.664   4.917   4.465
11005SOL    HW233360   5.747   4.936   4.326
11006SOL     OW33361   6.258   5.115   5.348
11006SOL    HW133362   6.180   5.065   5.386
11006SOL    HW233363   6.255   5.210   5.379
11007SOL     OW33364   7.410   3.916   4.951
11007SOL    HW133365   7.406   3.826   4.995
11007SOL    HW233366   7.413   3.905   4.852
11008SOL     OW33367   6.014   4.148   4.244
11008SOL    HW133368   6.044   4.076   4.182
11008SOL    HW233369   5.975   4.108   4.327
11009SOL     OW33370   7.291   5.211   4.828
11009SOL    HW133371   7.198   5.186   4.801
11009SOL    HW233372   7.317   5.161   4.910
11010SOL     OW33373   5.903   4.271   5.004
11010SOL    HW133374   5.941   4.212   5.076
11010SOL    HW233375   5.943   4.245   4.916
11011SOL     OW33376   6.398   5.310   4.411
11011SOL    HW133377   6.430   5.320   4.317
11011SOL    HW233378   6.319   5.248   4.413
11012SOL     OW33379   7.010   3.938   4.836
11012SOL    HW133380   7.062   3.873   4.891
11012SOL    HW233381   6.961   4.001   4.897
11013SOL     OW33382   6.587   3.758   4.878
11013SOL    HW133383   6.524   3.686   4.847
11013SOL    HW233384   6.680   3.722   4.878
11014SOL     OW33385   6.356   5.054   4.025
11014SOL    HW133386   6.310   4.967   4.042
11014SOL    HW233387   6.447   5.051   4.066
11015SOL     OW33388   6.204   5.291   5.008
11015SOL    HW133389   6.199   5.373   5.065
11015SOL    HW233390   6.293   5.288   4.963
11016SOL     OW33391   6.938   3.776   3.892
11016SOL    HW133392   6.973   3.735   3.808
11016SOL    HW233393   6.848   3.738   3.912
11017SOL     OW33394   6.886   4.177   4.415
11017SOL    HW133395   6.827   4.257   4.419
11017SOL    HW233396   6.901   4.142   4.508
11018SOL     OW33397   7.179   3.945   4.606
11018SOL    HW133398   7.095   3.944   4.660
11018SOL    HW233399   7.181   4.028   4.550
11019SOL     OW33400   5.625   4.801   4.024
11019SOL    HW133401   5.724   4.790   4.015
11019SOL    HW233402   5.585   4.715   4.056
11020SOL     OW33403   6.461   5.370   4.061
11020SOL    HW133404   6.384   5.335   4.007
11020SOL    HW233405   6.429   5.441   4.123
11021SOL     OW33406   5.816   4.352   5.699
11021SOL    HW133407   5.723   4.350   5.736
11021SOL    HW233408   5.817   4.313   5.607
11022SOL     OW33409   5.605   4.092   6.233
11022SOL    HW133410   5.523   4.135   6.272
11022SOL    HW233411   5.577   4.019   6.170
11023SOL     OW33412   7.141   5.235   6.289
11023SOL    HW133413   7.084   5.219   6.370
11023SOL    HW233414   7.082   5.245   6.209
11024SOL     OW33415   6.721   4.427   6.303
11024SOL    HW133416   6.778   4.505   6.278
11024SOL    HW233417   6.661   4.453   6.379
11025SOL     OW33418   7.341   4.331   5.817
11025SOL    HW133419   7.329   4.318   5.718
11025SOL    HW233420   7.311   4.250   5.866
11026SOL     OW33421   6.271   4.736   6.251
11026SOL    HW133422   6.340   4.720   6.321
11026SOL    HW233423   6.198   4.793   6.289
11027SOL     OW33424   7.189   4.171   6.323
11027SOL    HW133425   7.115   4.217   6.273
11027SOL    HW233426   7.240   4.239   6.376
11028SOL     OW33427   5.817   5.437   6.069
11028SOL    HW133428   5.851   5.514   6.123
11028SOL    HW233429   5.861   5.437   5.979
11029SOL     OW33430   5.816   5.158   6.124
11029SOL    HW133431   5.790   5.254   6.124
11029SOL    HW233432   5.745   5.104   6.169
11030SOL     OW33433   6.192   4.688   5.709
11030SOL    HW133434   6.199   4.772   5.655
11030SOL    HW233435   6.238   4.701   5.797
11031SOL     OW33436   5.708   4.367   6.149
11031SOL    HW133437   5.663   4.279   6.166
11031SOL    HW233438   5.707   4.421   6.233
11032SOL     OW33439   7.428   5.491   5.945
11032SOL    HW133440   7.482   5.462   6.025
11032SOL    HW233441   7.458   5.581   5.916
11033SOL     OW33442   5.613   5.320   5.703
11033SOL    HW133443   5.594   5.224   5.724
11033SOL    HW233444   5.580   5.378   5.778
11034SOL     OW33445   7.275   4.646   6.198
11034SOL    HW133446   7.370   4.617   6.206
11034SOL    HW233447   7.267   4.711   6.123
11035SOL     OW33448   7.227   4.832   6.018
11035SOL    HW133449   7.313   4.834   5.966
11035SOL    HW233450   7.241   4.879   6.106
11036SOL     OW33451   6.199   5.089   6.312
11036SOL    HW133452   6.150   5.002   6.321
11036SOL    HW233453   6.176   5.132   6.225
11037SOL     OW33454   6.395   3.728   6.088
11037SOL    HW133455   6.435   3.819   6.079
11037SOL    HW233456   6.295   3.736   6.094
11038SOL     OW33457   7.111   4.723   5.776
11038SOL    HW133458   7.048   4.647   5.789
11038SOL    HW233459   7.159   4.741   5.862
11039SOL     OW33460   7.253   5.438   6.158
11039SOL    HW133461   7.212   5.415   6.070
11039SOL    HW233462   7.235   5.364   6.223
11040SOL     OW33463   6.184   4.453   5.856
11040SOL    HW133464   6.208   4.522   5.788
11040SOL    HW233465   6.106   4.486   5.910
11041SOL     OW33466   7.162   5.386   5.893
11041SOL    HW133467   7.251   5.432   5.896
11041SOL    HW233468   7.141   5.362   5.798
11042SOL     OW33469   6.627   4.425   6.015
11042SOL    HW133470   6.653   4.421   6.111
11042SOL    HW233471   6.542   4.374   6.001
11043SOL     OW33472   5.662   4.535   6.375
11043SOL    HW133473   5.761   4.523   6.384
11043SOL    HW233474   5.638   4.630   6.396
11044SOL     OW33475   6.451   4.072   5.781
11044SOL    HW133476   6.510   4.135   5.732
11044SOL    HW233477   6.470   3.978   5.752
11045SOL     OW33478   6.948   4.868   6.131
11045SOL    HW133479   7.031   4.839   6.083
11045SOL    HW233480   6.899   4.935   6.075
11046SOL     OW33481   6.594   5.180   6.063
11046SOL    HW133482   6.548   5.252   6.011
11046SOL    HW233483   6.590   5.200   6.161
11047SOL     OW33484   5.937   5.525   6.439
11047SOL    HW133485   5.987   5.439   6.445
11047SOL    HW233486   6.002   5.602   6.436
11048SOL     OW33487   7.381   4.790   6.459
11048SOL    HW133488   7.319   4.775   6.383
11048SOL    HW233489   7.329   4.801   6.544
11049SOL     OW33490   5.907   4.667   5.828
11049SOL    HW133491   5.989   4.706   5.786
11049SOL    HW233492   5.880   4.585   5.779
11050SOL     OW33493   7.044   4.459   6.314
11050SOL    HW133494   7.039   4.394   6.389
11050SOL    HW233495   7.124   4.518   6.327
11051SOL     OW33496   6.697   5.500   5.823
11051SOL    HW133497   6.637   5.438   5.873
11051SOL    HW233498   6.728   5.456   5.738
11052SOL     OW33499   7.218   5.101   5.667
11052SOL    HW133500   7.186   5.195   5.657
11052SOL    HW233501   7.142   5.038   5.655
11053SOL     OW33502   6.050   5.467   5.909
11053SOL    HW133503   6.083   5.506   5.995
11053SOL    HW233504   6.126   5.460   5.844
11054SOL     OW33505   6.986   3.831   6.012
11054SOL    HW133506   6.962   3.794   5.922
11054SOL    HW233507   7.085   3.847   6.016
11055SOL     OW33508   5.968   4.424   6.066
11055SOL    HW133509   6.013   4.334   6.063
11055SOL    HW233510   5.874   4.413   6.099
11056SOL     OW33511   6.200   3.846   5.703
11056SOL    HW133512   6.298   3.824   5.710
11056SOL    HW233513   6.169   3.829   5.610
11057SOL     OW33514   6.125   3.788   6.098
11057SOL    HW133515   6.044   3.789   6.156
11057SOL    HW233516   6.128   3.871   6.043
11058SOL     OW33517   7.020   4.912   5.627
11058SOL    HW133518   7.052   4.836   5.684
11058SOL    HW233519   6.928   4.939   5.657
11059SOL     OW33520   5.883   3.759   5.757
11059SOL    HW133521   5.932   3.843   5.736
11059SOL    HW233522   5.945   3.694   5.802
11060SOL     OW33523   6.521   3.960   6.066
11060SOL    HW133524   6.473   4.001   5.988
11060SOL    HW233525   6.620   3.958   6.047
11061SOL     OW33526   6.045   4.876   6.327
11061SOL    HW133527   5.974   4.849   6.392
11061SOL    HW233528   6.019   4.848   6.234
11062SOL     OW33529   6.857   5.521   6.177
11062SOL    HW133530   6.901   5.585   6.113
11062SOL    HW233531   6.807   5.573   6.247
11063SOL     OW33532   6.618   4.273   5.602
11063SOL    HW133533   6.577   4.355   5.563
11063SOL    HW233534   6.682   4.299   5.675
11064SOL     OW33535   6.452   4.178   6.228
11064SOL    HW133536   6.420   4.250   6.166
11064SOL    HW233537   6.476   4.097   6.175
11065SOL     OW33538   6.603   3.763   6.339
11065SOL    HW133539   6.531   3.768   6.270
11065SOL    HW233540   6.579   3.694   6.408
11066SOL     OW33541   7.015   4.897   6.453
11066SOL    HW133542   6.960   4.813   6.446
11066SOL    HW233543   7.041   4.926   6.361
11067SOL     OW33544   7.443   4.557   5.963
11067SOL    HW133545   7.485   4.493   6.027
11067SOL    HW233546   7.405   4.506   5.885
11068SOL     OW33547   6.074   5.109   5.760
11068SOL    HW133548   5.987   5.094   5.807
11068SOL    HW233549   6.057   5.135   5.665
11069SOL     OW33550   7.250   5.004   6.243
11069SOL    HW133551   7.349   5.012   6.257
11069SOL    HW233552   7.205   5.088   6.274
11070SOL     OW33553   6.976   4.299   5.664
11070SOL    HW133554   6.922   4.278   5.745
11070SOL    HW233555   7.067   4.258   5.673
11071SOL     OW33556   6.113   3.980   5.914
11071SOL    HW133557   6.140   3.921   5.839
11071SOL    HW233558   6.113   4.075   5.883
11072SOL     OW33559   6.291   4.774   5.954
11072SOL    HW133560   6.277   4.781   6.053
11072SOL    HW233561   6.375   4.723   5.936
11073SOL     OW33562   5.953   4.824   6.087
11073SOL    HW133563   5.946   4.907   6.031
11073SOL    HW233564   5.957   4.744   6.027
11074SOL     OW33565   6.152   4.261   6.451
11074SOL    HW133566   6.164   4.327   6.377
11074SOL    HW233567   6.198   4.295   6.534
11075SOL     OW33568   6.838   5.072   5.974
11075SOL    HW133569   6.888   5.149   6.014
11075SOL    HW233570   6.743   5.074   6.006
11076SOL     OW33571   7.168   4.363   6.058
11076SOL    HW133572   7.137   4.424   6.131
11076SOL    HW233573   7.218   4.415   5.989
11077SOL     OW33574   6.159   4.594   6.615
11077SOL    HW133575   6.203   4.683   6.606
11077SOL    HW233576   6.096   4.594   6.692
11078SOL     OW33577   6.946   4.586   6.631
11078SOL    HW133578   6.871   4.586   6.565
11078SOL    HW233579   6.983   4.494   6.640
11079SOL     OW33580   6.795   4.249   5.861
11079SOL    HW133581   6.808   4.165   5.915
11079SOL    HW233582   6.766   4.323   5.921
11080SOL     OW33583   5.893   3.787   6.204
11080SOL    HW133584   5.882   3.881   6.237
11080SOL    HW233585   5.888   3.724   6.281
11081SOL     OW33586   7.208   4.091   5.960
11081SOL    HW133587   7.210   4.015   6.024
11081SOL    HW233588   7.160   4.168   6.000
11082SOL     OW33589   7.126   3.998   5.711
11082SOL    HW133590   7.065   3.923   5.734
11082SOL    HW233591   7.148   4.050   5.794
11083SOL     OW33592   6.889   4.562   5.628
11083SOL    HW133593   6.923   4.469   5.643
11083SOL    HW233594   6.907   4.589   5.533
11084SOL     OW33595   6.654   5.057   6.435
11084SOL    HW133596   6.661   4.973   6.380
11084SOL    HW233597   6.716   5.126   6.399
11085SOL     OW33598   5.905   4.534   6.535
11085SOL    HW133599   5.998   4.570   6.540
11085SOL    HW233600   5.899   4.449   6.587
11086SOL     OW33601   5.925   4.233   6.592
11086SOL    HW133602   5.873   4.150   6.575
11086SOL    HW233603   6.002   4.238   6.528
11087SOL     OW33604   5.594   5.050   5.786
11087SOL    HW133605   5.501   5.071   5.755
11087SOL    HW233606   5.604   4.951   5.799
11088SOL     OW33607   5.674   5.525   6.513
11088SOL    HW133608   5.632   5.439   6.486
11088SOL    HW233609   5.768   5.528   6.479
11089SOL     OW33610   6.401   4.296   5.911
11089SOL    HW133611   6.408   4.207   5.865
11089SOL    HW233612   6.307   4.330   5.903
11090SOL     OW33613   6.059   4.224   5.777
11090SOL    HW133614   6.120   4.304   5.781
11090SOL    HW233615   5.964   4.255   5.784
11091SOL     OW33616   6.888   4.579   5.895
11091SOL    HW133617   6.802   4.548   5.937
11091SOL    HW233618   6.884   4.565   5.796
11092SOL     OW33619   5.669   4.982   6.608
11092SOL    HW133620   5.664   4.981   6.708
11092SOL    HW233621   5.586   4.941   6.570
11093SOL     OW33622   7.312   3.859   6.109
11093SOL    HW133623   7.385   3.842   6.042
11093SOL    HW233624   7.281   3.772   6.147
11094SOL     OW33625   6.974   5.297   6.063
11094SOL    HW133626   7.041   5.309   5.989
11094SOL    HW233627   6.934   5.386   6.086
11095SOL     OW33628   6.866   4.651   6.258
11095SOL    HW133629   6.926   4.570   6.260
11095SOL    HW233630   6.906   4.720   6.198
11096SOL     OW33631   6.258   5.340   5.740
11096SOL    HW133632   6.267   5.350   5.641
11096SOL    HW233633   6.218   5.251   5.761
11097SOL     OW33634   7.427   3.899   6.549
11097SOL    HW133635   7.466   3.814   6.513
11097SOL    HW233636   7.329   3.901   6.530
11098SOL     OW33637   5.849   4.050   6.306
11098SOL    HW133638   5.770   4.101   6.272
11098SOL    HW233639   5.840   4.035   6.404
11099SOL     OW33640   6.780   5.336   5.617
11099SOL    HW133641   6.786   5.243   5.654
11099SOL    HW233642   6.721   5.336   5.537
11100SOL     OW33643   6.502   4.634   5.877
11100SOL    HW133644   6.565   4.672   5.809
11100SOL    HW233645   6.542   4.551   5.916
11101SOL     OW33646   7.090   5.331   5.630
11101SOL    HW133647   6.998   5.368   5.637
11101SOL    HW233648   7.128   5.351   5.540
11102SOL     OW33649   6.625   4.822   6.282
11102SOL    HW133650   6.555   4.775   6.336
11102SOL    HW233651   6.684   4.754   6.239
11103SOL     OW33652   6.176   5.211   6.077
11103SOL    HW133653   6.218   5.153   6.007
11103SOL    HW233654   6.132   5.290   6.033
11104SOL     OW33655   5.841   5.072   5.876
11104SOL    HW133656   5.745   5.073   5.849
11104SOL    HW233657   5.853   5.125   5.960
11105SOL     OW33658   5.661   4.069   5.619
11105SOL    HW133659   5.569   4.041   5.590
11105SOL    HW233660   5.692   4.146   5.563
11106SOL     OW33661   5.658   3.890   5.904
11106SOL    HW133662   5.641   3.973   5.850
11106SOL    HW233663   5.748   3.853   5.882
11107SOL     OW33664   6.769   5.059   5.705
11107SOL    HW133665   6.670   5.048   5.707
11107SOL    HW233666   6.803   5.074   5.798
11108SOL     OW33667   6.811   4.049   6.035
11108SOL    HW133668   6.876   3.975   6.024
11108SOL    HW233669   6.831   4.099   6.119
11109SOL     OW33670   6.180   4.469   6.238
11109SOL    HW133671   6.230   4.554   6.219
11109SOL    HW233672   6.092   4.471   6.190
11110SOL     OW33673   6.445   5.098   5.602
11110SOL    HW133674   6.399   5.113   5.690
11110SOL    HW233675   6.489   5.183   5.572
11111SOL     OW33676   6.247   5.514   6.539
11111SOL    HW133677   6.201   5.602   6.526
11111SOL    HW233678   6.346   5.526   6.532
11112SOL     OW33679   6.669   4.708   5.673
11112SOL    HW133680   6.646   4.761   5.591
11112SOL    HW233681   6.750   4.652   5.654
11113SOL     OW33682   7.447   5.293   6.437
11113SOL    HW133683   7.376   5.281   6.367
11113SOL    HW233684   7.448   5.214   6.497
11114SOL     OW33685   5.665   4.964   6.239
11114SOL    HW133686   5.664   4.917   6.327
11114SOL    HW233687   5.747   4.936   6.188
11115SOL     OW33688   6.014   4.148   6.106
11115SOL    HW133689   6.044   4.076   6.044
11115SOL    HW233690   5.975   4.108   6.189
11116SOL     OW33691   5.903   4.271   6.866
11116SOL    HW133692   5.941   4.212   6.938
11116SOL    HW233693   5.943   4.245   6.778
11117SOL     OW33694   6.398   5.310   6.273
11117SOL    HW133695   6.430   5.320   6.179
11117SOL    HW233696   6.319   5.248   6.275
11118SOL     OW33697   6.356   5.054   5.887
11118SOL    HW133698   6.310   4.967   5.904
11118SOL    HW233699   6.447   5.051   5.928
11119SOL     OW33700   6.938   3.776   5.754
11119SOL    HW133701   6.973   3.735   5.670
11119SOL    HW233702   6.848   3.738   5.774
11120SOL     OW33703   6.886   4.177   6.277
11120SOL    HW133704   6.827   4.257   6.281
11120SOL    HW233705   6.901   4.142   6.370
11121SOL     OW33706   5.625   4.801   5.886
11121SOL    HW133707   5.724   4.790   5.877
11121SOL    HW233708   5.585   4.715   5.918
11122SOL     OW33709   6.461   5.370   5.923
11122SOL    HW133710   6.384   5.335   5.869
11122SOL    HW233711   6.429   5.441   5.985
11123SOL     OW33712   5.811   5.861   0.996
11123SOL    HW133713   5.846   5.844   1.088
11123SOL    HW233714   5.723   5.816   0.984
11124SOL     OW33715   5.605   5.954   0.647
11124SOL    HW133716   5.523   5.997   0.686
11124SOL    HW233717   5.577   5.881   0.584
11125SOL     OW33718   6.155   6.861   1.165
11125SOL    HW133719   6.062   6.854   1.128
11125SOL    HW233720   6.166   6.950   1.209
11126SOL     OW33721   7.141   7.097   0.703
11126SOL    HW133722   7.084   7.081   0.784
11126SOL    HW233723   7.082   7.107   0.623
11127SOL     OW33724   6.721   6.289   0.717
11127SOL    HW133725   6.778   6.367   0.692
11127SOL    HW233726   6.661   6.315   0.793
11128SOL     OW33727   6.354   6.730   1.023
11128SOL    HW133728   6.276   6.747   1.083
11128SOL    HW233729   6.388   6.817   0.987
11129SOL     OW33730   6.436   6.384   1.823
11129SOL    HW133731   6.432   6.460   1.888
11129SOL    HW233732   6.458   6.420   1.732
11130SOL     OW33733   6.271   6.598   0.665
11130SOL    HW133734   6.340   6.582   0.735
11130SOL    HW233735   6.198   6.655   0.703
11131SOL     OW33736   6.272   6.747   1.803
11131SOL    HW133737   6.332   6.826   1.817
11131SOL    HW233738   6.186   6.778   1.762
11132SOL     OW33739   5.921   7.021   1.061
11132SOL    HW133740   5.843   6.990   1.008
11132SOL    HW233741   5.979   7.079   1.004
11133SOL     OW33742   7.046   7.091   1.339
11133SOL    HW133743   7.070   7.185   1.365
11133SOL    HW233744   7.030   7.037   1.421
11134SOL     OW33745   6.024   5.978   1.499
11134SOL    HW133746   6.106   5.922   1.508
11134SOL    HW233747   5.943   5.920   1.503
11135SOL     OW33748   7.189   6.033   0.737
11135SOL    HW133749   7.115   6.079   0.687
11135SOL    HW233750   7.240   6.101   0.790
11136SOL     OW33751   5.817   7.299   0.483
11136SOL    HW133752   5.851   7.376   0.537
11136SOL    HW233753   5.861   7.299   0.393
11137SOL     OW33754   6.713   6.927   1.690
11137SOL    HW133755   6.760   6.927   1.778
11137SOL    HW233756   6.665   6.840   1.679
11138SOL     OW33757   5.816   7.020   0.538
11138SOL    HW133758   5.790   7.116   0.538
11138SOL    HW233759   5.745   6.966   0.583
11139SOL     OW33760   5.826   6.677   0.886
11139SOL    HW133761   5.840   6.593   0.938
11139SOL    HW233762   5.771   6.741   0.941
11140SOL     OW33763   6.206   7.372   1.439
11140SOL    HW133764   6.114   7.355   1.474
11140SOL    HW233765   6.234   7.464   1.465
11141SOL     OW33766   7.180   5.700   1.480
11141SOL    HW133767   7.162   5.767   1.408
11141SOL    HW233768   7.177   5.746   1.569
11142SOL     OW33769   5.708   6.229   0.563
11142SOL    HW133770   5.663   6.141   0.580
11142SOL    HW233771   5.707   6.283   0.647
11143SOL     OW33772   7.275   6.508   0.612
11143SOL    HW133773   7.370   6.479   0.620
11143SOL    HW233774   7.267   6.573   0.537
11144SOL     OW33775   7.227   6.694   0.432
11144SOL    HW133776   7.313   6.696   0.380
11144SOL    HW233777   7.241   6.741   0.520
11145SOL     OW33778   5.699   6.323   1.597
11145SOL    HW133779   5.787   6.310   1.642
11145SOL    HW233780   5.686   6.420   1.575
11146SOL     OW33781   6.199   6.951   0.726
11146SOL    HW133782   6.150   6.864   0.735
11146SOL    HW233783   6.176   6.994   0.639
11147SOL     OW33784   6.879   6.814   1.423
11147SOL    HW133785   6.916   6.741   1.365
11147SOL    HW233786   6.931   6.819   1.508
11148SOL     OW33787   6.395   5.590   0.502
11148SOL    HW133788   6.435   5.681   0.493
11148SOL    HW233789   6.295   5.598   0.508
11149SOL     OW33790   5.783   6.562   1.264
11149SOL    HW133791   5.872   6.517   1.250
11149SOL    HW233792   5.710   6.497   1.245
11150SOL     OW33793   6.773   7.378   1.616
11150SOL    HW133794   6.797   7.438   1.540
11150SOL    HW233795   6.780   7.283   1.586
11151SOL     OW33796   5.903   5.837   1.801
11151SOL    HW133797   5.974   5.908   1.807
11151SOL    HW233798   5.815   5.876   1.829
11152SOL     OW33799   7.052   7.003   0.953
11152SOL    HW133800   6.993   7.009   1.033
11152SOL    HW233801   7.037   6.915   0.907
11153SOL     OW33802   7.253   7.300   0.572
11153SOL    HW133803   7.212   7.277   0.484
11153SOL    HW233804   7.235   7.226   0.637
11154SOL     OW33805   6.184   6.315   0.270
11154SOL    HW133806   6.208   6.384   0.202
11154SOL    HW233807   6.106   6.348   0.324
11155SOL     OW33808   6.867   5.931   0.944
11155SOL    HW133809   6.781   5.881   0.931
11155SOL    HW233810   6.929   5.877   1.000
11156SOL     OW33811   6.393   6.191   1.465
11156SOL    HW133812   6.346   6.188   1.554
11156SOL    HW233813   6.342   6.136   1.399
11157SOL     OW33814   6.980   6.055   1.674
11157SOL    HW133815   6.960   6.098   1.762
11157SOL    HW233816   7.058   5.993   1.683
11158SOL     OW33817   6.559   6.476   1.572
11158SOL    HW133818   6.605   6.392   1.543
11158SOL    HW233819   6.503   6.510   1.497
11159SOL     OW33820   6.577   5.996   1.242
11159SOL    HW133821   6.500   6.030   1.296
11159SOL    HW233822   6.543   5.945   1.163
11160SOL     OW33823   6.627   6.287   0.429
11160SOL    HW133824   6.653   6.283   0.525
11160SOL    HW233825   6.542   6.236   0.415
11161SOL     OW33826   5.662   6.397   0.789
11161SOL    HW133827   5.761   6.385   0.798
11161SOL    HW233828   5.638   6.492   0.810
11162SOL     OW33829   5.716   7.407   1.571
11162SOL    HW133830   5.706   7.392   1.670
11162SOL    HW233831   5.630   7.443   1.535
11163SOL     OW33832   6.451   5.934   0.195
11163SOL    HW133833   6.510   5.997   0.146
11163SOL    HW233834   6.470   5.840   0.166
11164SOL     OW33835   7.305   6.171   1.831
11164SOL    HW133836   7.279   6.260   1.795
11164SOL    HW233837   7.303   6.103   1.758
11165SOL     OW33838   6.948   6.730   0.545
11165SOL    HW133839   7.031   6.701   0.497
11165SOL    HW233840   6.899   6.797   0.489
11166SOL     OW33841   6.136   5.782   0.885
11166SOL    HW133842   6.131   5.777   0.985
11166SOL    HW233843   6.138   5.878   0.856
11167SOL     OW33844   6.594   7.042   0.477
11167SOL    HW133845   6.548   7.114   0.425
11167SOL    HW233846   6.590   7.062   0.575
11168SOL     OW33847   5.937   7.387   0.853
11168SOL    HW133848   5.987   7.301   0.859
11168SOL    HW233849   6.002   7.464   0.850
11169SOL     OW33850   7.381   6.652   0.873
11169SOL    HW133851   7.319   6.637   0.797
11169SOL    HW233852   7.329   6.663   0.958
11170SOL     OW33853   6.813   7.136   1.506
11170SOL    HW133854   6.819   7.059   1.570
11170SOL    HW233855   6.761   7.110   1.426
11171SOL     OW33856   7.044   6.321   0.728
11171SOL    HW133857   7.039   6.256   0.803
11171SOL    HW233858   7.124   6.380   0.741
11172SOL     OW33859   6.047   6.852   1.727
11172SOL    HW133860   5.997   6.853   1.641
11172SOL    HW233861   5.984   6.834   1.803
11173SOL     OW33862   5.788   5.871   1.498
11173SOL    HW133863   5.708   5.931   1.485
11173SOL    HW233864   5.778   5.822   1.584
11174SOL     OW33865   6.050   7.329   0.323
11174SOL    HW133866   6.083   7.368   0.409
11174SOL    HW233867   6.126   7.322   0.258
11175SOL     OW33868   5.835   7.371   1.241
11175SOL    HW133869   5.892   7.306   1.291
11175SOL    HW233870   5.819   7.338   1.148
11176SOL     OW33871   6.526   7.284   0.904
11176SOL    HW133872   6.606   7.227   0.925
11176SOL    HW233873   6.477   7.244   0.827
11177SOL     OW33874   5.968   6.286   0.480
11177SOL    HW133875   6.013   6.196   0.477
11177SOL    HW233876   5.874   6.275   0.513
11178SOL     OW33877   7.133   5.808   1.729
11178SOL    HW133878   7.128   5.845   1.821
11178SOL    HW233879   7.061   5.739   1.717
11179SOL     OW33880   6.367   5.850   1.749
11179SOL    HW133881   6.434   5.789   1.792
11179SOL    HW233882   6.294   5.869   1.814
11180SOL     OW33883   6.474   7.100   1.195
11180SOL    HW133884   6.451   7.075   1.101
11180SOL    HW233885   6.535   7.031   1.234
11181SOL     OW33886   6.937   6.176   1.433
11181SOL    HW133887   6.965   6.133   1.518
11181SOL    HW233888   6.962   6.272   1.434
11182SOL     OW33889   6.389   6.988   0.924
11182SOL    HW133890   6.479   7.002   0.882
11182SOL    HW233891   6.318   6.990   0.853
11183SOL     OW33892   6.508   6.089   0.899
11183SOL    HW133893   6.483   6.080   0.803
11183SOL    HW233894   6.556   6.007   0.930
11184SOL     OW33895   6.125   5.650   0.512
11184SOL    HW133896   6.044   5.651   0.570
11184SOL    HW233897   6.128   5.733   0.457
11185SOL     OW33898   6.521   5.822   0.480
11185SOL    HW133899   6.473   5.863   0.402
11185SOL    HW233900   6.620   5.820   0.461
11186SOL     OW33901   6.662   6.269   1.464
11186SOL    HW133902   6.582   6.208   1.467
11186SOL    HW233903   6.743   6.216   1.440
11187SOL     OW33904   6.813   7.156   0.793
11187SOL    HW133905   6.834   7.230   0.728
11187SOL    HW233906   6.881   7.156   0.866
11188SOL     OW33907   6.045   6.738   0.741
11188SOL    HW133908   5.974   6.711   0.806
11188SOL    HW233909   6.019   6.710   0.648
11189SOL     OW33910   5.664   6.142   1.386
11189SOL    HW133911   5.756   6.141   1.345
11189SOL    HW233912   5.658   6.216   1.453
11190SOL     OW33913   6.147   5.808   1.147
11190SOL    HW133914   6.185   5.724   1.184
11190SOL    HW233915   6.059   5.827   1.191
11191SOL     OW33916   6.452   6.040   0.642
11191SOL    HW133917   6.420   6.112   0.580
11191SOL    HW233918   6.476   5.959   0.589
11192SOL     OW33919   6.603   5.625   0.753
11192SOL    HW133920   6.531   5.630   0.684
11192SOL    HW233921   6.579   5.556   0.822
11193SOL     OW33922   7.015   6.759   0.867
11193SOL    HW133923   6.960   6.675   0.860
11193SOL    HW233924   7.041   6.788   0.775
11194SOL     OW33925   7.052   6.176   0.992
11194SOL    HW133926   7.022   6.081   0.999
11194SOL    HW233927   7.125   6.192   1.058
11195SOL     OW33928   7.443   6.419   0.377
11195SOL    HW133929   7.485   6.355   0.441
11195SOL    HW233930   7.405   6.368   0.299
11196SOL     OW33931   7.250   6.866   0.657
11196SOL    HW133932   7.349   6.874   0.671
11196SOL    HW233933   7.205   6.950   0.688
11197SOL     OW33934   6.113   5.842   0.328
11197SOL    HW133935   6.140   5.783   0.253
11197SOL    HW233936   6.113   5.937   0.297
11198SOL     OW33937   7.340   6.809   1.588
11198SOL    HW133938   7.431   6.770   1.575
11198SOL    HW233939   7.348   6.905   1.612
11199SOL     OW33940   6.650   6.933   1.340
11199SOL    HW133941   6.570   6.910   1.395
11199SOL    HW233942   6.733   6.907   1.389
11200SOL     OW33943   7.178   7.215   1.625
11200SOL    HW133944   7.205   7.249   1.535
11200SOL    HW233945   7.257   7.177   1.671
11201SOL     OW33946   6.697   6.781   1.100
11201SOL    HW133947   6.657   6.825   1.181
11201SOL    HW233948   6.656   6.818   1.017
11202SOL     OW33949   7.224   6.685   1.079
11202SOL    HW133950   7.229   6.766   1.138
11202SOL    HW233951   7.138   6.687   1.028
11203SOL     OW33952   6.501   5.675   1.402
11203SOL    HW133953   6.526   5.655   1.307
11203SOL    HW233954   6.573   5.731   1.444
11204SOL     OW33955   6.566   6.702   1.719
11204SOL    HW133956   6.467   6.708   1.729
11204SOL    HW233957   6.589   6.622   1.663
11205SOL     OW33958   6.291   6.636   0.368
11205SOL    HW133959   6.277   6.643   0.467
11205SOL    HW233960   6.375   6.585   0.350
11206SOL     OW33961   5.996   6.399   1.251
11206SOL    HW133962   6.082   6.411   1.301
11206SOL    HW233963   5.954   6.312   1.278
11207SOL     OW33964   6.860   5.972   1.262
11207SOL    HW133965   6.881   6.046   1.326
11207SOL    HW233966   6.771   5.989   1.219
11208SOL     OW33967   5.650   7.150   1.331
11208SOL    HW133968   5.604   7.232   1.297
11208SOL    HW233969   5.748   7.169   1.340
11209SOL     OW33970   5.953   6.686   0.501
11209SOL    HW133971   5.946   6.769   0.445
11209SOL    HW233972   5.957   6.606   0.441
11210SOL     OW33973   6.152   6.123   0.865
11210SOL    HW133974   6.164   6.189   0.791
11210SOL    HW233975   6.198   6.157   0.948
11211SOL     OW33976   6.838   6.934   0.388
11211SOL    HW133977   6.888   7.011   0.428
11211SOL    HW233978   6.743   6.936   0.420
11212SOL     OW33979   6.858   7.031   1.142
11212SOL    HW133980   6.905   7.044   1.229
11212SOL    HW233981   6.792   6.957   1.151
11213SOL     OW33982   7.168   6.225   0.472
11213SOL    HW133983   7.137   6.286   0.545
11213SOL    HW233984   7.218   6.277   0.403
11214SOL     OW33985   5.940   7.096   1.329
11214SOL    HW133986   5.919   7.052   1.242
11214SOL    HW233987   6.037   7.122   1.332
11215SOL     OW33988   5.988   6.337   1.598
11215SOL    HW133989   6.056   6.392   1.551
11215SOL    HW233990   6.028   6.249   1.625
11216SOL     OW33991   7.173   6.365   1.670
11216SOL    HW133992   7.081   6.403   1.665
11216SOL    HW233993   7.233   6.412   1.605
11217SOL     OW33994   6.599   5.691   1.770
11217SOL    HW133995   6.605   5.776   1.718
11217SOL    HW233996   6.631   5.615   1.713
11218SOL     OW33997   6.090   5.636   1.740
11218SOL    HW133998   6.048   5.579   1.670
11218SOL    HW233999   6.024   5.705   1.772
11219SOL     OW34000   6.159   6.456   1.029
11219SOL    HW134001   6.203   6.545   1.020
11219SOL    HW234002   6.096   6.456   1.106
11220SOL     OW34003   6.946   6.448   1.045
11220SOL    HW134004   6.871   6.448   0.979
11220SOL    HW234005   6.983   6.356   1.054
11221SOL     OW34006   6.795   6.111   0.275
11221SOL    HW134007   6.808   6.027   0.329
11221SOL    HW234008   6.766   6.185   0.335
11222SOL     OW34009   5.893   5.799   1.231
11222SOL    HW134010   5.870   5.836   1.321
11222SOL    HW234011   5.863   5.704   1.225
11223SOL     OW34012   5.623   6.896   1.282
11223SOL    HW134013   5.676   6.847   1.350
11223SOL    HW234014   5.645   6.994   1.287
11224SOL     OW34015   6.318   6.220   1.064
11224SOL    HW134016   6.377   6.194   0.988
11224SOL    HW234017   6.290   6.316   1.053
11225SOL     OW34018   7.314   6.521   1.854
11225SOL    HW134019   7.268   6.514   1.765
11225SOL    HW234020   7.252   6.565   1.920
11226SOL     OW34021   5.893   5.649   0.618
11226SOL    HW134022   5.882   5.743   0.651
11226SOL    HW234023   5.888   5.586   0.695
11227SOL     OW34024   6.609   6.352   0.966
11227SOL    HW134025   6.624   6.373   1.062
11227SOL    HW234026   6.579   6.257   0.957
11228SOL     OW34027   6.566   7.159   1.700
11228SOL    HW134028   6.546   7.203   1.612
11228SOL    HW234029   6.605   7.068   1.684
11229SOL     OW34030   7.445   7.104   1.605
11229SOL    HW134031   7.459   7.131   1.510
11229SOL    HW234032   7.528   7.126   1.658
11230SOL     OW34033   5.936   6.484   1.804
11230SOL    HW134034   6.012   6.528   1.852
11230SOL    HW234035   5.971   6.437   1.722
11231SOL     OW34036   6.654   6.919   0.849
11231SOL    HW134037   6.661   6.835   0.794
11231SOL    HW234038   6.716   6.988   0.813
11232SOL     OW34039   5.905   6.396   0.949
11232SOL    HW134040   5.998   6.432   0.954
11232SOL    HW234041   5.899   6.311   1.001
11233SOL     OW34042   5.925   6.095   1.006
11233SOL    HW134043   5.873   6.012   0.989
11233SOL    HW234044   6.002   6.100   0.942
11234SOL     OW34045   6.724   5.966   1.678
11234SOL    HW134046   6.679   6.029   1.742
11234SOL    HW234047   6.817   5.997   1.661
11235SOL     OW34048   6.746   5.793   1.477
11235SOL    HW134049   6.746   5.857   1.554
11235SOL    HW234050   6.774   5.841   1.394
11236SOL     OW34051   5.674   7.387   0.927
11236SOL    HW134052   5.632   7.301   0.900
11236SOL    HW234053   5.768   7.390   0.893
11237SOL     OW34054   6.090   7.154   0.910
11237SOL    HW134055   6.156   7.228   0.919
11237SOL    HW234056   6.134   7.075   0.868
11238SOL     OW34057   6.588   6.382   1.238
11238SOL    HW134058   6.629   6.350   1.324
11238SOL    HW234059   6.492   6.355   1.235
11239SOL     OW34060   5.626   6.130   1.114
11239SOL    HW134061   5.711   6.097   1.073
11239SOL    HW234062   5.639   6.145   1.212
11240SOL     OW34063   5.775   6.106   1.722
11240SOL    HW134064   5.834   6.066   1.652
11240SOL    HW234065   5.717   6.177   1.681
11241SOL     OW34066   6.955   6.536   1.660
11241SOL    HW134067   6.994   6.625   1.680
11241SOL    HW234068   6.965   6.516   1.563
11242SOL     OW34069   7.243   6.190   1.206
11242SOL    HW134070   7.205   6.121   1.268
11242SOL    HW234071   7.325   6.154   1.162
11243SOL     OW34072   5.838   7.150   1.744
11243SOL    HW134073   5.808   7.207   1.820
11243SOL    HW234074   5.831   7.053   1.770
11244SOL     OW34075   6.257   6.050   1.269
11244SOL    HW134076   6.223   5.961   1.239
11244SOL    HW234077   6.283   6.104   1.189
11245SOL     OW34078   6.516   7.264   1.465
11245SOL    HW134079   6.492   7.246   1.370
11245SOL    HW234080   6.546   7.358   1.475
11246SOL     OW34081   5.745   6.723   1.466
11246SOL    HW134082   5.767   6.662   1.542
11246SOL    HW234083   5.755   6.674   1.380
11247SOL     OW34084   6.933   6.645   1.234
11247SOL    HW134085   6.957   6.582   1.160
11247SOL    HW234086   6.843   6.685   1.216
11248SOL     OW34087   7.345   7.333   1.154
11248SOL    HW134088   7.406   7.363   1.081
11248SOL    HW234089   7.307   7.244   1.132
11249SOL     OW34090   6.838   7.317   1.128
11249SOL    HW134091   6.922   7.322   1.074
11249SOL    HW234092   6.815   7.221   1.146
11250SOL     OW34093   5.669   6.844   1.022
11250SOL    HW134094   5.664   6.843   1.122
11250SOL    HW234095   5.586   6.803   0.984
11251SOL     OW34096   6.274   7.248   1.716
11251SOL    HW134097   6.218   7.329   1.725
11251SOL    HW234098   6.326   7.252   1.630
11252SOL     OW34099   7.312   5.721   0.523
11252SOL    HW134100   7.385   5.704   0.456
11252SOL    HW234101   7.281   5.634   0.561
11253SOL     OW34102   6.974   7.159   0.477
11253SOL    HW134103   7.041   7.171   0.403
11253SOL    HW234104   6.934   7.248   0.500
11254SOL     OW34105   5.716   7.380   1.851
11254SOL    HW134106   5.675   7.306   1.904
11254SOL    HW234107   5.780   7.431   1.909
11255SOL     OW34108   6.866   6.513   0.672
11255SOL    HW134109   6.926   6.432   0.674
11255SOL    HW234110   6.906   6.582   0.612
11256SOL     OW34111   6.416   6.859   1.422
11256SOL    HW134112   6.411   6.892   1.517
11256SOL    HW234113   6.330   6.878   1.376
11257SOL     OW34114   7.236   7.306   1.394
11257SOL    HW134115   7.289   7.316   1.310
11257SOL    HW234116   7.209   7.396   1.428
11258SOL     OW34117   5.849   5.912   0.720
11258SOL    HW134118   5.770   5.963   0.686
11258SOL    HW234119   5.840   5.897   0.818
11259SOL     OW34120   6.408   6.588   1.372
11259SOL    HW134121   6.448   6.587   1.280
11259SOL    HW234122   6.418   6.680   1.412
11260SOL     OW34123   6.502   6.496   0.291
11260SOL    HW134124   6.565   6.534   0.223
11260SOL    HW234125   6.542   6.413   0.330
11261SOL     OW34126   5.958   6.874   1.490
11261SOL    HW134127   5.945   6.967   1.456
11261SOL    HW234128   5.874   6.822   1.477
11262SOL     OW34129   7.200   6.878   1.289
11262SOL    HW134130   7.260   6.881   1.369
11262SOL    HW234131   7.125   6.942   1.302
11263SOL     OW34132   6.625   6.684   0.696
11263SOL    HW134133   6.555   6.637   0.750
11263SOL    HW234134   6.684   6.616   0.653
11264SOL     OW34135   6.600   5.822   0.971
11264SOL    HW134136   6.592   5.786   0.878
11264SOL    HW234137   6.598   5.746   1.036
11265SOL     OW34138   6.176   7.073   0.491
11265SOL    HW134139   6.218   7.015   0.421
11265SOL    HW234140   6.132   7.152   0.447
11266SOL     OW34141   7.295   5.971   1.381
11266SOL    HW134142   7.368   6.040   1.385
11266SOL    HW234143   7.323   5.896   1.322
11267SOL     OW34144   5.691   6.599   1.726
11267SOL    HW134145   5.614   6.566   1.780
11267SOL    HW234146   5.776   6.569   1.768
11268SOL     OW34147   6.258   5.789   1.489
11268SOL    HW134148   6.348   5.773   1.449
11268SOL    HW234149   6.266   5.794   1.588
11269SOL     OW34150   7.026   6.442   1.398
11269SOL    HW134151   6.969   6.494   1.335
11269SOL    HW234152   7.122   6.454   1.374
11270SOL     OW34153   6.199   6.428   1.431
11270SOL    HW134154   6.255   6.509   1.414
11270SOL    HW234155   6.258   6.348   1.434
11271SOL     OW34156   7.079   7.353   0.959
11271SOL    HW134157   7.112   7.417   0.890
11271SOL    HW234158   7.145   7.347   1.034
11272SOL     OW34159   6.302   6.151   1.708
11272SOL    HW134160   6.321   6.216   1.782
11272SOL    HW234161   6.362   6.071   1.717
11273SOL     OW34162   7.036   6.806   1.633
11273SOL    HW134163   7.027   6.796   1.732
11273SOL    HW234164   7.132   6.799   1.607
11274SOL     OW34165   5.976   7.327   1.560
11274SOL    HW134166   5.885   7.368   1.558
11274SOL    HW234167   5.969   7.233   1.592
11275SOL     OW34168   7.260   6.469   1.254
11275SOL    HW134169   7.233   6.380   1.217
11275SOL    HW234170   7.261   6.537   1.181
11276SOL     OW34171   6.811   5.911   0.449
11276SOL    HW134172   6.876   5.837   0.438
11276SOL    HW234173   6.831   5.961   0.533
11277SOL     OW34174   6.180   6.331   0.652
11277SOL    HW134175   6.230   6.416   0.633
11277SOL    HW234176   6.092   6.333   0.604
11278SOL     OW34177   7.363   5.928   1.642
11278SOL    HW134178   7.346   5.959   1.548
11278SOL    HW234179   7.279   5.891   1.680
11279SOL     OW34180   7.316   6.520   1.517
11279SOL    HW134181   7.354   6.611   1.532
11279SOL    HW234182   7.308   6.503   1.418
11280SOL     OW34183   6.247   7.376   0.953
11280SOL    HW134184   6.201   7.464   0.940
11280SOL    HW234185   6.346   7.388   0.946
11281SOL     OW34186   6.445   6.542   0.861
11281SOL    HW134187   6.499   6.473   0.909
11281SOL    HW234188   6.413   6.611   0.927
11282SOL     OW34189   7.447   7.155   0.851
11282SOL    HW134190   7.376   7.143   0.781
11282SOL    HW234191   7.448   7.076   0.911
11283SOL     OW34192   5.807   6.900   1.844
11283SOL    HW134193   5.742   6.827   1.823
11283SOL    HW234194   5.811   6.914   1.942
11284SOL     OW34195   5.665   6.826   0.653
11284SOL    HW134196   5.664   6.779   0.741
11284SOL    HW234197   5.747   6.798   0.602
11285SOL     OW34198   6.258   6.977   1.624
11285SOL    HW134199   6.180   6.927   1.662
11285SOL    HW234200   6.255   7.072   1.655
11286SOL     OW34201   7.410   5.778   1.227
11286SOL    HW134202   7.406   5.688   1.271
11286SOL    HW234203   7.413   5.767   1.128
11287SOL     OW34204   6.014   6.010   0.520
11287SOL    HW134205   6.044   5.938   0.458
11287SOL    HW234206   5.975   5.970   0.603
11288SOL     OW34207   7.291   7.073   1.104
11288SOL    HW134208   7.198   7.048   1.077
11288SOL    HW234209   7.317   7.023   1.186
11289SOL     OW34210   5.903   6.133   1.280
11289SOL    HW134211   5.941   6.074   1.352
11289SOL    HW234212   5.943   6.107   1.192
11290SOL     OW34213   6.398   7.172   0.687
11290SOL    HW134214   6.430   7.182   0.593
11290SOL    HW234215   6.319   7.110   0.689
11291SOL     OW34216   7.010   5.800   1.112
11291SOL    HW134217   7.062   5.735   1.167
11291SOL    HW234218   6.961   5.863   1.173
11292SOL     OW34219   6.587   5.620   1.154
11292SOL    HW134220   6.524   5.548   1.123
11292SOL    HW234221   6.680   5.584   1.154
11293SOL     OW34222   6.204   7.153   1.284
11293SOL    HW134223   6.199   7.235   1.341
11293SOL    HW234224   6.293   7.150   1.239
11294SOL     OW34225   6.886   6.039   0.691
11294SOL    HW134226   6.827   6.119   0.695
11294SOL    HW234227   6.901   6.004   0.784
11295SOL     OW34228   7.179   5.807   0.882
11295SOL    HW134229   7.095   5.806   0.936
11295SOL    HW234230   7.181   5.890   0.826
11296SOL     OW34231   5.625   6.663   0.300
11296SOL    HW134232   5.724   6.652   0.291
11296SOL    HW234233   5.585   6.577   0.332
11297SOL     OW34234   6.461   7.232   0.337
11297SOL    HW134235   6.384   7.197   0.283
11297SOL    HW234236   6.429   7.303   0.399
11298SOL     OW34237   5.816   6.214   1.975
11298SOL    HW134238   5.723   6.212   2.012
11298SOL    HW234239   5.817   6.175   1.883
11299SOL     OW34240   5.811   5.861   2.858
11299SOL    HW134241   5.846   5.844   2.950
11299SOL    HW234242   5.723   5.816   2.846
11300SOL     OW34243   5.605   5.954   2.509
11300SOL    HW134244   5.523   5.997   2.548
11300SOL    HW234245   5.577   5.881   2.446
11301SOL     OW34246   6.155   6.861   3.027
11301SOL    HW134247   6.062   6.854   2.990
11301SOL    HW234248   6.166   6.950   3.071
11302SOL     OW34249   7.141   7.097   2.565
11302SOL    HW134250   7.084   7.081   2.646
11302SOL    HW234251   7.082   7.107   2.485
11303SOL     OW34252   6.721   6.289   2.579
11303SOL    HW134253   6.778   6.367   2.554
11303SOL    HW234254   6.661   6.315   2.655
11304SOL     OW34255   7.341   6.193   2.093
11304SOL    HW134256   7.329   6.180   1.994
11304SOL    HW234257   7.311   6.112   2.142
11305SOL     OW34258   6.354   6.730   2.885
11305SOL    HW134259   6.276   6.747   2.945
11305SOL    HW234260   6.388   6.817   2.849
11306SOL     OW34261   6.436   6.384   3.685
11306SOL    HW134262   6.432   6.460   3.750
11306SOL    HW234263   6.458   6.420   3.594
11307SOL     OW34264   6.271   6.598   2.527
11307SOL    HW134265   6.340   6.582   2.597
11307SOL    HW234266   6.198   6.655   2.565
11308SOL     OW34267   6.272   6.747   3.665
11308SOL    HW134268   6.332   6.826   3.679
11308SOL    HW234269   6.186   6.778   3.624
11309SOL     OW34270   5.921   7.021   2.923
11309SOL    HW134271   5.843   6.990   2.870
11309SOL    HW234272   5.979   7.079   2.866
11310SOL     OW34273   7.046   7.091   3.201
11310SOL    HW134274   7.070   7.185   3.227
11310SOL    HW234275   7.030   7.037   3.283
11311SOL     OW34276   6.024   5.978   3.361
11311SOL    HW134277   6.106   5.922   3.370
11311SOL    HW234278   5.943   5.920   3.365
11312SOL     OW34279   7.189   6.033   2.599
11312SOL    HW134280   7.115   6.079   2.549
11312SOL    HW234281   7.240   6.101   2.652
11313SOL     OW34282   5.817   7.299   2.345
11313SOL    HW134283   5.851   7.376   2.399
11313SOL    HW234284   5.861   7.299   2.255
11314SOL     OW34285   6.713   6.927   3.552
11314SOL    HW134286   6.760   6.927   3.640
11314SOL    HW234287   6.665   6.840   3.541
11315SOL     OW34288   5.816   7.020   2.400
11315SOL    HW134289   5.790   7.116   2.400
11315SOL    HW234290   5.745   6.966   2.445
11316SOL     OW34291   5.826   6.677   2.748
11316SOL    HW134292   5.840   6.593   2.800
11316SOL    HW234293   5.771   6.741   2.803
11317SOL     OW34294   6.206   7.372   3.301
11317SOL    HW134295   6.114   7.355   3.336
11317SOL    HW234296   6.234   7.464   3.327
11318SOL     OW34297   6.192   6.550   1.985
11318SOL    HW134298   6.199   6.634   1.931
11318SOL    HW234299   6.238   6.563   2.073
11319SOL     OW34300   7.180   5.700   3.342
11319SOL    HW134301   7.162   5.767   3.270
11319SOL    HW234302   7.177   5.746   3.431
11320SOL     OW34303   5.708   6.229   2.425
11320SOL    HW134304   5.663   6.141   2.442
11320SOL    HW234305   5.707   6.283   2.509
11321SOL     OW34306   7.428   7.353   2.221
11321SOL    HW134307   7.482   7.324   2.301
11321SOL    HW234308   7.458   7.443   2.192
11322SOL     OW34309   5.613   7.182   1.979
11322SOL    HW134310   5.594   7.086   2.000
11322SOL    HW234311   5.580   7.240   2.054
11323SOL     OW34312   7.275   6.508   2.474
11323SOL    HW134313   7.370   6.479   2.482
11323SOL    HW234314   7.267   6.573   2.399
11324SOL     OW34315   7.227   6.694   2.294
11324SOL    HW134316   7.313   6.696   2.242
11324SOL    HW234317   7.241   6.741   2.382
11325SOL     OW34318   5.699   6.323   3.459
11325SOL    HW134319   5.787   6.310   3.504
11325SOL    HW234320   5.686   6.420   3.437
11326SOL     OW34321   6.199   6.951   2.588
11326SOL    HW134322   6.150   6.864   2.597
11326SOL    HW234323   6.176   6.994   2.501
11327SOL     OW34324   6.879   6.814   3.285
11327SOL    HW134325   6.916   6.741   3.227
11327SOL    HW234326   6.931   6.819   3.370
11328SOL     OW34327   6.395   5.590   2.364
11328SOL    HW134328   6.435   5.681   2.355
11328SOL    HW234329   6.295   5.598   2.370
11329SOL     OW34330   5.783   6.562   3.126
11329SOL    HW134331   5.872   6.517   3.112
11329SOL    HW234332   5.710   6.497   3.107
11330SOL     OW34333   7.111   6.585   2.052
11330SOL    HW134334   7.048   6.509   2.065
11330SOL    HW234335   7.159   6.603   2.138
11331SOL     OW34336   6.773   7.378   3.478
11331SOL    HW134337   6.797   7.438   3.402
11331SOL    HW234338   6.780   7.283   3.448
11332SOL     OW34339   5.903   5.837   3.663
11332SOL    HW134340   5.974   5.908   3.669
11332SOL    HW234341   5.815   5.876   3.691
11333SOL     OW34342   7.052   7.003   2.815
11333SOL    HW134343   6.993   7.009   2.895
11333SOL    HW234344   7.037   6.915   2.769
11334SOL     OW34345   7.253   7.300   2.434
11334SOL    HW134346   7.212   7.277   2.346
11334SOL    HW234347   7.235   7.226   2.499
11335SOL     OW34348   6.184   6.315   2.132
11335SOL    HW134349   6.208   6.384   2.064
11335SOL    HW234350   6.106   6.348   2.186
11336SOL     OW34351   6.867   5.931   2.806
11336SOL    HW134352   6.781   5.881   2.793
11336SOL    HW234353   6.929   5.877   2.862
11337SOL     OW34354   7.162   7.248   2.169
11337SOL    HW134355   7.251   7.294   2.172
11337SOL    HW234356   7.141   7.224   2.074
11338SOL     OW34357   6.393   6.191   3.327
11338SOL    HW134358   6.346   6.188   3.416
11338SOL    HW234359   6.342   6.136   3.261
11339SOL     OW34360   6.980   6.055   3.536
11339SOL    HW134361   6.960   6.098   3.624
11339SOL    HW234362   7.058   5.993   3.545
11340SOL     OW34363   6.559   6.476   3.434
11340SOL    HW134364   6.605   6.392   3.405
11340SOL    HW234365   6.503   6.510   3.359
11341SOL     OW34366   6.577   5.996   3.104
11341SOL    HW134367   6.500   6.030   3.158
11341SOL    HW234368   6.543   5.945   3.025
11342SOL     OW34369   6.627   6.287   2.291
11342SOL    HW134370   6.653   6.283   2.387
11342SOL    HW234371   6.542   6.236   2.277
11343SOL     OW34372   5.662   6.397   2.651
11343SOL    HW134373   5.761   6.385   2.660
11343SOL    HW234374   5.638   6.492   2.672
11344SOL     OW34375   5.716   7.407   3.433
11344SOL    HW134376   5.706   7.392   3.532
11344SOL    HW234377   5.630   7.443   3.397
11345SOL     OW34378   6.451   5.934   2.057
11345SOL    HW134379   6.510   5.997   2.008
11345SOL    HW234380   6.470   5.840   2.028
11346SOL     OW34381   7.305   6.171   3.693
11346SOL    HW134382   7.279   6.260   3.657
11346SOL    HW234383   7.303   6.103   3.620
11347SOL     OW34384   6.948   6.730   2.407
11347SOL    HW134385   7.031   6.701   2.359
11347SOL    HW234386   6.899   6.797   2.351
11348SOL     OW34387   6.136   5.782   2.747
11348SOL    HW134388   6.131   5.777   2.847
11348SOL    HW234389   6.138   5.878   2.718
11349SOL     OW34390   6.594   7.042   2.339
11349SOL    HW134391   6.548   7.114   2.287
11349SOL    HW234392   6.590   7.062   2.437
11350SOL     OW34393   5.937   7.387   2.715
11350SOL    HW134394   5.987   7.301   2.721
11350SOL    HW234395   6.002   7.464   2.712
11351SOL     OW34396   7.381   6.652   2.735
11351SOL    HW134397   7.319   6.637   2.659
11351SOL    HW234398   7.329   6.663   2.820
11352SOL     OW34399   6.813   7.136   3.368
11352SOL    HW134400   6.819   7.059   3.432
11352SOL    HW234401   6.761   7.110   3.288
11353SOL     OW34402   5.907   6.529   2.104
11353SOL    HW134403   5.989   6.568   2.062
11353SOL    HW234404   5.880   6.447   2.055
11354SOL     OW34405   7.044   6.321   2.590
11354SOL    HW134406   7.039   6.256   2.665
11354SOL    HW234407   7.124   6.380   2.603
11355SOL     OW34408   6.047   6.852   3.589
11355SOL    HW134409   5.997   6.853   3.503
11355SOL    HW234410   5.984   6.834   3.665
11356SOL     OW34411   5.788   5.871   3.360
11356SOL    HW134412   5.708   5.931   3.347
11356SOL    HW234413   5.778   5.822   3.446
11357SOL     OW34414   7.218   6.963   1.943
11357SOL    HW134415   7.186   7.057   1.933
11357SOL    HW234416   7.142   6.900   1.931
11358SOL     OW34417   6.050   7.329   2.185
11358SOL    HW134418   6.083   7.368   2.271
11358SOL    HW234419   6.126   7.322   2.120
11359SOL     OW34420   6.986   5.693   2.288
11359SOL    HW134421   6.962   5.656   2.198
11359SOL    HW234422   7.085   5.709   2.292
11360SOL     OW34423   5.835   7.371   3.103
11360SOL    HW134424   5.892   7.306   3.153
11360SOL    HW234425   5.819   7.338   3.010
11361SOL     OW34426   6.526   7.284   2.766
11361SOL    HW134427   6.606   7.227   2.787
11361SOL    HW234428   6.477   7.244   2.689
11362SOL     OW34429   5.968   6.286   2.342
11362SOL    HW134430   6.013   6.196   2.339
11362SOL    HW234431   5.874   6.275   2.375
11363SOL     OW34432   7.133   5.808   3.591
11363SOL    HW134433   7.128   5.845   3.683
11363SOL    HW234434   7.061   5.739   3.579
11364SOL     OW34435   6.200   5.708   1.979
11364SOL    HW134436   6.298   5.686   1.986
11364SOL    HW234437   6.169   5.691   1.886
11365SOL     OW34438   6.367   5.850   3.611
11365SOL    HW134439   6.434   5.789   3.654
11365SOL    HW234440   6.294   5.869   3.676
11366SOL     OW34441   6.474   7.100   3.057
11366SOL    HW134442   6.451   7.075   2.963
11366SOL    HW234443   6.535   7.031   3.096
11367SOL     OW34444   6.937   6.176   3.295
11367SOL    HW134445   6.965   6.133   3.380
11367SOL    HW234446   6.962   6.272   3.296
11368SOL     OW34447   6.389   6.988   2.786
11368SOL    HW134448   6.479   7.002   2.744
11368SOL    HW234449   6.318   6.990   2.715
11369SOL     OW34450   6.508   6.089   2.761
11369SOL    HW134451   6.483   6.080   2.665
11369SOL    HW234452   6.556   6.007   2.792
11370SOL     OW34453   6.125   5.650   2.374
11370SOL    HW134454   6.044   5.651   2.432
11370SOL    HW234455   6.128   5.733   2.319
11371SOL     OW34456   7.020   6.774   1.903
11371SOL    HW134457   7.052   6.698   1.960
11371SOL    HW234458   6.928   6.801   1.933
11372SOL     OW34459   5.883   5.621   2.033
11372SOL    HW134460   5.932   5.705   2.012
11372SOL    HW234461   5.945   5.556   2.078
11373SOL     OW34462   6.521   5.822   2.342
11373SOL    HW134463   6.473   5.863   2.264
11373SOL    HW234464   6.620   5.820   2.323
11374SOL     OW34465   6.662   6.269   3.326
11374SOL    HW134466   6.582   6.208   3.329
11374SOL    HW234467   6.743   6.216   3.302
11375SOL     OW34468   6.813   7.156   2.655
11375SOL    HW134469   6.834   7.230   2.590
11375SOL    HW234470   6.881   7.156   2.728
11376SOL     OW34471   6.045   6.738   2.603
11376SOL    HW134472   5.974   6.711   2.668
11376SOL    HW234473   6.019   6.710   2.510
11377SOL     OW34474   6.618   6.135   1.878
11377SOL    HW134475   6.577   6.217   1.839
11377SOL    HW234476   6.682   6.161   1.951
11378SOL     OW34477   5.664   6.142   3.248
11378SOL    HW134478   5.756   6.141   3.207
11378SOL    HW234479   5.658   6.216   3.315
11379SOL     OW34480   6.147   5.808   3.009
11379SOL    HW134481   6.185   5.724   3.046
11379SOL    HW234482   6.059   5.827   3.053
11380SOL     OW34483   6.452   6.040   2.504
11380SOL    HW134484   6.420   6.112   2.442
11380SOL    HW234485   6.476   5.959   2.451
11381SOL     OW34486   6.603   5.625   2.615
11381SOL    HW134487   6.531   5.630   2.546
11381SOL    HW234488   6.579   5.556   2.684
11382SOL     OW34489   7.015   6.759   2.729
11382SOL    HW134490   6.960   6.675   2.722
11382SOL    HW234491   7.041   6.788   2.637
11383SOL     OW34492   7.052   6.176   2.854
11383SOL    HW134493   7.022   6.081   2.861
11383SOL    HW234494   7.125   6.192   2.920
11384SOL     OW34495   7.443   6.419   2.239
11384SOL    HW134496   7.485   6.355   2.303
11384SOL    HW234497   7.405   6.368   2.161
11385SOL     OW34498   6.074   6.971   2.036
11385SOL    HW134499   5.987   6.956   2.083
11385SOL    HW234500   6.057   6.997   1.941
11386SOL     OW34501   7.250   6.866   2.519
11386SOL    HW134502   7.349   6.874   2.533
11386SOL    HW234503   7.205   6.950   2.550
11387SOL     OW34504   6.976   6.161   1.940
11387SOL    HW134505   6.922   6.140   2.021
11387SOL    HW234506   7.067   6.120   1.949
11388SOL     OW34507   6.113   5.842   2.190
11388SOL    HW134508   6.140   5.783   2.115
11388SOL    HW234509   6.113   5.937   2.159
11389SOL     OW34510   7.340   6.809   3.450
11389SOL    HW134511   7.431   6.770   3.437
11389SOL    HW234512   7.348   6.905   3.474
11390SOL     OW34513   6.650   6.933   3.202
11390SOL    HW134514   6.570   6.910   3.257
11390SOL    HW234515   6.733   6.907   3.251
11391SOL     OW34516   7.178   7.215   3.487
11391SOL    HW134517   7.205   7.249   3.397
11391SOL    HW234518   7.257   7.177   3.533
11392SOL     OW34519   6.697   6.781   2.962
11392SOL    HW134520   6.657   6.825   3.043
11392SOL    HW234521   6.656   6.818   2.879
11393SOL     OW34522   7.224   6.685   2.941
11393SOL    HW134523   7.229   6.766   3.000
11393SOL    HW234524   7.138   6.687   2.890
11394SOL     OW34525   6.501   5.675   3.264
11394SOL    HW134526   6.526   5.655   3.169
11394SOL    HW234527   6.573   5.731   3.306
11395SOL     OW34528   6.566   6.702   3.581
11395SOL    HW134529   6.467   6.708   3.591
11395SOL    HW234530   6.589   6.622   3.525
11396SOL     OW34531   6.291   6.636   2.230
11396SOL    HW134532   6.277   6.643   2.329
11396SOL    HW234533   6.375   6.585   2.212
11397SOL     OW34534   5.996   6.399   3.113
11397SOL    HW134535   6.082   6.411   3.163
11397SOL    HW234536   5.954   6.312   3.140
11398SOL     OW34537   6.860   5.972   3.124
11398SOL    HW134538   6.881   6.046   3.188
11398SOL    HW234539   6.771   5.989   3.081
11399SOL     OW34540   5.650   7.150   3.193
11399SOL    HW134541   5.604   7.232   3.159
11399SOL    HW234542   5.748   7.169   3.202
11400SOL     OW34543   5.953   6.686   2.363
11400SOL    HW134544   5.946   6.769   2.307
11400SOL    HW234545   5.957   6.606   2.303
11401SOL     OW34546   6.152   6.123   2.727
11401SOL    HW134547   6.164   6.189   2.653
11401SOL    HW234548   6.198   6.157   2.810
11402SOL     OW34549   6.838   6.934   2.250
11402SOL    HW134550   6.888   7.011   2.290
11402SOL    HW234551   6.743   6.936   2.282
11403SOL     OW34552   6.858   7.031   3.004
11403SOL    HW134553   6.905   7.044   3.091
11403SOL    HW234554   6.792   6.957   3.013
11404SOL     OW34555   7.168   6.225   2.334
11404SOL    HW134556   7.137   6.286   2.407
11404SOL    HW234557   7.218   6.277   2.265
11405SOL     OW34558   5.940   7.096   3.191
11405SOL    HW134559   5.919   7.052   3.104
11405SOL    HW234560   6.037   7.122   3.194
11406SOL     OW34561   5.988   6.337   3.460
11406SOL    HW134562   6.056   6.392   3.413
11406SOL    HW234563   6.028   6.249   3.487
11407SOL     OW34564   7.173   6.365   3.532
11407SOL    HW134565   7.081   6.403   3.527
11407SOL    HW234566   7.233   6.412   3.467
11408SOL     OW34567   6.599   5.691   3.632
11408SOL    HW134568   6.605   5.776   3.580
11408SOL    HW234569   6.631   5.615   3.575
11409SOL     OW34570   6.090   5.636   3.602
11409SOL    HW134571   6.048   5.579   3.532
11409SOL    HW234572   6.024   5.705   3.634
11410SOL     OW34573   6.159   6.456   2.891
11410SOL    HW134574   6.203   6.545   2.882
11410SOL    HW234575   6.096   6.456   2.968
11411SOL     OW34576   6.946   6.448   2.907
11411SOL    HW134577   6.871   6.448   2.841
11411SOL    HW234578   6.983   6.356   2.916
11412SOL     OW34579   6.795   6.111   2.137
11412SOL    HW134580   6.808   6.027   2.191
11412SOL    HW234581   6.766   6.185   2.197
11413SOL     OW34582   5.893   5.799   3.093
11413SOL    HW134583   5.870   5.836   3.183
11413SOL    HW234584   5.863   5.704   3.087
11414SOL     OW34585   5.623   6.896   3.144
11414SOL    HW134586   5.676   6.847   3.212
11414SOL    HW234587   5.645   6.994   3.149
11415SOL     OW34588   6.318   6.220   2.926
11415SOL    HW134589   6.377   6.194   2.850
11415SOL    HW234590   6.290   6.316   2.915
11416SOL     OW34591   7.314   6.521   3.716
11416SOL    HW134592   7.268   6.514   3.627
11416SOL    HW234593   7.252   6.565   3.782
11417SOL     OW34594   5.893   5.649   2.480
11417SOL    HW134595   5.882   5.743   2.513
11417SOL    HW234596   5.888   5.586   2.557
11418SOL     OW34597   7.208   5.953   2.236
11418SOL    HW134598   7.210   5.877   2.300
11418SOL    HW234599   7.160   6.030   2.276
11419SOL     OW34600   6.609   6.352   2.828
11419SOL    HW134601   6.624   6.373   2.924
11419SOL    HW234602   6.579   6.257   2.819
11420SOL     OW34603   6.566   7.159   3.562
11420SOL    HW134604   6.546   7.203   3.474
11420SOL    HW234605   6.605   7.068   3.546
11421SOL     OW34606   7.445   7.104   3.467
11421SOL    HW134607   7.459   7.131   3.372
11421SOL    HW234608   7.528   7.126   3.520
11422SOL     OW34609   5.936   6.484   3.666
11422SOL    HW134610   6.012   6.528   3.714
11422SOL    HW234611   5.971   6.437   3.584
11423SOL     OW34612   7.126   5.860   1.987
11423SOL    HW134613   7.065   5.785   2.010
11423SOL    HW234614   7.148   5.912   2.070
11424SOL     OW34615   6.889   6.424   1.904
11424SOL    HW134616   6.923   6.331   1.919
11424SOL    HW234617   6.907   6.451   1.809
11425SOL     OW34618   6.654   6.919   2.711
11425SOL    HW134619   6.661   6.835   2.656
11425SOL    HW234620   6.716   6.988   2.675
11426SOL     OW34621   5.905   6.396   2.811
11426SOL    HW134622   5.998   6.432   2.816
11426SOL    HW234623   5.899   6.311   2.863
11427SOL     OW34624   5.925   6.095   2.868
11427SOL    HW134625   5.873   6.012   2.851
11427SOL    HW234626   6.002   6.100   2.804
11428SOL     OW34627   6.724   5.966   3.540
11428SOL    HW134628   6.679   6.029   3.604
11428SOL    HW234629   6.817   5.997   3.523
11429SOL     OW34630   6.746   5.793   3.339
11429SOL    HW134631   6.746   5.857   3.416
11429SOL    HW234632   6.774   5.841   3.256
11430SOL     OW34633   5.594   6.912   2.062
11430SOL    HW134634   5.501   6.933   2.031
11430SOL    HW234635   5.604   6.813   2.075
11431SOL     OW34636   5.674   7.387   2.789
11431SOL    HW134637   5.632   7.301   2.762
11431SOL    HW234638   5.768   7.390   2.755
11432SOL     OW34639   6.090   7.154   2.772
11432SOL    HW134640   6.156   7.228   2.781
11432SOL    HW234641   6.134   7.075   2.730
11433SOL     OW34642   6.588   6.382   3.100
11433SOL    HW134643   6.629   6.350   3.186
11433SOL    HW234644   6.492   6.355   3.097
11434SOL     OW34645   5.626   6.130   2.976
11434SOL    HW134646   5.711   6.097   2.935
11434SOL    HW234647   5.639   6.145   3.074
11435SOL     OW34648   5.775   6.106   3.584
11435SOL    HW134649   5.834   6.066   3.514
11435SOL    HW234650   5.717   6.177   3.543
11436SOL     OW34651   6.955   6.536   3.522
11436SOL    HW134652   6.994   6.625   3.542
11436SOL    HW234653   6.965   6.516   3.425
11437SOL     OW34654   6.401   6.158   2.187
11437SOL    HW134655   6.408   6.069   2.141
11437SOL    HW234656   6.307   6.192   2.179
11438SOL     OW34657   7.243   6.190   3.068
11438SOL    HW134658   7.205   6.121   3.130
11438SOL    HW234659   7.325   6.154   3.024
11439SOL     OW34660   5.838   7.150   3.606
11439SOL    HW134661   5.808   7.207   3.682
11439SOL    HW234662   5.831   7.053   3.632
11440SOL     OW34663   6.257   6.050   3.131
11440SOL    HW134664   6.223   5.961   3.101
11440SOL    HW234665   6.283   6.104   3.051
11441SOL     OW34666   6.516   7.264   3.327
11441SOL    HW134667   6.492   7.246   3.232
11441SOL    HW234668   6.546   7.358   3.337
11442SOL     OW34669   6.059   6.086   2.053
11442SOL    HW134670   6.120   6.166   2.057
11442SOL    HW234671   5.964   6.117   2.060
11443SOL     OW34672   5.745   6.723   3.328
11443SOL    HW134673   5.767   6.662   3.404
11443SOL    HW234674   5.755   6.674   3.242
11444SOL     OW34675   6.933   6.645   3.096
11444SOL    HW134676   6.957   6.582   3.022
11444SOL    HW234677   6.843   6.685   3.078
11445SOL     OW34678   6.888   6.441   2.171
11445SOL    HW134679   6.802   6.410   2.213
11445SOL    HW234680   6.884   6.427   2.072
11446SOL     OW34681   7.345   7.333   3.016
11446SOL    HW134682   7.406   7.363   2.943
11446SOL    HW234683   7.307   7.244   2.994
11447SOL     OW34684   6.838   7.317   2.990
11447SOL    HW134685   6.922   7.322   2.936
11447SOL    HW234686   6.815   7.221   3.008
11448SOL     OW34687   5.669   6.844   2.884
11448SOL    HW134688   5.664   6.843   2.984
11448SOL    HW234689   5.586   6.803   2.846
11449SOL     OW34690   6.274   7.248   3.578
11449SOL    HW134691   6.218   7.329   3.587
11449SOL    HW234692   6.326   7.252   3.492
11450SOL     OW34693   7.312   5.721   2.385
11450SOL    HW134694   7.385   5.704   2.318
11450SOL    HW234695   7.281   5.634   2.423
11451SOL     OW34696   6.974   7.159   2.339
11451SOL    HW134697   7.041   7.171   2.265
11451SOL    HW234698   6.934   7.248   2.362
11452SOL     OW34699   5.716   7.380   3.713
11452SOL    HW134700   5.675   7.306   3.766
11452SOL    HW234701   5.780   7.431   3.771
11453SOL     OW34702   6.866   6.513   2.534
11453SOL    HW134703   6.926   6.432   2.536
11453SOL    HW234704   6.906   6.582   2.474
11454SOL     OW34705   6.416   6.859   3.284
11454SOL    HW134706   6.411   6.892   3.379
11454SOL    HW234707   6.330   6.878   3.238
11455SOL     OW34708   6.258   7.202   2.016
11455SOL    HW134709   6.267   7.212   1.917
11455SOL    HW234710   6.218   7.113   2.037
11456SOL     OW34711   7.236   7.306   3.256
11456SOL    HW134712   7.289   7.316   3.172
11456SOL    HW234713   7.209   7.396   3.290
11457SOL     OW34714   7.427   5.761   2.825
11457SOL    HW134715   7.466   5.676   2.789
11457SOL    HW234716   7.329   5.763   2.806
11458SOL     OW34717   5.849   5.912   2.582
11458SOL    HW134718   5.770   5.963   2.548
11458SOL    HW234719   5.840   5.897   2.680
11459SOL     OW34720   6.780   7.198   1.893
11459SOL    HW134721   6.786   7.105   1.930
11459SOL    HW234722   6.721   7.198   1.813
11460SOL     OW34723   6.408   6.588   3.234
11460SOL    HW134724   6.448   6.587   3.142
11460SOL    HW234725   6.418   6.680   3.274
11461SOL     OW34726   6.502   6.496   2.153
11461SOL    HW134727   6.565   6.534   2.085
11461SOL    HW234728   6.542   6.413   2.192
11462SOL     OW34729   7.090   7.193   1.906
11462SOL    HW134730   6.998   7.230   1.913
11462SOL    HW234731   7.128   7.213   1.816
11463SOL     OW34732   5.958   6.874   3.352
11463SOL    HW134733   5.945   6.967   3.318
11463SOL    HW234734   5.874   6.822   3.339
11464SOL     OW34735   7.200   6.878   3.151
11464SOL    HW134736   7.260   6.881   3.231
11464SOL    HW234737   7.125   6.942   3.164
11465SOL     OW34738   6.625   6.684   2.558
11465SOL    HW134739   6.555   6.637   2.612
11465SOL    HW234740   6.684   6.616   2.515
11466SOL     OW34741   6.600   5.822   2.833
11466SOL    HW134742   6.592   5.786   2.740
11466SOL    HW234743   6.598   5.746   2.898
11467SOL     OW34744   6.176   7.073   2.353
11467SOL    HW134745   6.218   7.015   2.283
11467SOL    HW234746   6.132   7.152   2.309
11468SOL     OW34747   7.295   5.971   3.243
11468SOL    HW134748   7.368   6.040   3.247
11468SOL    HW234749   7.323   5.896   3.184
11469SOL     OW34750   5.841   6.934   2.152
11469SOL    HW134751   5.745   6.935   2.125
11469SOL    HW234752   5.853   6.987   2.236
11470SOL     OW34753   5.691   6.599   3.588
11470SOL    HW134754   5.614   6.566   3.642
11470SOL    HW234755   5.776   6.569   3.630
11471SOL     OW34756   6.258   5.789   3.351
11471SOL    HW134757   6.348   5.773   3.311
11471SOL    HW234758   6.266   5.794   3.450
11472SOL     OW34759   5.661   5.931   1.895
11472SOL    HW134760   5.569   5.903   1.866
11472SOL    HW234761   5.692   6.008   1.839
11473SOL     OW34762   7.026   6.442   3.260
11473SOL    HW134763   6.969   6.494   3.197
11473SOL    HW234764   7.122   6.454   3.236
11474SOL     OW34765   5.658   5.752   2.180
11474SOL    HW134766   5.641   5.835   2.126
11474SOL    HW234767   5.748   5.715   2.158
11475SOL     OW34768   6.769   6.921   1.981
11475SOL    HW134769   6.670   6.910   1.983
11475SOL    HW234770   6.803   6.936   2.074
11476SOL     OW34771   6.199   6.428   3.293
11476SOL    HW134772   6.255   6.509   3.276
11476SOL    HW234773   6.258   6.348   3.296
11477SOL     OW34774   7.079   7.353   2.821
11477SOL    HW134775   7.112   7.417   2.752
11477SOL    HW234776   7.145   7.347   2.896
11478SOL     OW34777   6.302   6.151   3.570
11478SOL    HW134778   6.321   6.216   3.644
11478SOL    HW234779   6.362   6.071   3.579
11479SOL     OW34780   7.036   6.806   3.495
11479SOL    HW134781   7.027   6.796   3.594
11479SOL    HW234782   7.132   6.799   3.469
11480SOL     OW34783   5.976   7.327   3.422
11480SOL    HW134784   5.885   7.368   3.420
11480SOL    HW234785   5.969   7.233   3.454
11481SOL     OW34786   7.260   6.469   3.116
11481SOL    HW134787   7.233   6.380   3.079
11481SOL    HW234788   7.261   6.537   3.043
11482SOL     OW34789   6.811   5.911   2.311
11482SOL    HW134790   6.876   5.837   2.300
11482SOL    HW234791   6.831   5.961   2.395
11483SOL     OW34792   6.180   6.331   2.514
11483SOL    HW134793   6.230   6.416   2.495
11483SOL    HW234794   6.092   6.333   2.466
11484SOL     OW34795   7.363   5.928   3.504
11484SOL    HW134796   7.346   5.959   3.410
11484SOL    HW234797   7.279   5.891   3.542
11485SOL     OW34798   7.316   6.520   3.379
11485SOL    HW134799   7.354   6.611   3.394
11485SOL    HW234800   7.308   6.503   3.280
11486SOL     OW34801   6.445   6.960   1.878
11486SOL    HW134802   6.399   6.975   1.966
11486SOL    HW234803   6.489   7.045   1.848
11487SOL     OW34804   6.247   7.376   2.815
11487SOL    HW134805   6.201   7.464   2.802
11487SOL    HW234806   6.346   7.388   2.808
11488SOL     OW34807   6.445   6.542   2.723
11488SOL    HW134808   6.499   6.473   2.771
11488SOL    HW234809   6.413   6.611   2.789
11489SOL     OW34810   6.669   6.570   1.949
11489SOL    HW134811   6.646   6.623   1.867
11489SOL    HW234812   6.750   6.514   1.930
11490SOL     OW34813   7.447   7.155   2.713
11490SOL    HW134814   7.376   7.143   2.643
11490SOL    HW234815   7.448   7.076   2.773
11491SOL     OW34816   5.807   6.900   3.706
11491SOL    HW134817   5.742   6.827   3.685
11491SOL    HW234818   5.811   6.914   3.804
11492SOL     OW34819   5.665   6.826   2.515
11492SOL    HW134820   5.664   6.779   2.603
11492SOL    HW234821   5.747   6.798   2.464
11493SOL     OW34822   6.258   6.977   3.486
11493SOL    HW134823   6.180   6.927   3.524
11493SOL    HW234824   6.255   7.072   3.517
11494SOL     OW34825   7.410   5.778   3.089
11494SOL    HW134826   7.406   5.688   3.133
11494SOL    HW234827   7.413   5.767   2.990
11495SOL     OW34828   6.014   6.010   2.382
11495SOL    HW134829   6.044   5.938   2.320
11495SOL    HW234830   5.975   5.970   2.465
11496SOL     OW34831   7.291   7.073   2.966
11496SOL    HW134832   7.198   7.048   2.939
11496SOL    HW234833   7.317   7.023   3.048
11497SOL     OW34834   5.903   6.133   3.142
11497SOL    HW134835   5.941   6.074   3.214
11497SOL    HW234836   5.943   6.107   3.054
11498SOL     OW34837   6.398   7.172   2.549
11498SOL    HW134838   6.430   7.182   2.455
11498SOL    HW234839   6.319   7.110   2.551
11499SOL     OW34840   7.010   5.800   2.974
11499SOL    HW134841   7.062   5.735   3.029
11499SOL    HW234842   6.961   5.863   3.035
11500SOL     OW34843   6.587   5.620   3.016
11500SOL    HW134844   6.524   5.548   2.985
11500SOL    HW234845   6.680   5.584   3.016
11501SOL     OW34846   6.356   6.916   2.163
11501SOL    HW134847   6.310   6.829   2.180
11501SOL    HW234848   6.447   6.913   2.204
11502SOL     OW34849   6.204   7.153   3.146
11502SOL    HW134850   6.199   7.235   3.203
11502SOL    HW234851   6.293   7.150   3.101
11503SOL     OW34852   6.938   5.638   2.030
11503SOL    HW134853   6.973   5.597   1.946
11503SOL    HW234854   6.848   5.600   2.050
11504SOL     OW34855   6.886   6.039   2.553
11504SOL    HW134856   6.827   6.119   2.557
11504SOL    HW234857   6.901   6.004   2.646
11505SOL     OW34858   7.179   5.807   2.744
11505SOL    HW134859   7.095   5.806   2.798
11505SOL    HW234860   7.181   5.890   2.688
11506SOL     OW34861   5.625   6.663   2.162
11506SOL    HW134862   5.724   6.652   2.153
11506SOL    HW234863   5.585   6.577   2.194
11507SOL     OW34864   6.461   7.232   2.199
11507SOL    HW134865   6.384   7.197   2.145
11507SOL    HW234866   6.429   7.303   2.261
11508SOL     OW34867   5.816   6.214   3.837
11508SOL    HW134868   5.723   6.212   3.874
11508SOL    HW234869   5.817   6.175   3.745
11509SOL     OW34870   5.811   5.861   4.720
11509SOL    HW134871   5.846   5.844   4.812
11509SOL    HW234872   5.723   5.816   4.708
11510SOL     OW34873   5.605   5.954   4.371
11510SOL    HW134874   5.523   5.997   4.410
11510SOL    HW234875   5.577   5.881   4.308
11511SOL     OW34876   6.155   6.861   4.889
11511SOL    HW134877   6.062   6.854   4.852
11511SOL    HW234878   6.166   6.950   4.933
11512SOL     OW34879   7.141   7.097   4.427
11512SOL    HW134880   7.084   7.081   4.508
11512SOL    HW234881   7.082   7.107   4.347
11513SOL     OW34882   6.721   6.289   4.441
11513SOL    HW134883   6.778   6.367   4.416
11513SOL    HW234884   6.661   6.315   4.517
11514SOL     OW34885   7.341   6.193   3.955
11514SOL    HW134886   7.329   6.180   3.856
11514SOL    HW234887   7.311   6.112   4.004
11515SOL     OW34888   6.354   6.730   4.747
11515SOL    HW134889   6.276   6.747   4.807
11515SOL    HW234890   6.388   6.817   4.711
11516SOL     OW34891   6.436   6.384   5.547
11516SOL    HW134892   6.432   6.460   5.612
11516SOL    HW234893   6.458   6.420   5.456
11517SOL     OW34894   6.271   6.598   4.389
11517SOL    HW134895   6.340   6.582   4.459
11517SOL    HW234896   6.198   6.655   4.427
11518SOL     OW34897   6.272   6.747   5.527
11518SOL    HW134898   6.332   6.826   5.541
11518SOL    HW234899   6.186   6.778   5.486
11519SOL     OW34900   5.921   7.021   4.785
11519SOL    HW134901   5.843   6.990   4.732
11519SOL    HW234902   5.979   7.079   4.728
11520SOL     OW34903   7.046   7.091   5.063
11520SOL    HW134904   7.070   7.185   5.089
11520SOL    HW234905   7.030   7.037   5.145
11521SOL     OW34906   6.024   5.978   5.223
11521SOL    HW134907   6.106   5.922   5.232
11521SOL    HW234908   5.943   5.920   5.227
11522SOL     OW34909   7.189   6.033   4.461
11522SOL    HW134910   7.115   6.079   4.411
11522SOL    HW234911   7.240   6.101   4.514
11523SOL     OW34912   5.817   7.299   4.207
11523SOL    HW134913   5.851   7.376   4.261
11523SOL    HW234914   5.861   7.299   4.117
11524SOL     OW34915   6.713   6.927   5.414
11524SOL    HW134916   6.760   6.927   5.502
11524SOL    HW234917   6.665   6.840   5.403
11525SOL     OW34918   5.816   7.020   4.262
11525SOL    HW134919   5.790   7.116   4.262
11525SOL    HW234920   5.745   6.966   4.307
11526SOL     OW34921   5.826   6.677   4.610
11526SOL    HW134922   5.840   6.593   4.662
11526SOL    HW234923   5.771   6.741   4.665
11527SOL     OW34924   6.206   7.372   5.163
11527SOL    HW134925   6.114   7.355   5.198
11527SOL    HW234926   6.234   7.464   5.189
11528SOL     OW34927   6.192   6.550   3.847
11528SOL    HW134928   6.199   6.634   3.793
11528SOL    HW234929   6.238   6.563   3.935
11529SOL     OW34930   7.180   5.700   5.204
11529SOL    HW134931   7.162   5.767   5.132
11529SOL    HW234932   7.177   5.746   5.293
11530SOL     OW34933   5.708   6.229   4.287
11530SOL    HW134934   5.663   6.141   4.304
11530SOL    HW234935   5.707   6.283   4.371
11531SOL     OW34936   7.428   7.353   4.083
11531SOL    HW134937   7.482   7.324   4.163
11531SOL    HW234938   7.458   7.443   4.054
11532SOL     OW34939   5.613   7.182   3.841
11532SOL    HW134940   5.594   7.086   3.862
11532SOL    HW234941   5.580   7.240   3.916
11533SOL     OW34942   7.275   6.508   4.336
11533SOL    HW134943   7.370   6.479   4.344
11533SOL    HW234944   7.267   6.573   4.261
11534SOL     OW34945   7.227   6.694   4.156
11534SOL    HW134946   7.313   6.696   4.104
11534SOL    HW234947   7.241   6.741   4.244
11535SOL     OW34948   5.699   6.323   5.321
11535SOL    HW134949   5.787   6.310   5.366
11535SOL    HW234950   5.686   6.420   5.299
11536SOL     OW34951   6.199   6.951   4.450
11536SOL    HW134952   6.150   6.864   4.459
11536SOL    HW234953   6.176   6.994   4.363
11537SOL     OW34954   6.879   6.814   5.147
11537SOL    HW134955   6.916   6.741   5.089
11537SOL    HW234956   6.931   6.819   5.232
11538SOL     OW34957   6.395   5.590   4.226
11538SOL    HW134958   6.435   5.681   4.217
11538SOL    HW234959   6.295   5.598   4.232
11539SOL     OW34960   5.783   6.562   4.988
11539SOL    HW134961   5.872   6.517   4.974
11539SOL    HW234962   5.710   6.497   4.969
11540SOL     OW34963   7.111   6.585   3.914
11540SOL    HW134964   7.048   6.509   3.927
11540SOL    HW234965   7.159   6.603   4.000
11541SOL     OW34966   6.773   7.378   5.340
11541SOL    HW134967   6.797   7.438   5.264
11541SOL    HW234968   6.780   7.283   5.310
11542SOL     OW34969   5.903   5.837   5.525
11542SOL    HW134970   5.974   5.908   5.531
11542SOL    HW234971   5.815   5.876   5.553
11543SOL     OW34972   7.052   7.003   4.677
11543SOL    HW134973   6.993   7.009   4.757
11543SOL    HW234974   7.037   6.915   4.631
11544SOL     OW34975   7.253   7.300   4.296
11544SOL    HW134976   7.212   7.277   4.208
11544SOL    HW234977   7.235   7.226   4.361
11545SOL     OW34978   6.184   6.315   3.994
11545SOL    HW134979   6.208   6.384   3.926
11545SOL    HW234980   6.106   6.348   4.048
11546SOL     OW34981   6.867   5.931   4.668
11546SOL    HW134982   6.781   5.881   4.655
11546SOL    HW234983   6.929   5.877   4.724
11547SOL     OW34984   7.162   7.248   4.031
11547SOL    HW134985   7.251   7.294   4.034
11547SOL    HW234986   7.141   7.224   3.936
11548SOL     OW34987   6.393   6.191   5.189
11548SOL    HW134988   6.346   6.188   5.278
11548SOL    HW234989   6.342   6.136   5.123
11549SOL     OW34990   6.980   6.055   5.398
11549SOL    HW134991   6.960   6.098   5.486
11549SOL    HW234992   7.058   5.993   5.407
11550SOL     OW34993   6.559   6.476   5.296
11550SOL    HW134994   6.605   6.392   5.267
11550SOL    HW234995   6.503   6.510   5.221
11551SOL     OW34996   6.577   5.996   4.966
11551SOL    HW134997   6.500   6.030   5.020
11551SOL    HW234998   6.543   5.945   4.887
11552SOL     OW34999   6.627   6.287   4.153
11552SOL    HW135000   6.653   6.283   4.249
11552SOL    HW235001   6.542   6.236   4.139
11553SOL     OW35002   5.662   6.397   4.513
11553SOL    HW135003   5.761   6.385   4.522
11553SOL    HW235004   5.638   6.492   4.534
11554SOL     OW35005   5.716   7.407   5.295
11554SOL    HW135006   5.706   7.392   5.394
11554SOL    HW235007   5.630   7.443   5.259
11555SOL     OW35008   6.451   5.934   3.919
11555SOL    HW135009   6.510   5.997   3.870
11555SOL    HW235010   6.470   5.840   3.890
11556SOL     OW35011   7.305   6.171   5.555
11556SOL    HW135012   7.279   6.260   5.519
11556SOL    HW235013   7.303   6.103   5.482
11557SOL     OW35014   6.948   6.730   4.269
11557SOL    HW135015   7.031   6.701   4.221
11557SOL    HW235016   6.899   6.797   4.213
11558SOL     OW35017   6.136   5.782   4.609
11558SOL    HW135018   6.131   5.777   4.709
11558SOL    HW235019   6.138   5.878   4.580
11559SOL     OW35020   5.937   7.387   4.577
11559SOL    HW135021   5.987   7.301   4.583
11559SOL    HW235022   6.002   7.464   4.574
11560SOL     OW35023   7.381   6.652   4.597
11560SOL    HW135024   7.319   6.637   4.521
11560SOL    HW235025   7.329   6.663   4.682
11561SOL     OW35026   6.813   7.136   5.230
11561SOL    HW135027   6.819   7.059   5.294
11561SOL    HW235028   6.761   7.110   5.150
11562SOL     OW35029   5.907   6.529   3.966
11562SOL    HW135030   5.989   6.568   3.924
11562SOL    HW235031   5.880   6.447   3.917
11563SOL     OW35032   7.044   6.321   4.452
11563SOL    HW135033   7.039   6.256   4.527
11563SOL    HW235034   7.124   6.380   4.465
11564SOL     OW35035   6.047   6.852   5.451
11564SOL    HW135036   5.997   6.853   5.365
11564SOL    HW235037   5.984   6.834   5.527
11565SOL     OW35038   5.788   5.871   5.222
11565SOL    HW135039   5.708   5.931   5.209
11565SOL    HW235040   5.778   5.822   5.308
11566SOL     OW35041   7.218   6.963   3.805
11566SOL    HW135042   7.186   7.057   3.795
11566SOL    HW235043   7.142   6.900   3.793
11567SOL     OW35044   6.050   7.329   4.047
11567SOL    HW135045   6.083   7.368   4.133
11567SOL    HW235046   6.126   7.322   3.982
11568SOL     OW35047   6.986   5.693   4.150
11568SOL    HW135048   6.962   5.656   4.060
11568SOL    HW235049   7.085   5.709   4.154
11569SOL     OW35050   5.835   7.371   4.965
11569SOL    HW135051   5.892   7.306   5.015
11569SOL    HW235052   5.819   7.338   4.872
11570SOL     OW35053   6.526   7.284   4.628
11570SOL    HW135054   6.606   7.227   4.649
11570SOL    HW235055   6.477   7.244   4.551
11571SOL     OW35056   5.968   6.286   4.204
11571SOL    HW135057   6.013   6.196   4.201
11571SOL    HW235058   5.874   6.275   4.237
11572SOL     OW35059   7.133   5.808   5.453
11572SOL    HW135060   7.128   5.845   5.545
11572SOL    HW235061   7.061   5.739   5.441
11573SOL     OW35062   6.200   5.708   3.841
11573SOL    HW135063   6.298   5.686   3.848
11573SOL    HW235064   6.169   5.691   3.748
11574SOL     OW35065   6.367   5.850   5.473
11574SOL    HW135066   6.434   5.789   5.516
11574SOL    HW235067   6.294   5.869   5.538
11575SOL     OW35068   6.474   7.100   4.919
11575SOL    HW135069   6.451   7.075   4.825
11575SOL    HW235070   6.535   7.031   4.958
11576SOL     OW35071   6.937   6.176   5.157
11576SOL    HW135072   6.965   6.133   5.242
11576SOL    HW235073   6.962   6.272   5.158
11577SOL     OW35074   6.389   6.988   4.648
11577SOL    HW135075   6.479   7.002   4.606
11577SOL    HW235076   6.318   6.990   4.577
11578SOL     OW35077   6.508   6.089   4.623
11578SOL    HW135078   6.483   6.080   4.527
11578SOL    HW235079   6.556   6.007   4.654
11579SOL     OW35080   6.125   5.650   4.236
11579SOL    HW135081   6.044   5.651   4.294
11579SOL    HW235082   6.128   5.733   4.181
11580SOL     OW35083   7.020   6.774   3.765
11580SOL    HW135084   7.052   6.698   3.822
11580SOL    HW235085   6.928   6.801   3.795
11581SOL     OW35086   5.883   5.621   3.895
11581SOL    HW135087   5.932   5.705   3.874
11581SOL    HW235088   5.945   5.556   3.940
11582SOL     OW35089   6.521   5.822   4.204
11582SOL    HW135090   6.473   5.863   4.126
11582SOL    HW235091   6.620   5.820   4.185
11583SOL     OW35092   6.662   6.269   5.188
11583SOL    HW135093   6.582   6.208   5.191
11583SOL    HW235094   6.743   6.216   5.164
11584SOL     OW35095   6.813   7.156   4.517
11584SOL    HW135096   6.834   7.230   4.452
11584SOL    HW235097   6.881   7.156   4.590
11585SOL     OW35098   6.045   6.738   4.465
11585SOL    HW135099   5.974   6.711   4.530
11585SOL    HW235100   6.019   6.710   4.372
11586SOL     OW35101   6.618   6.135   3.740
11586SOL    HW135102   6.577   6.217   3.701
11586SOL    HW235103   6.682   6.161   3.813
11587SOL     OW35104   5.664   6.142   5.110
11587SOL    HW135105   5.756   6.141   5.069
11587SOL    HW235106   5.658   6.216   5.177
11588SOL     OW35107   6.147   5.808   4.871
11588SOL    HW135108   6.185   5.724   4.908
11588SOL    HW235109   6.059   5.827   4.915
11589SOL     OW35110   6.452   6.040   4.366
11589SOL    HW135111   6.420   6.112   4.304
11589SOL    HW235112   6.476   5.959   4.313
11590SOL     OW35113   6.603   5.625   4.477
11590SOL    HW135114   6.531   5.630   4.408
11590SOL    HW235115   6.579   5.556   4.546
11591SOL     OW35116   7.015   6.759   4.591
11591SOL    HW135117   6.960   6.675   4.584
11591SOL    HW235118   7.041   6.788   4.499
11592SOL     OW35119   7.052   6.176   4.716
11592SOL    HW135120   7.022   6.081   4.723
11592SOL    HW235121   7.125   6.192   4.782
11593SOL     OW35122   7.443   6.419   4.101
11593SOL    HW135123   7.485   6.355   4.165
11593SOL    HW235124   7.405   6.368   4.023
11594SOL     OW35125   6.074   6.971   3.898
11594SOL    HW135126   5.987   6.956   3.945
11594SOL    HW235127   6.057   6.997   3.803
11595SOL     OW35128   7.250   6.866   4.381
11595SOL    HW135129   7.349   6.874   4.395
11595SOL    HW235130   7.205   6.950   4.412
11596SOL     OW35131   6.976   6.161   3.802
11596SOL    HW135132   6.922   6.140   3.883
11596SOL    HW235133   7.067   6.120   3.811
11597SOL     OW35134   6.113   5.842   4.052
11597SOL    HW135135   6.140   5.783   3.977
11597SOL    HW235136   6.113   5.937   4.021
11598SOL     OW35137   7.340   6.809   5.312
11598SOL    HW135138   7.431   6.770   5.299
11598SOL    HW235139   7.348   6.905   5.336
11599SOL     OW35140   6.650   6.933   5.064
11599SOL    HW135141   6.570   6.910   5.119
11599SOL    HW235142   6.733   6.907   5.113
11600SOL     OW35143   7.178   7.215   5.349
11600SOL    HW135144   7.205   7.249   5.259
11600SOL    HW235145   7.257   7.177   5.395
11601SOL     OW35146   6.697   6.781   4.824
11601SOL    HW135147   6.657   6.825   4.905
11601SOL    HW235148   6.656   6.818   4.741
11602SOL     OW35149   7.224   6.685   4.803
11602SOL    HW135150   7.229   6.766   4.862
11602SOL    HW235151   7.138   6.687   4.752
11603SOL     OW35152   6.501   5.675   5.126
11603SOL    HW135153   6.526   5.655   5.031
11603SOL    HW235154   6.573   5.731   5.168
11604SOL     OW35155   6.566   6.702   5.443
11604SOL    HW135156   6.467   6.708   5.453
11604SOL    HW235157   6.589   6.622   5.387
11605SOL     OW35158   6.291   6.636   4.092
11605SOL    HW135159   6.277   6.643   4.191
11605SOL    HW235160   6.375   6.585   4.074
11606SOL     OW35161   5.996   6.399   4.975
11606SOL    HW135162   6.082   6.411   5.025
11606SOL    HW235163   5.954   6.312   5.002
11607SOL     OW35164   6.860   5.972   4.986
11607SOL    HW135165   6.881   6.046   5.050
11607SOL    HW235166   6.771   5.989   4.943
11608SOL     OW35167   5.650   7.150   5.055
11608SOL    HW135168   5.604   7.232   5.021
11608SOL    HW235169   5.748   7.169   5.064
11609SOL     OW35170   5.953   6.686   4.225
11609SOL    HW135171   5.946   6.769   4.169
11609SOL    HW235172   5.957   6.606   4.165
11610SOL     OW35173   6.152   6.123   4.589
11610SOL    HW135174   6.164   6.189   4.515
11610SOL    HW235175   6.198   6.157   4.672
11611SOL     OW35176   6.838   6.934   4.112
11611SOL    HW135177   6.888   7.011   4.152
11611SOL    HW235178   6.743   6.936   4.144
11612SOL     OW35179   6.858   7.031   4.866
11612SOL    HW135180   6.905   7.044   4.953
11612SOL    HW235181   6.792   6.957   4.875
11613SOL     OW35182   7.168   6.225   4.196
11613SOL    HW135183   7.137   6.286   4.269
11613SOL    HW235184   7.218   6.277   4.127
11614SOL     OW35185   5.940   7.096   5.053
11614SOL    HW135186   5.919   7.052   4.966
11614SOL    HW235187   6.037   7.122   5.056
11615SOL     OW35188   5.988   6.337   5.322
11615SOL    HW135189   6.056   6.392   5.275
11615SOL    HW235190   6.028   6.249   5.349
11616SOL     OW35191   7.173   6.365   5.394
11616SOL    HW135192   7.081   6.403   5.389
11616SOL    HW235193   7.233   6.412   5.329
11617SOL     OW35194   6.599   5.691   5.494
11617SOL    HW135195   6.605   5.776   5.442
11617SOL    HW235196   6.631   5.615   5.437
11618SOL     OW35197   6.090   5.636   5.464
11618SOL    HW135198   6.048   5.579   5.394
11618SOL    HW235199   6.024   5.705   5.496
11619SOL     OW35200   6.159   6.456   4.753
11619SOL    HW135201   6.203   6.545   4.744
11619SOL    HW235202   6.096   6.456   4.830
11620SOL     OW35203   6.946   6.448   4.769
11620SOL    HW135204   6.871   6.448   4.703
11620SOL    HW235205   6.983   6.356   4.778
11621SOL     OW35206   6.795   6.111   3.999
11621SOL    HW135207   6.808   6.027   4.053
11621SOL    HW235208   6.766   6.185   4.059
11622SOL     OW35209   5.893   5.799   4.955
11622SOL    HW135210   5.870   5.836   5.045
11622SOL    HW235211   5.863   5.704   4.949
11623SOL     OW35212   5.623   6.896   5.006
11623SOL    HW135213   5.676   6.847   5.074
11623SOL    HW235214   5.645   6.994   5.011
11624SOL     OW35215   6.318   6.220   4.788
11624SOL    HW135216   6.377   6.194   4.712
11624SOL    HW235217   6.290   6.316   4.777
11625SOL     OW35218   7.314   6.521   5.578
11625SOL    HW135219   7.268   6.514   5.489
11625SOL    HW235220   7.252   6.565   5.644
11626SOL     OW35221   5.893   5.649   4.342
11626SOL    HW135222   5.882   5.743   4.375
11626SOL    HW235223   5.888   5.586   4.419
11627SOL     OW35224   7.208   5.953   4.098
11627SOL    HW135225   7.210   5.877   4.162
11627SOL    HW235226   7.160   6.030   4.138
11628SOL     OW35227   6.609   6.352   4.690
11628SOL    HW135228   6.624   6.373   4.786
11628SOL    HW235229   6.579   6.257   4.681
11629SOL     OW35230   6.566   7.159   5.424
11629SOL    HW135231   6.546   7.203   5.336
11629SOL    HW235232   6.605   7.068   5.408
11630SOL     OW35233   7.445   7.104   5.329
11630SOL    HW135234   7.459   7.131   5.234
11630SOL    HW235235   7.528   7.126   5.382
11631SOL     OW35236   5.936   6.484   5.528
11631SOL    HW135237   6.012   6.528   5.576
11631SOL    HW235238   5.971   6.437   5.446
11632SOL     OW35239   7.126   5.860   3.849
11632SOL    HW135240   7.065   5.785   3.872
11632SOL    HW235241   7.148   5.912   3.932
11633SOL     OW35242   6.889   6.424   3.766
11633SOL    HW135243   6.923   6.331   3.781
11633SOL    HW235244   6.907   6.451   3.671
11634SOL     OW35245   6.654   6.919   4.573
11634SOL    HW135246   6.661   6.835   4.518
11634SOL    HW235247   6.716   6.988   4.537
11635SOL     OW35248   5.905   6.396   4.673
11635SOL    HW135249   5.998   6.432   4.678
11635SOL    HW235250   5.899   6.311   4.725
11636SOL     OW35251   5.925   6.095   4.730
11636SOL    HW135252   5.873   6.012   4.713
11636SOL    HW235253   6.002   6.100   4.666
11637SOL     OW35254   6.724   5.966   5.402
11637SOL    HW135255   6.679   6.029   5.466
11637SOL    HW235256   6.817   5.997   5.385
11638SOL     OW35257   6.746   5.793   5.201
11638SOL    HW135258   6.746   5.857   5.278
11638SOL    HW235259   6.774   5.841   5.118
11639SOL     OW35260   5.594   6.912   3.924
11639SOL    HW135261   5.501   6.933   3.893
11639SOL    HW235262   5.604   6.813   3.937
11640SOL     OW35263   5.674   7.387   4.651
11640SOL    HW135264   5.632   7.301   4.624
11640SOL    HW235265   5.768   7.390   4.617
11641SOL     OW35266   6.090   7.154   4.634
11641SOL    HW135267   6.156   7.228   4.643
11641SOL    HW235268   6.134   7.075   4.592
11642SOL     OW35269   6.588   6.382   4.962
11642SOL    HW135270   6.629   6.350   5.048
11642SOL    HW235271   6.492   6.355   4.959
11643SOL     OW35272   5.626   6.130   4.838
11643SOL    HW135273   5.711   6.097   4.797
11643SOL    HW235274   5.639   6.145   4.936
11644SOL     OW35275   5.775   6.106   5.446
11644SOL    HW135276   5.834   6.066   5.376
11644SOL    HW235277   5.717   6.177   5.405
11645SOL     OW35278   6.955   6.536   5.384
11645SOL    HW135279   6.994   6.625   5.404
11645SOL    HW235280   6.965   6.516   5.287
11646SOL     OW35281   6.401   6.158   4.049
11646SOL    HW135282   6.408   6.069   4.003
11646SOL    HW235283   6.307   6.192   4.041
11647SOL     OW35284   7.243   6.190   4.930
11647SOL    HW135285   7.205   6.121   4.992
11647SOL    HW235286   7.325   6.154   4.886
11648SOL     OW35287   5.838   7.150   5.468
11648SOL    HW135288   5.808   7.207   5.544
11648SOL    HW235289   5.831   7.053   5.494
11649SOL     OW35290   6.257   6.050   4.993
11649SOL    HW135291   6.223   5.961   4.963
11649SOL    HW235292   6.283   6.104   4.913
11650SOL     OW35293   6.516   7.264   5.189
11650SOL    HW135294   6.492   7.246   5.094
11650SOL    HW235295   6.546   7.358   5.199
11651SOL     OW35296   6.059   6.086   3.915
11651SOL    HW135297   6.120   6.166   3.919
11651SOL    HW235298   5.964   6.117   3.922
11652SOL     OW35299   5.745   6.723   5.190
11652SOL    HW135300   5.767   6.662   5.266
11652SOL    HW235301   5.755   6.674   5.104
11653SOL     OW35302   6.933   6.645   4.958
11653SOL    HW135303   6.957   6.582   4.884
11653SOL    HW235304   6.843   6.685   4.940
11654SOL     OW35305   6.888   6.441   4.033
11654SOL    HW135306   6.802   6.410   4.075
11654SOL    HW235307   6.884   6.427   3.934
11655SOL     OW35308   7.345   7.333   4.878
11655SOL    HW135309   7.406   7.363   4.805
11655SOL    HW235310   7.307   7.244   4.856
11656SOL     OW35311   6.838   7.317   4.852
11656SOL    HW135312   6.922   7.322   4.798
11656SOL    HW235313   6.815   7.221   4.870
11657SOL     OW35314   5.669   6.844   4.746
11657SOL    HW135315   5.664   6.843   4.846
11657SOL    HW235316   5.586   6.803   4.708
11658SOL     OW35317   6.274   7.248   5.440
11658SOL    HW135318   6.218   7.329   5.449
11658SOL    HW235319   6.326   7.252   5.354
11659SOL     OW35320   7.312   5.721   4.247
11659SOL    HW135321   7.385   5.704   4.180
11659SOL    HW235322   7.281   5.634   4.285
11660SOL     OW35323   6.974   7.159   4.201
11660SOL    HW135324   7.041   7.171   4.127
11660SOL    HW235325   6.934   7.248   4.224
11661SOL     OW35326   5.716   7.380   5.575
11661SOL    HW135327   5.675   7.306   5.628
11661SOL    HW235328   5.780   7.431   5.633
11662SOL     OW35329   6.866   6.513   4.396
11662SOL    HW135330   6.926   6.432   4.398
11662SOL    HW235331   6.906   6.582   4.336
11663SOL     OW35332   6.416   6.859   5.146
11663SOL    HW135333   6.411   6.892   5.241
11663SOL    HW235334   6.330   6.878   5.100
11664SOL     OW35335   6.258   7.202   3.878
11664SOL    HW135336   6.267   7.212   3.779
11664SOL    HW235337   6.218   7.113   3.899
11665SOL     OW35338   7.236   7.306   5.118
11665SOL    HW135339   7.289   7.316   5.034
11665SOL    HW235340   7.209   7.396   5.152
11666SOL     OW35341   7.427   5.761   4.687
11666SOL    HW135342   7.466   5.676   4.651
11666SOL    HW235343   7.329   5.763   4.668
11667SOL     OW35344   5.849   5.912   4.444
11667SOL    HW135345   5.770   5.963   4.410
11667SOL    HW235346   5.840   5.897   4.542
11668SOL     OW35347   6.780   7.198   3.755
11668SOL    HW135348   6.786   7.105   3.792
11668SOL    HW235349   6.721   7.198   3.675
11669SOL     OW35350   6.408   6.588   5.096
11669SOL    HW135351   6.448   6.587   5.004
11669SOL    HW235352   6.418   6.680   5.136
11670SOL     OW35353   6.502   6.496   4.015
11670SOL    HW135354   6.565   6.534   3.947
11670SOL    HW235355   6.542   6.413   4.054
11671SOL     OW35356   7.090   7.193   3.768
11671SOL    HW135357   6.998   7.230   3.775
11671SOL    HW235358   7.128   7.213   3.678
11672SOL     OW35359   5.958   6.874   5.214
11672SOL    HW135360   5.945   6.967   5.180
11672SOL    HW235361   5.874   6.822   5.201
11673SOL     OW35362   7.200   6.878   5.013
11673SOL    HW135363   7.260   6.881   5.093
11673SOL    HW235364   7.125   6.942   5.026
11674SOL     OW35365   6.625   6.684   4.420
11674SOL    HW135366   6.555   6.637   4.474
11674SOL    HW235367   6.684   6.616   4.377
11675SOL     OW35368   6.600   5.822   4.695
11675SOL    HW135369   6.592   5.786   4.602
11675SOL    HW235370   6.598   5.746   4.760
11676SOL     OW35371   6.176   7.073   4.215
11676SOL    HW135372   6.218   7.015   4.145
11676SOL    HW235373   6.132   7.152   4.171
11677SOL     OW35374   7.295   5.971   5.105
11677SOL    HW135375   7.368   6.040   5.109
11677SOL    HW235376   7.323   5.896   5.046
11678SOL     OW35377   5.841   6.934   4.014
11678SOL    HW135378   5.745   6.935   3.987
11678SOL    HW235379   5.853   6.987   4.098
11679SOL     OW35380   5.691   6.599   5.450
11679SOL    HW135381   5.614   6.566   5.504
11679SOL    HW235382   5.776   6.569   5.492
11680SOL     OW35383   6.258   5.789   5.213
11680SOL    HW135384   6.348   5.773   5.173
11680SOL    HW235385   6.266   5.794   5.312
11681SOL     OW35386   5.661   5.931   3.757
11681SOL    HW135387   5.569   5.903   3.728
11681SOL    HW235388   5.692   6.008   3.701
11682SOL     OW35389   7.026   6.442   5.122
11682SOL    HW135390   6.969   6.494   5.059
11682SOL    HW235391   7.122   6.454   5.098
11683SOL     OW35392   5.658   5.752   4.042
11683SOL    HW135393   5.641   5.835   3.988
11683SOL    HW235394   5.748   5.715   4.020
11684SOL     OW35395   6.769   6.921   3.843
11684SOL    HW135396   6.670   6.910   3.845
11684SOL    HW235397   6.803   6.936   3.936
11685SOL     OW35398   6.199   6.428   5.155
11685SOL    HW135399   6.255   6.509   5.138
11685SOL    HW235400   6.258   6.348   5.158
11686SOL     OW35401   7.079   7.353   4.683
11686SOL    HW135402   7.112   7.417   4.614
11686SOL    HW235403   7.145   7.347   4.758
11687SOL     OW35404   6.302   6.151   5.432
11687SOL    HW135405   6.321   6.216   5.506
11687SOL    HW235406   6.362   6.071   5.441
11688SOL     OW35407   7.036   6.806   5.357
11688SOL    HW135408   7.027   6.796   5.456
11688SOL    HW235409   7.132   6.799   5.331
11689SOL     OW35410   5.976   7.327   5.284
11689SOL    HW135411   5.885   7.368   5.282
11689SOL    HW235412   5.969   7.233   5.316
11690SOL     OW35413   7.260   6.469   4.978
11690SOL    HW135414   7.233   6.380   4.941
11690SOL    HW235415   7.261   6.537   4.905
11691SOL     OW35416   6.811   5.911   4.173
11691SOL    HW135417   6.876   5.837   4.162
11691SOL    HW235418   6.831   5.961   4.257
11692SOL     OW35419   6.180   6.331   4.376
11692SOL    HW135420   6.230   6.416   4.357
11692SOL    HW235421   6.092   6.333   4.328
11693SOL     OW35422   7.363   5.928   5.366
11693SOL    HW135423   7.346   5.959   5.272
11693SOL    HW235424   7.279   5.891   5.404
11694SOL     OW35425   7.316   6.520   5.241
11694SOL    HW135426   7.354   6.611   5.256
11694SOL    HW235427   7.308   6.503   5.142
11695SOL     OW35428   6.445   6.960   3.740
11695SOL    HW135429   6.399   6.975   3.828
11695SOL    HW235430   6.489   7.045   3.710
11696SOL     OW35431   6.247   7.376   4.677
11696SOL    HW135432   6.201   7.464   4.664
11696SOL    HW235433   6.346   7.388   4.670
11697SOL     OW35434   6.445   6.542   4.585
11697SOL    HW135435   6.499   6.473   4.633
11697SOL    HW235436   6.413   6.611   4.651
11698SOL     OW35437   6.669   6.570   3.811
11698SOL    HW135438   6.646   6.623   3.729
11698SOL    HW235439   6.750   6.514   3.792
11699SOL     OW35440   7.447   7.155   4.575
11699SOL    HW135441   7.376   7.143   4.505
11699SOL    HW235442   7.448   7.076   4.635
11700SOL     OW35443   5.807   6.900   5.568
11700SOL    HW135444   5.742   6.827   5.547
11700SOL    HW235445   5.811   6.914   5.666
11701SOL     OW35446   5.665   6.826   4.377
11701SOL    HW135447   5.664   6.779   4.465
11701SOL    HW235448   5.747   6.798   4.326
11702SOL     OW35449   6.258   6.977   5.348
11702SOL    HW135450   6.180   6.927   5.386
11702SOL    HW235451   6.255   7.072   5.379
11703SOL     OW35452   7.410   5.778   4.951
11703SOL    HW135453   7.406   5.688   4.995
11703SOL    HW235454   7.413   5.767   4.852
11704SOL     OW35455   6.014   6.010   4.244
11704SOL    HW135456   6.044   5.938   4.182
11704SOL    HW235457   5.975   5.970   4.327
11705SOL     OW35458   7.291   7.073   4.828
11705SOL    HW135459   7.198   7.048   4.801
11705SOL    HW235460   7.317   7.023   4.910
11706SOL     OW35461   5.903   6.133   5.004
11706SOL    HW135462   5.941   6.074   5.076
11706SOL    HW235463   5.943   6.107   4.916
11707SOL     OW35464   6.398   7.172   4.411
11707SOL    HW135465   6.430   7.182   4.317
11707SOL    HW235466   6.319   7.110   4.413
11708SOL     OW35467   7.010   5.800   4.836
11708SOL    HW135468   7.062   5.735   4.891
11708SOL    HW235469   6.961   5.863   4.897
11709SOL     OW35470   6.587   5.620   4.878
11709SOL    HW135471   6.524   5.548   4.847
11709SOL    HW235472   6.680   5.584   4.878
11710SOL     OW35473   6.356   6.916   4.025
11710SOL    HW135474   6.310   6.829   4.042
11710SOL    HW235475   6.447   6.913   4.066
11711SOL     OW35476   6.204   7.153   5.008
11711SOL    HW135477   6.199   7.235   5.065
11711SOL    HW235478   6.293   7.150   4.963
11712SOL     OW35479   6.938   5.638   3.892
11712SOL    HW135480   6.973   5.597   3.808
11712SOL    HW235481   6.848   5.600   3.912
11713SOL     OW35482   6.886   6.039   4.415
11713SOL    HW135483   6.827   6.119   4.419
11713SOL    HW235484   6.901   6.004   4.508
11714SOL     OW35485   7.179   5.807   4.606
11714SOL    HW135486   7.095   5.806   4.660
11714SOL    HW235487   7.181   5.890   4.550
11715SOL     OW35488   5.625   6.663   4.024
11715SOL    HW135489   5.724   6.652   4.015
11715SOL    HW235490   5.585   6.577   4.056
11716SOL     OW35491   6.461   7.232   4.061
11716SOL    HW135492   6.384   7.197   4.007
11716SOL    HW235493   6.429   7.303   4.123
11717SOL     OW35494   5.816   6.214   5.699
11717SOL    HW135495   5.723   6.212   5.736
11717SOL    HW235496   5.817   6.175   5.607
11718SOL     OW35497   5.605   5.954   6.233
11718SOL    HW135498   5.523   5.997   6.272
11718SOL    HW235499   5.577   5.881   6.170
11719SOL     OW35500   7.141   7.097   6.289
11719SOL    HW135501   7.084   7.081   6.370
11719SOL    HW235502   7.082   7.107   6.209
11720SOL     OW35503   6.721   6.289   6.303
11720SOL    HW135504   6.778   6.367   6.278
11720SOL    HW235505   6.661   6.315   6.379
11721SOL     OW35506   7.341   6.193   5.817
11721SOL    HW135507   7.329   6.180   5.718
11721SOL    HW235508   7.311   6.112   5.866
11722SOL     OW35509   6.271   6.598   6.251
11722SOL    HW135510   6.340   6.582   6.321
11722SOL    HW235511   6.198   6.655   6.289
11723SOL     OW35512   7.189   6.033   6.323
11723SOL    HW135513   7.115   6.079   6.273
11723SOL    HW235514   7.240   6.101   6.376
11724SOL     OW35515   5.817   7.299   6.069
11724SOL    HW135516   5.851   7.376   6.123
11724SOL    HW235517   5.861   7.299   5.979
11725SOL     OW35518   5.816   7.020   6.124
11725SOL    HW135519   5.790   7.116   6.124
11725SOL    HW235520   5.745   6.966   6.169
11726SOL     OW35521   5.708   6.229   6.149
11726SOL    HW135522   5.663   6.141   6.166
11726SOL    HW235523   5.707   6.283   6.233
11727SOL     OW35524   7.428   7.353   5.945
11727SOL    HW135525   7.482   7.324   6.025
11727SOL    HW235526   7.458   7.443   5.916
11728SOL     OW35527   5.613   7.182   5.703
11728SOL    HW135528   5.594   7.086   5.724
11728SOL    HW235529   5.580   7.240   5.778
11729SOL     OW35530   7.275   6.508   6.198
11729SOL    HW135531   7.370   6.479   6.206
11729SOL    HW235532   7.267   6.573   6.123
11730SOL     OW35533   7.227   6.694   6.018
11730SOL    HW135534   7.313   6.696   5.966
11730SOL    HW235535   7.241   6.741   6.106
11731SOL     OW35536   6.199   6.951   6.312
11731SOL    HW135537   6.150   6.864   6.321
11731SOL    HW235538   6.176   6.994   6.225
11732SOL     OW35539   6.395   5.590   6.088
11732SOL    HW135540   6.435   5.681   6.079
11732SOL    HW235541   6.295   5.598   6.094
11733SOL     OW35542   7.111   6.585   5.776
11733SOL    HW135543   7.048   6.509   5.789
11733SOL    HW235544   7.159   6.603   5.862
11734SOL     OW35545   7.253   7.300   6.158
11734SOL    HW135546   7.212   7.277   6.070
11734SOL    HW235547   7.235   7.226   6.223
11735SOL     OW35548   6.184   6.315   5.856
11735SOL    HW135549   6.208   6.384   5.788
11735SOL    HW235550   6.106   6.348   5.910
11736SOL     OW35551   7.162   7.248   5.893
11736SOL    HW135552   7.251   7.294   5.896
11736SOL    HW235553   7.141   7.224   5.798
11737SOL     OW35554   6.627   6.287   6.015
11737SOL    HW135555   6.653   6.283   6.111
11737SOL    HW235556   6.542   6.236   6.001
11738SOL     OW35557   5.662   6.397   6.375
11738SOL    HW135558   5.761   6.385   6.384
11738SOL    HW235559   5.638   6.492   6.396
11739SOL     OW35560   6.451   5.934   5.781
11739SOL    HW135561   6.510   5.997   5.732
11739SOL    HW235562   6.470   5.840   5.752
11740SOL     OW35563   6.948   6.730   6.131
11740SOL    HW135564   7.031   6.701   6.083
11740SOL    HW235565   6.899   6.797   6.075
11741SOL     OW35566   6.594   7.042   6.063
11741SOL    HW135567   6.548   7.114   6.011
11741SOL    HW235568   6.590   7.062   6.161
11742SOL     OW35569   5.937   7.387   6.439
11742SOL    HW135570   5.987   7.301   6.445
11742SOL    HW235571   6.002   7.464   6.436
11743SOL     OW35572   7.381   6.652   6.459
11743SOL    HW135573   7.319   6.637   6.383
11743SOL    HW235574   7.329   6.663   6.544
11744SOL     OW35575   5.907   6.529   5.828
11744SOL    HW135576   5.989   6.568   5.786
11744SOL    HW235577   5.880   6.447   5.779
11745SOL     OW35578   7.044   6.321   6.314
11745SOL    HW135579   7.039   6.256   6.389
11745SOL    HW235580   7.124   6.380   6.327
11746SOL     OW35581   7.218   6.963   5.667
11746SOL    HW135582   7.186   7.057   5.657
11746SOL    HW235583   7.142   6.900   5.655
11747SOL     OW35584   6.050   7.329   5.909
11747SOL    HW135585   6.083   7.368   5.995
11747SOL    HW235586   6.126   7.322   5.844
11748SOL     OW35587   6.986   5.693   6.012
11748SOL    HW135588   6.962   5.656   5.922
11748SOL    HW235589   7.085   5.709   6.016
11749SOL     OW35590   5.968   6.286   6.066
11749SOL    HW135591   6.013   6.196   6.063
11749SOL    HW235592   5.874   6.275   6.099
11750SOL     OW35593   6.200   5.708   5.703
11750SOL    HW135594   6.298   5.686   5.710
11750SOL    HW235595   6.169   5.691   5.610
11751SOL     OW35596   6.508   6.089   6.485
11751SOL    HW135597   6.483   6.080   6.389
11751SOL    HW235598   6.556   6.007   6.516
11752SOL     OW35599   6.125   5.650   6.098
11752SOL    HW135600   6.044   5.651   6.156
11752SOL    HW235601   6.128   5.733   6.043
11753SOL     OW35602   7.020   6.774   5.627
11753SOL    HW135603   7.052   6.698   5.684
11753SOL    HW235604   6.928   6.801   5.657
11754SOL     OW35605   5.883   5.621   5.757
11754SOL    HW135606   5.932   5.705   5.736
11754SOL    HW235607   5.945   5.556   5.802
11755SOL     OW35608   6.045   6.738   6.327
11755SOL    HW135609   5.974   6.711   6.392
11755SOL    HW235610   6.019   6.710   6.234
11756SOL     OW35611   6.618   6.135   5.602
11756SOL    HW135612   6.577   6.217   5.563
11756SOL    HW235613   6.682   6.161   5.675
11757SOL     OW35614   6.452   6.040   6.228
11757SOL    HW135615   6.420   6.112   6.166
11757SOL    HW235616   6.476   5.959   6.175
11758SOL     OW35617   6.603   5.625   6.339
11758SOL    HW135618   6.531   5.630   6.270
11758SOL    HW235619   6.579   5.556   6.408
11759SOL     OW35620   7.015   6.759   6.453
11759SOL    HW135621   6.960   6.675   6.446
11759SOL    HW235622   7.041   6.788   6.361
11760SOL     OW35623   7.443   6.419   5.963
11760SOL    HW135624   7.485   6.355   6.027
11760SOL    HW235625   7.405   6.368   5.885
11761SOL     OW35626   6.074   6.971   5.760
11761SOL    HW135627   5.987   6.956   5.807
11761SOL    HW235628   6.057   6.997   5.665
11762SOL     OW35629   7.250   6.866   6.243
11762SOL    HW135630   7.349   6.874   6.257
11762SOL    HW235631   7.205   6.950   6.274
11763SOL     OW35632   6.976   6.161   5.664
11763SOL    HW135633   6.922   6.140   5.745
11763SOL    HW235634   7.067   6.120   5.673
11764SOL     OW35635   6.113   5.842   5.914
11764SOL    HW135636   6.140   5.783   5.839
11764SOL    HW235637   6.113   5.937   5.883
11765SOL     OW35638   6.291   6.636   5.954
11765SOL    HW135639   6.277   6.643   6.053
11765SOL    HW235640   6.375   6.585   5.936
11766SOL     OW35641   5.953   6.686   6.087
11766SOL    HW135642   5.946   6.769   6.031
11766SOL    HW235643   5.957   6.606   6.027
11767SOL     OW35644   6.152   6.123   6.451
11767SOL    HW135645   6.164   6.189   6.377
11767SOL    HW235646   6.198   6.157   6.534
11768SOL     OW35647   6.838   6.934   5.974
11768SOL    HW135648   6.888   7.011   6.014
11768SOL    HW235649   6.743   6.936   6.006
11769SOL     OW35650   7.168   6.225   6.058
11769SOL    HW135651   7.137   6.286   6.131
11769SOL    HW235652   7.218   6.277   5.989
11770SOL     OW35653   6.159   6.456   6.615
11770SOL    HW135654   6.203   6.545   6.606
11770SOL    HW235655   6.096   6.456   6.692
11771SOL     OW35656   6.946   6.448   6.631
11771SOL    HW135657   6.871   6.448   6.565
11771SOL    HW235658   6.983   6.356   6.640
11772SOL     OW35659   6.795   6.111   5.861
11772SOL    HW135660   6.808   6.027   5.915
11772SOL    HW235661   6.766   6.185   5.921
11773SOL     OW35662   5.893   5.649   6.204
11773SOL    HW135663   5.882   5.743   6.237
11773SOL    HW235664   5.888   5.586   6.281
11774SOL     OW35665   7.208   5.953   5.960
11774SOL    HW135666   7.210   5.877   6.024
11774SOL    HW235667   7.160   6.030   6.000
11775SOL     OW35668   7.126   5.860   5.711
11775SOL    HW135669   7.065   5.785   5.734
11775SOL    HW235670   7.148   5.912   5.794
11776SOL     OW35671   6.889   6.424   5.628
11776SOL    HW135672   6.923   6.331   5.643
11776SOL    HW235673   6.907   6.451   5.533
11777SOL     OW35674   6.654   6.919   6.435
11777SOL    HW135675   6.661   6.835   6.380
11777SOL    HW235676   6.716   6.988   6.399
11778SOL     OW35677   5.905   6.396   6.535
11778SOL    HW135678   5.998   6.432   6.540
11778SOL    HW235679   5.899   6.311   6.587
11779SOL     OW35680   5.925   6.095   6.592
11779SOL    HW135681   5.873   6.012   6.575
11779SOL    HW235682   6.002   6.100   6.528
11780SOL     OW35683   5.594   6.912   5.786
11780SOL    HW135684   5.501   6.933   5.755
11780SOL    HW235685   5.604   6.813   5.799
11781SOL     OW35686   5.674   7.387   6.513
11781SOL    HW135687   5.632   7.301   6.486
11781SOL    HW235688   5.768   7.390   6.479
11782SOL     OW35689   6.401   6.158   5.911
11782SOL    HW135690   6.408   6.069   5.865
11782SOL    HW235691   6.307   6.192   5.903
11783SOL     OW35692   6.059   6.086   5.777
11783SOL    HW135693   6.120   6.166   5.781
11783SOL    HW235694   5.964   6.117   5.784
11784SOL     OW35695   6.888   6.441   5.895
11784SOL    HW135696   6.802   6.410   5.937
11784SOL    HW235697   6.884   6.427   5.796
11785SOL     OW35698   5.669   6.844   6.608
11785SOL    HW135699   5.664   6.843   6.708
11785SOL    HW235700   5.586   6.803   6.570
11786SOL     OW35701   7.312   5.721   6.109
11786SOL    HW135702   7.385   5.704   6.042
11786SOL    HW235703   7.281   5.634   6.147
11787SOL     OW35704   6.974   7.159   6.063
11787SOL    HW135705   7.041   7.171   5.989
11787SOL    HW235706   6.934   7.248   6.086
11788SOL     OW35707   6.866   6.513   6.258
11788SOL    HW135708   6.926   6.432   6.260
11788SOL    HW235709   6.906   6.582   6.198
11789SOL     OW35710   6.258   7.202   5.740
11789SOL    HW135711   6.267   7.212   5.641
11789SOL    HW235712   6.218   7.113   5.761
11790SOL     OW35713   7.427   5.761   6.549
11790SOL    HW135714   7.466   5.676   6.513
11790SOL    HW235715   7.329   5.763   6.530
11791SOL     OW35716   5.849   5.912   6.306
11791SOL    HW135717   5.770   5.963   6.272
11791SOL    HW235718   5.840   5.897   6.404
11792SOL     OW35719   6.780   7.198   5.617
11792SOL    HW135720   6.786   7.105   5.654
11792SOL    HW235721   6.721   7.198   5.537
11793SOL     OW35722   6.502   6.496   5.877
11793SOL    HW135723   6.565   6.534   5.809
11793SOL    HW235724   6.542   6.413   5.916
11794SOL     OW35725   7.090   7.193   5.630
11794SOL    HW135726   6.998   7.230   5.637
11794SOL    HW235727   7.128   7.213   5.540
11795SOL     OW35728   6.625   6.684   6.282
11795SOL    HW135729   6.555   6.637   6.336
11795SOL    HW235730   6.684   6.616   6.239
11796SOL     OW35731   6.176   7.073   6.077
11796SOL    HW135732   6.218   7.015   6.007
11796SOL    HW235733   6.132   7.152   6.033
11797SOL     OW35734   5.841   6.934   5.876
11797SOL    HW135735   5.745   6.935   5.849
11797SOL    HW235736   5.853   6.987   5.960
11798SOL     OW35737   5.661   5.931   5.619
11798SOL    HW135738   5.569   5.903   5.590
11798SOL    HW235739   5.692   6.008   5.563
11799SOL     OW35740   5.658   5.752   5.904
11799SOL    HW135741   5.641   5.835   5.850
11799SOL    HW235742   5.748   5.715   5.882
11800SOL     OW35743   6.769   6.921   5.705
11800SOL    HW135744   6.670   6.910   5.707
11800SOL    HW235745   6.803   6.936   5.798
11801SOL     OW35746   6.811   5.911   6.035
11801SOL    HW135747   6.876   5.837   6.024
11801SOL    HW235748   6.831   5.961   6.119
11802SOL     OW35749   6.180   6.331   6.238
11802SOL    HW135750   6.230   6.416   6.219
11802SOL    HW235751   6.092   6.333   6.190
11803SOL     OW35752   6.445   6.960   5.602
11803SOL    HW135753   6.399   6.975   5.690
11803SOL    HW235754   6.489   7.045   5.572
11804SOL     OW35755   6.247   7.376   6.539
11804SOL    HW135756   6.201   7.464   6.526
11804SOL    HW235757   6.346   7.388   6.532
11805SOL     OW35758   6.669   6.570   5.673
11805SOL    HW135759   6.646   6.623   5.591
11805SOL    HW235760   6.750   6.514   5.654
11806SOL     OW35761   7.447   7.155   6.437
11806SOL    HW135762   7.376   7.143   6.367
11806SOL    HW235763   7.448   7.076   6.497
11807SOL     OW35764   5.665   6.826   6.239
11807SOL    HW135765   5.664   6.779   6.327
11807SOL    HW235766   5.747   6.798   6.188
11808SOL     OW35767   6.014   6.010   6.106
11808SOL    HW135768   6.044   5.938   6.044
11808SOL    HW235769   5.975   5.970   6.189
11809SOL     OW35770   5.903   6.133   6.866
11809SOL    HW135771   5.941   6.074   6.938
11809SOL    HW235772   5.943   6.107   6.778
11810SOL     OW35773   6.398   7.172   6.273
11810SOL    HW135774   6.430   7.182   6.179
11810SOL    HW235775   6.319   7.110   6.275
11811SOL     OW35776   6.356   6.916   5.887
11811SOL    HW135777   6.310   6.829   5.904
11811SOL    HW235778   6.447   6.913   5.928
11812SOL     OW35779   6.938   5.638   5.754
11812SOL    HW135780   6.973   5.597   5.670
11812SOL    HW235781   6.848   5.600   5.774
11813SOL     OW35782   6.886   6.039   6.277
11813SOL    HW135783   6.827   6.119   6.281
11813SOL    HW235784   6.901   6.004   6.370
11814SOL     OW35785   5.625   6.663   5.886
11814SOL    HW135786   5.724   6.652   5.877
11814SOL    HW235787   5.585   6.577   5.918
11815SOL     OW35788   6.461   7.232   5.923
11815SOL    HW135789   6.384   7.197   5.869
11815SOL    HW235790   6.429   7.303   5.985
11816SOL     OW35791   6.395   7.452   0.502
11816SOL    HW135792   6.435   7.543   0.493
11816SOL    HW235793   6.295   7.460   0.508
11817SOL     OW35794   6.367   7.712   1.749
11817SOL    HW135795   6.434   7.651   1.792
11817SOL    HW235796   6.294   7.731   1.814
11818SOL     OW35797   6.113   7.704   0.328
11818SOL    HW135798   6.140   7.645   0.253
11818SOL    HW235799   6.113   7.799   0.297
11819SOL     OW35800   6.501   7.537   1.402
11819SOL    HW135801   6.526   7.517   1.307
11819SOL    HW235802   6.573   7.593   1.444
11820SOL     OW35803   6.599   7.553   1.770
11820SOL    HW135804   6.605   7.638   1.718
11820SOL    HW235805   6.631   7.477   1.713
11821SOL     OW35806   5.893   7.511   0.618
11821SOL    HW135807   5.882   7.605   0.651
11821SOL    HW235808   5.888   7.448   0.695
11822SOL     OW35809   6.746   7.655   1.477
11822SOL    HW135810   6.746   7.719   1.554
11822SOL    HW235811   6.774   7.703   1.394
11823SOL     OW35812   5.849   7.774   0.720
11823SOL    HW135813   5.770   7.825   0.686
11823SOL    HW235814   5.840   7.759   0.818
11824SOL     OW35815   6.587   7.482   1.154
11824SOL    HW135816   6.524   7.410   1.123
11824SOL    HW235817   6.680   7.446   1.154
11825SOL     OW35818   7.179   7.669   0.882
11825SOL    HW135819   7.095   7.668   0.936
11825SOL    HW235820   7.181   7.752   0.826
11826SOL     OW35821   6.395   7.452   2.364
11826SOL    HW135822   6.435   7.543   2.355
11826SOL    HW235823   6.295   7.460   2.370
11827SOL     OW35824   6.200   7.570   1.979
11827SOL    HW135825   6.298   7.548   1.986
11827SOL    HW235826   6.169   7.553   1.886
11828SOL     OW35827   6.367   7.712   3.611
11828SOL    HW135828   6.434   7.651   3.654
11828SOL    HW235829   6.294   7.731   3.676
11829SOL     OW35830   6.501   7.537   3.264
11829SOL    HW135831   6.526   7.517   3.169
11829SOL    HW235832   6.573   7.593   3.306
11830SOL     OW35833   6.599   7.553   3.632
11830SOL    HW135834   6.605   7.638   3.580
11830SOL    HW235835   6.631   7.477   3.575
11831SOL     OW35836   5.893   7.511   2.480
11831SOL    HW135837   5.882   7.605   2.513
11831SOL    HW235838   5.888   7.448   2.557
11832SOL     OW35839   6.746   7.655   3.339
11832SOL    HW135840   6.746   7.719   3.416
11832SOL    HW235841   6.774   7.703   3.256
11833SOL     OW35842   5.849   7.774   2.582
11833SOL    HW135843   5.770   7.825   2.548
11833SOL    HW235844   5.840   7.759   2.680
11834SOL     OW35845   5.661   7.793   1.895
11834SOL    HW135846   5.569   7.765   1.866
11834SOL    HW235847   5.692   7.870   1.839
11835SOL     OW35848   6.587   7.482   3.016
11835SOL    HW135849   6.524   7.410   2.985
11835SOL    HW235850   6.680   7.446   3.016
11836SOL     OW35851   7.179   7.669   2.744
11836SOL    HW135852   7.095   7.668   2.798
11836SOL    HW235853   7.181   7.752   2.688
11837SOL     OW35854   6.395   7.452   4.226
11837SOL    HW135855   6.435   7.543   4.217
11837SOL    HW235856   6.295   7.460   4.232
11838SOL     OW35857   6.200   7.570   3.841
11838SOL    HW135858   6.298   7.548   3.848
11838SOL    HW235859   6.169   7.553   3.748
11839SOL     OW35860   6.367   7.712   5.473
11839SOL    HW135861   6.434   7.651   5.516
11839SOL    HW235862   6.294   7.731   5.538
11840SOL     OW35863   6.501   7.537   5.126
11840SOL    HW135864   6.526   7.517   5.031
11840SOL    HW235865   6.573   7.593   5.168
11841SOL     OW35866   6.599   7.553   5.494
11841SOL    HW135867   6.605   7.638   5.442
11841SOL    HW235868   6.631   7.477   5.437
11842SOL     OW35869   5.893   7.511   4.342
11842SOL    HW135870   5.882   7.605   4.375
11842SOL    HW235871   5.888   7.448   4.419
11843SOL     OW35872   6.746   7.655   5.201
11843SOL    HW135873   6.746   7.719   5.278
11843SOL    HW235874   6.774   7.703   5.118
11844SOL     OW35875   5.849   7.774   4.444
11844SOL    HW135876   5.770   7.825   4.410
11844SOL    HW235877   5.840   7.759   4.542
11845SOL     OW35878   5.661   7.793   3.757
11845SOL    HW135879   5.569   7.765   3.728
11845SOL    HW235880   5.692   7.870   3.701
11846SOL     OW35881   6.587   7.482   4.878
11846SOL    HW135882   6.524   7.410   4.847
11846SOL    HW235883   6.680   7.446   4.878
11847SOL     OW35884   7.179   7.669   4.606
11847SOL    HW135885   7.095   7.668   4.660
11847SOL    HW235886   7.181   7.752   4.550
11848SOL     OW35887   6.395   7.452   6.088
11848SOL    HW135888   6.435   7.543   6.079
11848SOL    HW235889   6.295   7.460   6.094
11849SOL     OW35890   6.200   7.570   5.703
11849SOL    HW135891   6.298   7.548   5.710
11849SOL    HW235892   6.169   7.553   5.610
11850SOL     OW35893   5.893   7.511   6.204
11850SOL    HW135894   5.882   7.605   6.237
11850SOL    HW235895   5.888   7.448   6.281
11851SOL     OW35896   7.427   7.623   6.549
11851SOL    HW135897   7.466   7.538   6.513
11851SOL    HW235898   7.329   7.625   6.530
11852SOL     OW35899   5.849   7.774   6.306
11852SOL    HW135900   5.770   7.825   6.272
11852SOL    HW235901   5.840   7.759   6.404
11853SOL     OW35902   5.661   7.793   5.619
11853SOL    HW135903   5.569   7.765   5.590
11853SOL    HW235904   5.692   7.870   5.563
11854SOL     OW35905   7.783   1.435   1.061
11854SOL    HW135906   7.705   1.404   1.008
11854SOL    HW235907   7.841   1.493   1.004
11855SOL     OW35908   7.679   1.713   0.483
11855SOL    HW135909   7.713   1.790   0.537
11855SOL    HW235910   7.723   1.713   0.393
11856SOL     OW35911   7.678   1.434   0.538
11856SOL    HW135912   7.652   1.530   0.538
11856SOL    HW235913   7.607   1.380   0.583
11857SOL     OW35914   7.688   1.091   0.886
11857SOL    HW135915   7.702   1.007   0.938
11857SOL    HW235916   7.633   1.155   0.941
11858SOL     OW35917   7.570   0.643   0.563
11858SOL    HW135918   7.525   0.555   0.580
11858SOL    HW235919   7.569   0.697   0.647
11859SOL     OW35920   7.561   0.737   1.597
11859SOL    HW135921   7.649   0.724   1.642
11859SOL    HW235922   7.548   0.834   1.575
11860SOL     OW35923   7.645   0.976   1.264
11860SOL    HW135924   7.734   0.931   1.250
11860SOL    HW235925   7.572   0.911   1.245
11861SOL     OW35926   7.524   0.811   0.789
11861SOL    HW135927   7.623   0.799   0.798
11861SOL    HW235928   7.500   0.906   0.810
11862SOL     OW35929   7.578   1.821   1.571
11862SOL    HW135930   7.568   1.806   1.670
11862SOL    HW235931   7.492   1.857   1.535
11863SOL     OW35932   7.998   0.196   0.885
11863SOL    HW135933   7.993   0.191   0.985
11863SOL    HW235934   8.000   0.292   0.856
11864SOL     OW35935   7.799   1.801   0.853
11864SOL    HW135936   7.849   1.715   0.859
11864SOL    HW235937   7.864   1.878   0.850
11865SOL     OW35938   7.909   1.266   1.727
11865SOL    HW135939   7.859   1.267   1.641
11865SOL    HW235940   7.846   1.248   1.803
11866SOL     OW35941   7.697   1.785   1.241
11866SOL    HW135942   7.754   1.720   1.291
11866SOL    HW235943   7.681   1.752   1.148
11867SOL     OW35944   7.907   1.152   0.741
11867SOL    HW135945   7.836   1.125   0.806
11867SOL    HW235946   7.881   1.124   0.648
11868SOL     OW35947   7.526   0.556   1.386
11868SOL    HW135948   7.618   0.555   1.345
11868SOL    HW235949   7.520   0.630   1.453
11869SOL     OW35950   8.009   0.222   1.147
11869SOL    HW135951   8.047   0.138   1.184
11869SOL    HW235952   7.921   0.241   1.191
11870SOL     OW35953   7.858   0.813   1.251
11870SOL    HW135954   7.944   0.825   1.301
11870SOL    HW235955   7.816   0.726   1.278
11871SOL     OW35956   7.512   1.564   1.331
11871SOL    HW135957   7.466   1.646   1.297
11871SOL    HW235958   7.610   1.583   1.340
11872SOL     OW35959   7.815   1.100   0.501
11872SOL    HW135960   7.808   1.183   0.445
11872SOL    HW235961   7.819   1.020   0.441
11873SOL     OW35962   8.014   0.537   0.865
11873SOL    HW135963   8.026   0.603   0.791
11873SOL    HW235964   8.060   0.571   0.948
11874SOL     OW35965   7.802   1.510   1.329
11874SOL    HW135966   7.781   1.466   1.242
11874SOL    HW235967   7.899   1.536   1.332
11875SOL     OW35968   7.850   0.751   1.598
11875SOL    HW135969   7.918   0.806   1.551
11875SOL    HW235970   7.890   0.663   1.625
11876SOL     OW35971   8.021   0.870   1.029
11876SOL    HW135972   8.065   0.959   1.020
11876SOL    HW235973   7.958   0.870   1.106
11877SOL     OW35974   7.485   1.310   1.282
11877SOL    HW135975   7.538   1.261   1.350
11877SOL    HW235976   7.507   1.408   1.287
11878SOL     OW35977   7.798   0.898   1.804
11878SOL    HW135978   7.874   0.942   1.852
11878SOL    HW235979   7.833   0.851   1.722
11879SOL     OW35980   7.767   0.810   0.949
11879SOL    HW135981   7.860   0.846   0.954
11879SOL    HW235982   7.761   0.725   1.001
11880SOL     OW35983   7.787   0.509   1.006
11880SOL    HW135984   7.735   0.426   0.989
11880SOL    HW235985   7.864   0.514   0.942
11881SOL     OW35986   7.536   1.801   0.927
11881SOL    HW135987   7.494   1.715   0.900
11881SOL    HW235988   7.630   1.804   0.893
11882SOL     OW35989   7.488   0.544   1.114
11882SOL    HW135990   7.573   0.511   1.073
11882SOL    HW235991   7.501   0.559   1.212
11883SOL     OW35992   7.700   1.564   1.744
11883SOL    HW135993   7.670   1.621   1.820
11883SOL    HW235994   7.693   1.467   1.770
11884SOL     OW35995   7.607   1.137   1.466
11884SOL    HW135996   7.629   1.076   1.542
11884SOL    HW235997   7.617   1.088   1.380
11885SOL     OW35998   7.531   1.258   1.022
11885SOL    HW135999   7.526   1.257   1.122
11885SOL    HW236000   7.448   1.217   0.984
11886SOL     OW36001   7.578   1.794   1.851
11886SOL    HW136002   7.537   1.720   1.904
11886SOL    HW236003   7.642   1.845   1.909
11887SOL     OW36004   7.820   1.288   1.490
11887SOL    HW136005   7.807   1.381   1.456
11887SOL    HW236006   7.736   1.236   1.477
11888SOL     OW36007   8.038   1.487   0.491
11888SOL    HW136008   8.080   1.429   0.421
11888SOL    HW236009   7.994   1.566   0.447
11889SOL     OW36010   7.553   1.013   1.726
11889SOL    HW136011   7.476   0.980   1.780
11889SOL    HW236012   7.638   0.983   1.768
11890SOL     OW36013   7.838   1.741   1.560
11890SOL    HW136014   7.747   1.782   1.558
11890SOL    HW236015   7.831   1.647   1.592
11891SOL     OW36016   7.669   1.314   1.844
11891SOL    HW136017   7.604   1.241   1.823
11891SOL    HW236018   7.673   1.328   1.942
11892SOL     OW36019   7.527   1.240   0.653
11892SOL    HW136020   7.526   1.193   0.741
11892SOL    HW236021   7.609   1.212   0.602
11893SOL     OW36022   8.120   1.391   1.624
11893SOL    HW136023   8.042   1.341   1.662
11893SOL    HW236024   8.117   1.486   1.655
11894SOL     OW36025   7.765   0.547   1.280
11894SOL    HW136026   7.803   0.488   1.352
11894SOL    HW236027   7.805   0.521   1.192
11895SOL     OW36028   7.678   0.628   1.975
11895SOL    HW136029   7.585   0.626   2.012
11895SOL    HW236030   7.679   0.589   1.883
11896SOL     OW36031   7.783   1.435   2.923
11896SOL    HW136032   7.705   1.404   2.870
11896SOL    HW236033   7.841   1.493   2.866
11897SOL     OW36034   7.679   1.713   2.345
11897SOL    HW136035   7.713   1.790   2.399
11897SOL    HW236036   7.723   1.713   2.255
11898SOL     OW36037   7.678   1.434   2.400
11898SOL    HW136038   7.652   1.530   2.400
11898SOL    HW236039   7.607   1.380   2.445
11899SOL     OW36040   7.688   1.091   2.748
11899SOL    HW136041   7.702   1.007   2.800
11899SOL    HW236042   7.633   1.155   2.803
11900SOL     OW36043   7.570   0.643   2.425
11900SOL    HW136044   7.525   0.555   2.442
11900SOL    HW236045   7.569   0.697   2.509
11901SOL     OW36046   7.475   1.596   1.979
11901SOL    HW136047   7.456   1.500   2.000
11901SOL    HW236048   7.442   1.654   2.054
11902SOL     OW36049   7.561   0.737   3.459
11902SOL    HW136050   7.649   0.724   3.504
11902SOL    HW236051   7.548   0.834   3.437
11903SOL     OW36052   7.645   0.976   3.126
11903SOL    HW136053   7.734   0.931   3.112
11903SOL    HW236054   7.572   0.911   3.107
11904SOL     OW36055   8.046   0.729   2.132
11904SOL    HW136056   8.070   0.798   2.064
11904SOL    HW236057   7.968   0.762   2.186
11905SOL     OW36058   7.524   0.811   2.651
11905SOL    HW136059   7.623   0.799   2.660
11905SOL    HW236060   7.500   0.906   2.672
11906SOL     OW36061   7.578   1.821   3.433
11906SOL    HW136062   7.568   1.806   3.532
11906SOL    HW236063   7.492   1.857   3.397
11907SOL     OW36064   7.998   0.196   2.747
11907SOL    HW136065   7.993   0.191   2.847
11907SOL    HW236066   8.000   0.292   2.718
11908SOL     OW36067   7.799   1.801   2.715
11908SOL    HW136068   7.849   1.715   2.721
11908SOL    HW236069   7.864   1.878   2.712
11909SOL     OW36070   7.769   0.943   2.104
11909SOL    HW136071   7.851   0.982   2.062
11909SOL    HW236072   7.742   0.861   2.055
11910SOL     OW36073   7.909   1.266   3.589
11910SOL    HW136074   7.859   1.267   3.503
11910SOL    HW236075   7.846   1.248   3.665
11911SOL     OW36076   7.697   1.785   3.103
11911SOL    HW136077   7.754   1.720   3.153
11911SOL    HW236078   7.681   1.752   3.010
11912SOL     OW36079   7.830   0.700   2.342
11912SOL    HW136080   7.875   0.610   2.339
11912SOL    HW236081   7.736   0.689   2.375
11913SOL     OW36082   7.907   1.152   2.603
11913SOL    HW136083   7.836   1.125   2.668
11913SOL    HW236084   7.881   1.124   2.510
11914SOL     OW36085   7.526   0.556   3.248
11914SOL    HW136086   7.618   0.555   3.207
11914SOL    HW236087   7.520   0.630   3.315
11915SOL     OW36088   8.009   0.222   3.009
11915SOL    HW136089   8.047   0.138   3.046
11915SOL    HW236090   7.921   0.241   3.053
11916SOL     OW36091   7.858   0.813   3.113
11916SOL    HW136092   7.944   0.825   3.163
11916SOL    HW236093   7.816   0.726   3.140
11917SOL     OW36094   7.512   1.564   3.193
11917SOL    HW136095   7.466   1.646   3.159
11917SOL    HW236096   7.610   1.583   3.202
11918SOL     OW36097   7.815   1.100   2.363
11918SOL    HW136098   7.808   1.183   2.307
11918SOL    HW236099   7.819   1.020   2.303
11919SOL     OW36100   8.014   0.537   2.727
11919SOL    HW136101   8.026   0.603   2.653
11919SOL    HW236102   8.060   0.571   2.810
11920SOL     OW36103   7.802   1.510   3.191
11920SOL    HW136104   7.781   1.466   3.104
11920SOL    HW236105   7.899   1.536   3.194
11921SOL     OW36106   7.850   0.751   3.460
11921SOL    HW136107   7.918   0.806   3.413
11921SOL    HW236108   7.890   0.663   3.487
11922SOL     OW36109   8.021   0.870   2.891
11922SOL    HW136110   8.065   0.959   2.882
11922SOL    HW236111   7.958   0.870   2.968
11923SOL     OW36112   7.485   1.310   3.144
11923SOL    HW136113   7.538   1.261   3.212
11923SOL    HW236114   7.507   1.408   3.149
11924SOL     OW36115   7.798   0.898   3.666
11924SOL    HW136116   7.874   0.942   3.714
11924SOL    HW236117   7.833   0.851   3.584
11925SOL     OW36118   7.767   0.810   2.811
11925SOL    HW136119   7.860   0.846   2.816
11925SOL    HW236120   7.761   0.725   2.863
11926SOL     OW36121   7.787   0.509   2.868
11926SOL    HW136122   7.735   0.426   2.851
11926SOL    HW236123   7.864   0.514   2.804
11927SOL     OW36124   7.456   1.326   2.062
11927SOL    HW136125   7.363   1.347   2.031
11927SOL    HW236126   7.466   1.227   2.075
11928SOL     OW36127   7.536   1.801   2.789
11928SOL    HW136128   7.494   1.715   2.762
11928SOL    HW236129   7.630   1.804   2.755
11929SOL     OW36130   7.488   0.544   2.976
11929SOL    HW136131   7.573   0.511   2.935
11929SOL    HW236132   7.501   0.559   3.074
11930SOL     OW36133   7.637   0.520   3.584
11930SOL    HW136134   7.696   0.480   3.514
11930SOL    HW236135   7.579   0.591   3.543
11931SOL     OW36136   7.700   1.564   3.606
11931SOL    HW136137   7.670   1.621   3.682
11931SOL    HW236138   7.693   1.467   3.632
11932SOL     OW36139   7.921   0.500   2.053
11932SOL    HW136140   7.982   0.580   2.057
11932SOL    HW236141   7.826   0.531   2.060
11933SOL     OW36142   7.607   1.137   3.328
11933SOL    HW136143   7.629   1.076   3.404
11933SOL    HW236144   7.617   1.088   3.242
11934SOL     OW36145   7.531   1.258   2.884
11934SOL    HW136146   7.526   1.257   2.984
11934SOL    HW236147   7.448   1.217   2.846
11935SOL     OW36148   7.578   1.794   3.713
11935SOL    HW136149   7.537   1.720   3.766
11935SOL    HW236150   7.642   1.845   3.771
11936SOL     OW36151   7.820   1.288   3.352
11936SOL    HW136152   7.807   1.381   3.318
11936SOL    HW236153   7.736   1.236   3.339
11937SOL     OW36154   8.038   1.487   2.353
11937SOL    HW136155   8.080   1.429   2.283
11937SOL    HW236156   7.994   1.566   2.309
11938SOL     OW36157   7.703   1.348   2.152
11938SOL    HW136158   7.607   1.349   2.125
11938SOL    HW236159   7.715   1.401   2.236
11939SOL     OW36160   7.553   1.013   3.588
11939SOL    HW136161   7.476   0.980   3.642
11939SOL    HW236162   7.638   0.983   3.630
11940SOL     OW36163   7.838   1.741   3.422
11940SOL    HW136164   7.747   1.782   3.420
11940SOL    HW236165   7.831   1.647   3.454
11941SOL     OW36166   7.669   1.314   3.706
11941SOL    HW136167   7.604   1.241   3.685
11941SOL    HW236168   7.673   1.328   3.804
11942SOL     OW36169   7.527   1.240   2.515
11942SOL    HW136170   7.526   1.193   2.603
11942SOL    HW236171   7.609   1.212   2.464
11943SOL     OW36172   8.120   1.391   3.486
11943SOL    HW136173   8.042   1.341   3.524
11943SOL    HW236174   8.117   1.486   3.517
11944SOL     OW36175   7.765   0.547   3.142
11944SOL    HW136176   7.803   0.488   3.214
11944SOL    HW236177   7.805   0.521   3.054
11945SOL     OW36178   7.487   1.077   2.162
11945SOL    HW136179   7.586   1.066   2.153
11945SOL    HW236180   7.447   0.991   2.194
11946SOL     OW36181   7.678   0.628   3.837
11946SOL    HW136182   7.585   0.626   3.874
11946SOL    HW236183   7.679   0.589   3.745
11947SOL     OW36184   7.783   1.435   4.785
11947SOL    HW136185   7.705   1.404   4.732
11947SOL    HW236186   7.841   1.493   4.728
11948SOL     OW36187   7.679   1.713   4.207
11948SOL    HW136188   7.713   1.790   4.261
11948SOL    HW236189   7.723   1.713   4.117
11949SOL     OW36190   7.678   1.434   4.262
11949SOL    HW136191   7.652   1.530   4.262
11949SOL    HW236192   7.607   1.380   4.307
11950SOL     OW36193   7.688   1.091   4.610
11950SOL    HW136194   7.702   1.007   4.662
11950SOL    HW236195   7.633   1.155   4.665
11951SOL     OW36196   7.570   0.643   4.287
11951SOL    HW136197   7.525   0.555   4.304
11951SOL    HW236198   7.569   0.697   4.371
11952SOL     OW36199   7.475   1.596   3.841
11952SOL    HW136200   7.456   1.500   3.862
11952SOL    HW236201   7.442   1.654   3.916
11953SOL     OW36202   7.561   0.737   5.321
11953SOL    HW136203   7.649   0.724   5.366
11953SOL    HW236204   7.548   0.834   5.299
11954SOL     OW36205   7.645   0.976   4.988
11954SOL    HW136206   7.734   0.931   4.974
11954SOL    HW236207   7.572   0.911   4.969
11955SOL     OW36208   8.046   0.729   3.994
11955SOL    HW136209   8.070   0.798   3.926
11955SOL    HW236210   7.968   0.762   4.048
11956SOL     OW36211   7.524   0.811   4.513
11956SOL    HW136212   7.623   0.799   4.522
11956SOL    HW236213   7.500   0.906   4.534
11957SOL     OW36214   7.578   1.821   5.295
11957SOL    HW136215   7.568   1.806   5.394
11957SOL    HW236216   7.492   1.857   5.259
11958SOL     OW36217   7.998   0.196   4.609
11958SOL    HW136218   7.993   0.191   4.709
11958SOL    HW236219   8.000   0.292   4.580
11959SOL     OW36220   7.799   1.801   4.577
11959SOL    HW136221   7.849   1.715   4.583
11959SOL    HW236222   7.864   1.878   4.574
11960SOL     OW36223   7.769   0.943   3.966
11960SOL    HW136224   7.851   0.982   3.924
11960SOL    HW236225   7.742   0.861   3.917
11961SOL     OW36226   7.909   1.266   5.451
11961SOL    HW136227   7.859   1.267   5.365
11961SOL    HW236228   7.846   1.248   5.527
11962SOL     OW36229   7.697   1.785   4.965
11962SOL    HW136230   7.754   1.720   5.015
11962SOL    HW236231   7.681   1.752   4.872
11963SOL     OW36232   7.830   0.700   4.204
11963SOL    HW136233   7.875   0.610   4.201
11963SOL    HW236234   7.736   0.689   4.237
11964SOL     OW36235   7.907   1.152   4.465
11964SOL    HW136236   7.836   1.125   4.530
11964SOL    HW236237   7.881   1.124   4.372
11965SOL     OW36238   7.526   0.556   5.110
11965SOL    HW136239   7.618   0.555   5.069
11965SOL    HW236240   7.520   0.630   5.177
11966SOL     OW36241   8.009   0.222   4.871
11966SOL    HW136242   8.047   0.138   4.908
11966SOL    HW236243   7.921   0.241   4.915
11967SOL     OW36244   7.858   0.813   4.975
11967SOL    HW136245   7.944   0.825   5.025
11967SOL    HW236246   7.816   0.726   5.002
11968SOL     OW36247   7.512   1.564   5.055
11968SOL    HW136248   7.466   1.646   5.021
11968SOL    HW236249   7.610   1.583   5.064
11969SOL     OW36250   7.815   1.100   4.225
11969SOL    HW136251   7.808   1.183   4.169
11969SOL    HW236252   7.819   1.020   4.165
11970SOL     OW36253   8.014   0.537   4.589
11970SOL    HW136254   8.026   0.603   4.515
11970SOL    HW236255   8.060   0.571   4.672
11971SOL     OW36256   7.802   1.510   5.053
11971SOL    HW136257   7.781   1.466   4.966
11971SOL    HW236258   7.899   1.536   5.056
11972SOL     OW36259   7.850   0.751   5.322
11972SOL    HW136260   7.918   0.806   5.275
11972SOL    HW236261   7.890   0.663   5.349
11973SOL     OW36262   8.021   0.870   4.753
11973SOL    HW136263   8.065   0.959   4.744
11973SOL    HW236264   7.958   0.870   4.830
11974SOL     OW36265   7.485   1.310   5.006
11974SOL    HW136266   7.538   1.261   5.074
11974SOL    HW236267   7.507   1.408   5.011
11975SOL     OW36268   7.798   0.898   5.528
11975SOL    HW136269   7.874   0.942   5.576
11975SOL    HW236270   7.833   0.851   5.446
11976SOL     OW36271   7.767   0.810   4.673
11976SOL    HW136272   7.860   0.846   4.678
11976SOL    HW236273   7.761   0.725   4.725
11977SOL     OW36274   7.787   0.509   4.730
11977SOL    HW136275   7.735   0.426   4.713
11977SOL    HW236276   7.864   0.514   4.666
11978SOL     OW36277   7.456   1.326   3.924
11978SOL    HW136278   7.363   1.347   3.893
11978SOL    HW236279   7.466   1.227   3.937
11979SOL     OW36280   7.536   1.801   4.651
11979SOL    HW136281   7.494   1.715   4.624
11979SOL    HW236282   7.630   1.804   4.617
11980SOL     OW36283   7.488   0.544   4.838
11980SOL    HW136284   7.573   0.511   4.797
11980SOL    HW236285   7.501   0.559   4.936
11981SOL     OW36286   7.637   0.520   5.446
11981SOL    HW136287   7.696   0.480   5.376
11981SOL    HW236288   7.579   0.591   5.405
11982SOL     OW36289   7.700   1.564   5.468
11982SOL    HW136290   7.670   1.621   5.544
11982SOL    HW236291   7.693   1.467   5.494
11983SOL     OW36292   7.921   0.500   3.915
11983SOL    HW136293   7.982   0.580   3.919
11983SOL    HW236294   7.826   0.531   3.922
11984SOL     OW36295   7.607   1.137   5.190
11984SOL    HW136296   7.629   1.076   5.266
11984SOL    HW236297   7.617   1.088   5.104
11985SOL     OW36298   7.531   1.258   4.746
11985SOL    HW136299   7.526   1.257   4.846
11985SOL    HW236300   7.448   1.217   4.708
11986SOL     OW36301   7.578   1.794   5.575
11986SOL    HW136302   7.537   1.720   5.628
11986SOL    HW236303   7.642   1.845   5.633
11987SOL     OW36304   7.820   1.288   5.214
11987SOL    HW136305   7.807   1.381   5.180
11987SOL    HW236306   7.736   1.236   5.201
11988SOL     OW36307   8.038   1.487   4.215
11988SOL    HW136308   8.080   1.429   4.145
11988SOL    HW236309   7.994   1.566   4.171
11989SOL     OW36310   7.703   1.348   4.014
11989SOL    HW136311   7.607   1.349   3.987
11989SOL    HW236312   7.715   1.401   4.098
11990SOL     OW36313   7.553   1.013   5.450
11990SOL    HW136314   7.476   0.980   5.504
11990SOL    HW236315   7.638   0.983   5.492
11991SOL     OW36316   7.838   1.741   5.284
11991SOL    HW136317   7.747   1.782   5.282
11991SOL    HW236318   7.831   1.647   5.316
11992SOL     OW36319   7.669   1.314   5.568
11992SOL    HW136320   7.604   1.241   5.547
11992SOL    HW236321   7.673   1.328   5.666
11993SOL     OW36322   7.527   1.240   4.377
11993SOL    HW136323   7.526   1.193   4.465
11993SOL    HW236324   7.609   1.212   4.326
11994SOL     OW36325   8.120   1.391   5.348
11994SOL    HW136326   8.042   1.341   5.386
11994SOL    HW236327   8.117   1.486   5.379
11995SOL     OW36328   7.765   0.547   5.004
11995SOL    HW136329   7.803   0.488   5.076
11995SOL    HW236330   7.805   0.521   4.916
11996SOL     OW36331   7.487   1.077   4.024
11996SOL    HW136332   7.586   1.066   4.015
11996SOL    HW236333   7.447   0.991   4.056
11997SOL     OW36334   7.678   0.628   5.699
11997SOL    HW136335   7.585   0.626   5.736
11997SOL    HW236336   7.679   0.589   5.607
11998SOL     OW36337   7.679   1.713   6.069
11998SOL    HW136338   7.713   1.790   6.123
11998SOL    HW236339   7.723   1.713   5.979
11999SOL     OW36340   7.678   1.434   6.124
11999SOL    HW136341   7.652   1.530   6.124
11999SOL    HW236342   7.607   1.380   6.169
12000SOL     OW36343   7.570   0.643   6.149
12000SOL    HW136344   7.525   0.555   6.166
12000SOL    HW236345   7.569   0.697   6.233
12001SOL     OW36346   7.475   1.596   5.703
12001SOL    HW136347   7.456   1.500   5.724
12001SOL    HW236348   7.442   1.654   5.778
12002SOL     OW36349   8.046   0.729   5.856
12002SOL    HW136350   8.070   0.798   5.788
12002SOL    HW236351   7.968   0.762   5.910
12003SOL     OW36352   7.998   0.196   6.471
12003SOL    HW136353   7.993   0.191   6.571
12003SOL    HW236354   8.000   0.292   6.442
12004SOL     OW36355   7.799   1.801   6.439
12004SOL    HW136356   7.849   1.715   6.445
12004SOL    HW236357   7.864   1.878   6.436
12005SOL     OW36358   7.769   0.943   5.828
12005SOL    HW136359   7.851   0.982   5.786
12005SOL    HW236360   7.742   0.861   5.779
12006SOL     OW36361   7.830   0.700   6.066
12006SOL    HW136362   7.875   0.610   6.063
12006SOL    HW236363   7.736   0.689   6.099
12007SOL     OW36364   7.907   1.152   6.327
12007SOL    HW136365   7.836   1.125   6.392
12007SOL    HW236366   7.881   1.124   6.234
12008SOL     OW36367   8.009   0.222   6.733
12008SOL    HW136368   8.047   0.138   6.770
12008SOL    HW236369   7.921   0.241   6.777
12009SOL     OW36370   7.815   1.100   6.087
12009SOL    HW136371   7.808   1.183   6.031
12009SOL    HW236372   7.819   1.020   6.027
12010SOL     OW36373   8.014   0.537   6.451
12010SOL    HW136374   8.026   0.603   6.377
12010SOL    HW236375   8.060   0.571   6.534
12011SOL     OW36376   7.456   1.326   5.786
12011SOL    HW136377   7.363   1.347   5.755
12011SOL    HW236378   7.466   1.227   5.799
12012SOL     OW36379   7.536   1.801   6.513
12012SOL    HW136380   7.494   1.715   6.486
12012SOL    HW236381   7.630   1.804   6.479
12013SOL     OW36382   7.921   0.500   5.777
12013SOL    HW136383   7.982   0.580   5.781
12013SOL    HW236384   7.826   0.531   5.784
12014SOL     OW36385   8.038   1.487   6.077
12014SOL    HW136386   8.080   1.429   6.007
12014SOL    HW236387   7.994   1.566   6.033
12015SOL     OW36388   7.703   1.348   5.876
12015SOL    HW136389   7.607   1.349   5.849
12015SOL    HW236390   7.715   1.401   5.960
12016SOL     OW36391   7.527   1.240   6.239
12016SOL    HW136392   7.526   1.193   6.327
12016SOL    HW236393   7.609   1.212   6.188
12017SOL     OW36394   7.487   1.077   5.886
12017SOL    HW136395   7.586   1.066   5.877
12017SOL    HW236396   7.447   0.991   5.918
12018SOL     OW36397   7.673   2.137   0.996
12018SOL    HW136398   7.708   2.120   1.088
12018SOL    HW236399   7.585   2.092   0.984
12019SOL     OW36400   7.467   2.230   0.647
12019SOL    HW136401   7.385   2.273   0.686
12019SOL    HW236402   7.439   2.157   0.584
12020SOL     OW36403   7.783   3.297   1.061
12020SOL    HW136404   7.705   3.266   1.008
12020SOL    HW236405   7.841   3.355   1.004
12021SOL     OW36406   7.886   2.254   1.499
12021SOL    HW136407   7.968   2.198   1.508
12021SOL    HW236408   7.805   2.196   1.503
12022SOL     OW36409   7.679   3.575   0.483
12022SOL    HW136410   7.713   3.652   0.537
12022SOL    HW236411   7.723   3.575   0.393
12023SOL     OW36412   7.678   3.296   0.538
12023SOL    HW136413   7.652   3.392   0.538
12023SOL    HW236414   7.607   3.242   0.583
12024SOL     OW36415   7.688   2.953   0.886
12024SOL    HW136416   7.702   2.869   0.938
12024SOL    HW236417   7.633   3.017   0.941
12025SOL     OW36418   7.570   2.505   0.563
12025SOL    HW136419   7.525   2.417   0.580
12025SOL    HW236420   7.569   2.559   0.647
12026SOL     OW36421   7.561   2.599   1.597
12026SOL    HW136422   7.649   2.586   1.642
12026SOL    HW236423   7.548   2.696   1.575
12027SOL     OW36424   7.645   2.838   1.264
12027SOL    HW136425   7.734   2.793   1.250
12027SOL    HW236426   7.572   2.773   1.245
12028SOL     OW36427   7.765   2.113   1.801
12028SOL    HW136428   7.836   2.184   1.807
12028SOL    HW236429   7.677   2.152   1.829
12029SOL     OW36430   7.524   2.673   0.789
12029SOL    HW136431   7.623   2.661   0.798
12029SOL    HW236432   7.500   2.768   0.810
12030SOL     OW36433   7.578   3.683   1.571
12030SOL    HW136434   7.568   3.668   1.670
12030SOL    HW236435   7.492   3.719   1.535
12031SOL     OW36436   7.998   2.058   0.885
12031SOL    HW136437   7.993   2.053   0.985
12031SOL    HW236438   8.000   2.154   0.856
12032SOL     OW36439   7.799   3.663   0.853
12032SOL    HW136440   7.849   3.577   0.859
12032SOL    HW236441   7.864   3.740   0.850
12033SOL     OW36442   7.909   3.128   1.727
12033SOL    HW136443   7.859   3.129   1.641
12033SOL    HW236444   7.846   3.110   1.803
12034SOL     OW36445   7.650   2.147   1.498
12034SOL    HW136446   7.570   2.207   1.485
12034SOL    HW236447   7.640   2.098   1.584
12035SOL     OW36448   7.697   3.647   1.241
12035SOL    HW136449   7.754   3.582   1.291
12035SOL    HW236450   7.681   3.614   1.148
12036SOL     OW36451   7.830   2.562   0.480
12036SOL    HW136452   7.875   2.472   0.477
12036SOL    HW236453   7.736   2.551   0.513
12037SOL     OW36454   7.987   1.926   0.512
12037SOL    HW136455   7.906   1.927   0.570
12037SOL    HW236456   7.990   2.009   0.457
12038SOL     OW36457   7.907   3.014   0.741
12038SOL    HW136458   7.836   2.987   0.806
12038SOL    HW236459   7.881   2.986   0.648
12039SOL     OW36460   7.526   2.418   1.386
12039SOL    HW136461   7.618   2.417   1.345
12039SOL    HW236462   7.520   2.492   1.453
12040SOL     OW36463   8.009   2.084   1.147
12040SOL    HW136464   8.047   2.000   1.184
12040SOL    HW236465   7.921   2.103   1.191
12041SOL     OW36466   7.858   2.675   1.251
12041SOL    HW136467   7.944   2.687   1.301
12041SOL    HW236468   7.816   2.588   1.278
12042SOL     OW36469   7.512   3.426   1.331
12042SOL    HW136470   7.466   3.508   1.297
12042SOL    HW236471   7.610   3.445   1.340
12043SOL     OW36472   7.815   2.962   0.501
12043SOL    HW136473   7.808   3.045   0.445
12043SOL    HW236474   7.819   2.882   0.441
12044SOL     OW36475   8.014   2.399   0.865
12044SOL    HW136476   8.026   2.465   0.791
12044SOL    HW236477   8.060   2.433   0.948
12045SOL     OW36478   7.802   3.372   1.329
12045SOL    HW136479   7.781   3.328   1.242
12045SOL    HW236480   7.899   3.398   1.332
12046SOL     OW36481   7.850   2.613   1.598
12046SOL    HW136482   7.918   2.668   1.551
12046SOL    HW236483   7.890   2.525   1.625
12047SOL     OW36484   7.952   1.912   1.740
12047SOL    HW136485   7.910   1.855   1.670
12047SOL    HW236486   7.886   1.981   1.772
12048SOL     OW36487   8.021   2.732   1.029
12048SOL    HW136488   8.065   2.821   1.020
12048SOL    HW236489   7.958   2.732   1.106
12049SOL     OW36490   7.755   2.075   1.231
12049SOL    HW136491   7.732   2.112   1.321
12049SOL    HW236492   7.725   1.980   1.225
12050SOL     OW36493   7.485   3.172   1.282
12050SOL    HW136494   7.538   3.123   1.350
12050SOL    HW236495   7.507   3.270   1.287
12051SOL     OW36496   7.755   1.925   0.618
12051SOL    HW136497   7.744   2.019   0.651
12051SOL    HW236498   7.750   1.862   0.695
12052SOL     OW36499   7.798   2.760   1.804
12052SOL    HW136500   7.874   2.804   1.852
12052SOL    HW236501   7.833   2.713   1.722
12053SOL     OW36502   7.767   2.672   0.949
12053SOL    HW136503   7.860   2.708   0.954
12053SOL    HW236504   7.761   2.587   1.001
12054SOL     OW36505   7.787   2.371   1.006
12054SOL    HW136506   7.735   2.288   0.989
12054SOL    HW236507   7.864   2.376   0.942
12055SOL     OW36508   7.536   3.663   0.927
12055SOL    HW136509   7.494   3.577   0.900
12055SOL    HW236510   7.630   3.666   0.893
12056SOL     OW36511   7.488   2.406   1.114
12056SOL    HW136512   7.573   2.373   1.073
12056SOL    HW236513   7.501   2.421   1.212
12057SOL     OW36514   7.637   2.382   1.722
12057SOL    HW136515   7.696   2.342   1.652
12057SOL    HW236516   7.579   2.453   1.681
12058SOL     OW36517   7.700   3.426   1.744
12058SOL    HW136518   7.670   3.483   1.820
12058SOL    HW236519   7.693   3.329   1.770
12059SOL     OW36520   7.607   2.999   1.466
12059SOL    HW136521   7.629   2.938   1.542
12059SOL    HW236522   7.617   2.950   1.380
12060SOL     OW36523   7.531   3.120   1.022
12060SOL    HW136524   7.526   3.119   1.122
12060SOL    HW236525   7.448   3.079   0.984
12061SOL     OW36526   7.578   3.656   1.851
12061SOL    HW136527   7.537   3.582   1.904
12061SOL    HW236528   7.642   3.707   1.909
12062SOL     OW36529   7.711   2.188   0.720
12062SOL    HW136530   7.632   2.239   0.686
12062SOL    HW236531   7.702   2.173   0.818
12063SOL     OW36532   7.820   3.150   1.490
12063SOL    HW136533   7.807   3.243   1.456
12063SOL    HW236534   7.736   3.098   1.477
12064SOL     OW36535   8.038   3.349   0.491
12064SOL    HW136536   8.080   3.291   0.421
12064SOL    HW236537   7.994   3.428   0.447
12065SOL     OW36538   7.553   2.875   1.726
12065SOL    HW136539   7.476   2.842   1.780
12065SOL    HW236540   7.638   2.845   1.768
12066SOL     OW36541   7.520   2.028   0.318
12066SOL    HW136542   7.503   2.111   0.264
12066SOL    HW236543   7.610   1.991   0.296
12067SOL     OW36544   7.838   3.603   1.560
12067SOL    HW136545   7.747   3.644   1.558
12067SOL    HW236546   7.831   3.509   1.592
12068SOL     OW36547   7.669   3.176   1.844
12068SOL    HW136548   7.604   3.103   1.823
12068SOL    HW236549   7.673   3.190   1.942
12069SOL     OW36550   7.527   3.102   0.653
12069SOL    HW136551   7.526   3.055   0.741
12069SOL    HW236552   7.609   3.074   0.602
12070SOL     OW36553   8.120   3.253   1.624
12070SOL    HW136554   8.042   3.203   1.662
12070SOL    HW236555   8.117   3.348   1.655
12071SOL     OW36556   7.765   2.409   1.280
12071SOL    HW136557   7.803   2.350   1.352
12071SOL    HW236558   7.805   2.383   1.192
12072SOL     OW36559   7.678   2.490   1.975
12072SOL    HW136560   7.585   2.488   2.012
12072SOL    HW236561   7.679   2.451   1.883
12073SOL     OW36562   7.673   2.137   2.858
12073SOL    HW136563   7.708   2.120   2.950
12073SOL    HW236564   7.585   2.092   2.846
12074SOL     OW36565   7.467   2.230   2.509
12074SOL    HW136566   7.385   2.273   2.548
12074SOL    HW236567   7.439   2.157   2.446
12075SOL     OW36568   7.783   3.297   2.923
12075SOL    HW136569   7.705   3.266   2.870
12075SOL    HW236570   7.841   3.355   2.866
12076SOL     OW36571   7.886   2.254   3.361
12076SOL    HW136572   7.968   2.198   3.370
12076SOL    HW236573   7.805   2.196   3.365
12077SOL     OW36574   7.679   3.575   2.345
12077SOL    HW136575   7.713   3.652   2.399
12077SOL    HW236576   7.723   3.575   2.255
12078SOL     OW36577   7.678   3.296   2.400
12078SOL    HW136578   7.652   3.392   2.400
12078SOL    HW236579   7.607   3.242   2.445
12079SOL     OW36580   7.688   2.953   2.748
12079SOL    HW136581   7.702   2.869   2.800
12079SOL    HW236582   7.633   3.017   2.803
12080SOL     OW36583   7.570   2.505   2.425
12080SOL    HW136584   7.525   2.417   2.442
12080SOL    HW236585   7.569   2.559   2.509
12081SOL     OW36586   7.475   3.458   1.979
12081SOL    HW136587   7.456   3.362   2.000
12081SOL    HW236588   7.442   3.516   2.054
12082SOL     OW36589   7.561   2.599   3.459
12082SOL    HW136590   7.649   2.586   3.504
12082SOL    HW236591   7.548   2.696   3.437
12083SOL     OW36592   7.645   2.838   3.126
12083SOL    HW136593   7.734   2.793   3.112
12083SOL    HW236594   7.572   2.773   3.107
12084SOL     OW36595   7.765   2.113   3.663
12084SOL    HW136596   7.836   2.184   3.669
12084SOL    HW236597   7.677   2.152   3.691
12085SOL     OW36598   8.046   2.591   2.132
12085SOL    HW136599   8.070   2.660   2.064
12085SOL    HW236600   7.968   2.624   2.186
12086SOL     OW36601   7.524   2.673   2.651
12086SOL    HW136602   7.623   2.661   2.660
12086SOL    HW236603   7.500   2.768   2.672
12087SOL     OW36604   7.578   3.683   3.433
12087SOL    HW136605   7.568   3.668   3.532
12087SOL    HW236606   7.492   3.719   3.397
12088SOL     OW36607   7.998   2.058   2.747
12088SOL    HW136608   7.993   2.053   2.847
12088SOL    HW236609   8.000   2.154   2.718
12089SOL     OW36610   7.799   3.663   2.715
12089SOL    HW136611   7.849   3.577   2.721
12089SOL    HW236612   7.864   3.740   2.712
12090SOL     OW36613   7.769   2.805   2.104
12090SOL    HW136614   7.851   2.844   2.062
12090SOL    HW236615   7.742   2.723   2.055
12091SOL     OW36616   7.909   3.128   3.589
12091SOL    HW136617   7.859   3.129   3.503
12091SOL    HW236618   7.846   3.110   3.665
12092SOL     OW36619   7.650   2.147   3.360
12092SOL    HW136620   7.570   2.207   3.347
12092SOL    HW236621   7.640   2.098   3.446
12093SOL     OW36622   7.697   3.647   3.103
12093SOL    HW136623   7.754   3.582   3.153
12093SOL    HW236624   7.681   3.614   3.010
12094SOL     OW36625   7.830   2.562   2.342
12094SOL    HW136626   7.875   2.472   2.339
12094SOL    HW236627   7.736   2.551   2.375
12095SOL     OW36628   7.987   1.926   2.374
12095SOL    HW136629   7.906   1.927   2.432
12095SOL    HW236630   7.990   2.009   2.319
12096SOL     OW36631   7.745   1.897   2.033
12096SOL    HW136632   7.794   1.981   2.012
12096SOL    HW236633   7.807   1.832   2.078
12097SOL     OW36634   7.907   3.014   2.603
12097SOL    HW136635   7.836   2.987   2.668
12097SOL    HW236636   7.881   2.986   2.510
12098SOL     OW36637   7.526   2.418   3.248
12098SOL    HW136638   7.618   2.417   3.207
12098SOL    HW236639   7.520   2.492   3.315
12099SOL     OW36640   8.009   2.084   3.009
12099SOL    HW136641   8.047   2.000   3.046
12099SOL    HW236642   7.921   2.103   3.053
12100SOL     OW36643   7.858   2.675   3.113
12100SOL    HW136644   7.944   2.687   3.163
12100SOL    HW236645   7.816   2.588   3.140
12101SOL     OW36646   7.512   3.426   3.193
12101SOL    HW136647   7.466   3.508   3.159
12101SOL    HW236648   7.610   3.445   3.202
12102SOL     OW36649   7.815   2.962   2.363
12102SOL    HW136650   7.808   3.045   2.307
12102SOL    HW236651   7.819   2.882   2.303
12103SOL     OW36652   8.014   2.399   2.727
12103SOL    HW136653   8.026   2.465   2.653
12103SOL    HW236654   8.060   2.433   2.810
12104SOL     OW36655   7.802   3.372   3.191
12104SOL    HW136656   7.781   3.328   3.104
12104SOL    HW236657   7.899   3.398   3.194
12105SOL     OW36658   7.850   2.613   3.460
12105SOL    HW136659   7.918   2.668   3.413
12105SOL    HW236660   7.890   2.525   3.487
12106SOL     OW36661   7.952   1.912   3.602
12106SOL    HW136662   7.910   1.855   3.532
12106SOL    HW236663   7.886   1.981   3.634
12107SOL     OW36664   8.021   2.732   2.891
12107SOL    HW136665   8.065   2.821   2.882
12107SOL    HW236666   7.958   2.732   2.968
12108SOL     OW36667   7.755   2.075   3.093
12108SOL    HW136668   7.732   2.112   3.183
12108SOL    HW236669   7.725   1.980   3.087
12109SOL     OW36670   7.485   3.172   3.144
12109SOL    HW136671   7.538   3.123   3.212
12109SOL    HW236672   7.507   3.270   3.149
12110SOL     OW36673   7.755   1.925   2.480
12110SOL    HW136674   7.744   2.019   2.513
12110SOL    HW236675   7.750   1.862   2.557
12111SOL     OW36676   7.798   2.760   3.666
12111SOL    HW136677   7.874   2.804   3.714
12111SOL    HW236678   7.833   2.713   3.584
12112SOL     OW36679   7.767   2.672   2.811
12112SOL    HW136680   7.860   2.708   2.816
12112SOL    HW236681   7.761   2.587   2.863
12113SOL     OW36682   7.787   2.371   2.868
12113SOL    HW136683   7.735   2.288   2.851
12113SOL    HW236684   7.864   2.376   2.804
12114SOL     OW36685   7.456   3.188   2.062
12114SOL    HW136686   7.363   3.209   2.031
12114SOL    HW236687   7.466   3.089   2.075
12115SOL     OW36688   7.536   3.663   2.789
12115SOL    HW136689   7.494   3.577   2.762
12115SOL    HW236690   7.630   3.666   2.755
12116SOL     OW36691   7.488   2.406   2.976
12116SOL    HW136692   7.573   2.373   2.935
12116SOL    HW236693   7.501   2.421   3.074
12117SOL     OW36694   7.637   2.382   3.584
12117SOL    HW136695   7.696   2.342   3.514
12117SOL    HW236696   7.579   2.453   3.543
12118SOL     OW36697   7.700   3.426   3.606
12118SOL    HW136698   7.670   3.483   3.682
12118SOL    HW236699   7.693   3.329   3.632
12119SOL     OW36700   7.921   2.362   2.053
12119SOL    HW136701   7.982   2.442   2.057
12119SOL    HW236702   7.826   2.393   2.060
12120SOL     OW36703   7.607   2.999   3.328
12120SOL    HW136704   7.629   2.938   3.404
12120SOL    HW236705   7.617   2.950   3.242
12121SOL     OW36706   7.531   3.120   2.884
12121SOL    HW136707   7.526   3.119   2.984
12121SOL    HW236708   7.448   3.079   2.846
12122SOL     OW36709   7.578   3.656   3.713
12122SOL    HW136710   7.537   3.582   3.766
12122SOL    HW236711   7.642   3.707   3.771
12123SOL     OW36712   7.711   2.188   2.582
12123SOL    HW136713   7.632   2.239   2.548
12123SOL    HW236714   7.702   2.173   2.680
12124SOL     OW36715   7.820   3.150   3.352
12124SOL    HW136716   7.807   3.243   3.318
12124SOL    HW236717   7.736   3.098   3.339
12125SOL     OW36718   8.038   3.349   2.353
12125SOL    HW136719   8.080   3.291   2.283
12125SOL    HW236720   7.994   3.428   2.309
12126SOL     OW36721   7.703   3.210   2.152
12126SOL    HW136722   7.607   3.211   2.125
12126SOL    HW236723   7.715   3.263   2.236
12127SOL     OW36724   7.553   2.875   3.588
12127SOL    HW136725   7.476   2.842   3.642
12127SOL    HW236726   7.638   2.845   3.630
12128SOL     OW36727   7.523   2.207   1.895
12128SOL    HW136728   7.431   2.179   1.866
12128SOL    HW236729   7.554   2.284   1.839
12129SOL     OW36730   7.520   2.028   2.180
12129SOL    HW136731   7.503   2.111   2.126
12129SOL    HW236732   7.610   1.991   2.158
12130SOL     OW36733   7.838   3.603   3.422
12130SOL    HW136734   7.747   3.644   3.420
12130SOL    HW236735   7.831   3.509   3.454
12131SOL     OW36736   7.669   3.176   3.706
12131SOL    HW136737   7.604   3.103   3.685
12131SOL    HW236738   7.673   3.190   3.804
12132SOL     OW36739   7.527   3.102   2.515
12132SOL    HW136740   7.526   3.055   2.603
12132SOL    HW236741   7.609   3.074   2.464
12133SOL     OW36742   8.120   3.253   3.486
12133SOL    HW136743   8.042   3.203   3.524
12133SOL    HW236744   8.117   3.348   3.517
12134SOL     OW36745   7.765   2.409   3.142
12134SOL    HW136746   7.803   2.350   3.214
12134SOL    HW236747   7.805   2.383   3.054
12135SOL     OW36748   7.487   2.939   2.162
12135SOL    HW136749   7.586   2.928   2.153
12135SOL    HW236750   7.447   2.853   2.194
12136SOL     OW36751   7.678   2.490   3.837
12136SOL    HW136752   7.585   2.488   3.874
12136SOL    HW236753   7.679   2.451   3.745
12137SOL     OW36754   7.673   2.137   4.720
12137SOL    HW136755   7.708   2.120   4.812
12137SOL    HW236756   7.585   2.092   4.708
12138SOL     OW36757   7.467   2.230   4.371
12138SOL    HW136758   7.385   2.273   4.410
12138SOL    HW236759   7.439   2.157   4.308
12139SOL     OW36760   7.783   3.297   4.785
12139SOL    HW136761   7.705   3.266   4.732
12139SOL    HW236762   7.841   3.355   4.728
12140SOL     OW36763   7.886   2.254   5.223
12140SOL    HW136764   7.968   2.198   5.232
12140SOL    HW236765   7.805   2.196   5.227
12141SOL     OW36766   7.679   3.575   4.207
12141SOL    HW136767   7.713   3.652   4.261
12141SOL    HW236768   7.723   3.575   4.117
12142SOL     OW36769   7.678   3.296   4.262
12142SOL    HW136770   7.652   3.392   4.262
12142SOL    HW236771   7.607   3.242   4.307
12143SOL     OW36772   7.688   2.953   4.610
12143SOL    HW136773   7.702   2.869   4.662
12143SOL    HW236774   7.633   3.017   4.665
12144SOL     OW36775   7.570   2.505   4.287
12144SOL    HW136776   7.525   2.417   4.304
12144SOL    HW236777   7.569   2.559   4.371
12145SOL     OW36778   7.475   3.458   3.841
12145SOL    HW136779   7.456   3.362   3.862
12145SOL    HW236780   7.442   3.516   3.916
12146SOL     OW36781   7.561   2.599   5.321
12146SOL    HW136782   7.649   2.586   5.366
12146SOL    HW236783   7.548   2.696   5.299
12147SOL     OW36784   7.645   2.838   4.988
12147SOL    HW136785   7.734   2.793   4.974
12147SOL    HW236786   7.572   2.773   4.969
12148SOL     OW36787   7.765   2.113   5.525
12148SOL    HW136788   7.836   2.184   5.531
12148SOL    HW236789   7.677   2.152   5.553
12149SOL     OW36790   8.046   2.591   3.994
12149SOL    HW136791   8.070   2.660   3.926
12149SOL    HW236792   7.968   2.624   4.048
12150SOL     OW36793   7.524   2.673   4.513
12150SOL    HW136794   7.623   2.661   4.522
12150SOL    HW236795   7.500   2.768   4.534
12151SOL     OW36796   7.578   3.683   5.295
12151SOL    HW136797   7.568   3.668   5.394
12151SOL    HW236798   7.492   3.719   5.259
12152SOL     OW36799   7.998   2.058   4.609
12152SOL    HW136800   7.993   2.053   4.709
12152SOL    HW236801   8.000   2.154   4.580
12153SOL     OW36802   7.799   3.663   4.577
12153SOL    HW136803   7.849   3.577   4.583
12153SOL    HW236804   7.864   3.740   4.574
12154SOL     OW36805   7.769   2.805   3.966
12154SOL    HW136806   7.851   2.844   3.924
12154SOL    HW236807   7.742   2.723   3.917
12155SOL     OW36808   7.909   3.128   5.451
12155SOL    HW136809   7.859   3.129   5.365
12155SOL    HW236810   7.846   3.110   5.527
12156SOL     OW36811   7.650   2.147   5.222
12156SOL    HW136812   7.570   2.207   5.209
12156SOL    HW236813   7.640   2.098   5.308
12157SOL     OW36814   7.697   3.647   4.965
12157SOL    HW136815   7.754   3.582   5.015
12157SOL    HW236816   7.681   3.614   4.872
12158SOL     OW36817   7.830   2.562   4.204
12158SOL    HW136818   7.875   2.472   4.201
12158SOL    HW236819   7.736   2.551   4.237
12159SOL     OW36820   7.987   1.926   4.236
12159SOL    HW136821   7.906   1.927   4.294
12159SOL    HW236822   7.990   2.009   4.181
12160SOL     OW36823   7.745   1.897   3.895
12160SOL    HW136824   7.794   1.981   3.874
12160SOL    HW236825   7.807   1.832   3.940
12161SOL     OW36826   7.907   3.014   4.465
12161SOL    HW136827   7.836   2.987   4.530
12161SOL    HW236828   7.881   2.986   4.372
12162SOL     OW36829   7.526   2.418   5.110
12162SOL    HW136830   7.618   2.417   5.069
12162SOL    HW236831   7.520   2.492   5.177
12163SOL     OW36832   8.009   2.084   4.871
12163SOL    HW136833   8.047   2.000   4.908
12163SOL    HW236834   7.921   2.103   4.915
12164SOL     OW36835   7.858   2.675   4.975
12164SOL    HW136836   7.944   2.687   5.025
12164SOL    HW236837   7.816   2.588   5.002
12165SOL     OW36838   7.512   3.426   5.055
12165SOL    HW136839   7.466   3.508   5.021
12165SOL    HW236840   7.610   3.445   5.064
12166SOL     OW36841   7.815   2.962   4.225
12166SOL    HW136842   7.808   3.045   4.169
12166SOL    HW236843   7.819   2.882   4.165
12167SOL     OW36844   8.014   2.399   4.589
12167SOL    HW136845   8.026   2.465   4.515
12167SOL    HW236846   8.060   2.433   4.672
12168SOL     OW36847   7.802   3.372   5.053
12168SOL    HW136848   7.781   3.328   4.966
12168SOL    HW236849   7.899   3.398   5.056
12169SOL     OW36850   7.850   2.613   5.322
12169SOL    HW136851   7.918   2.668   5.275
12169SOL    HW236852   7.890   2.525   5.349
12170SOL     OW36853   7.952   1.912   5.464
12170SOL    HW136854   7.910   1.855   5.394
12170SOL    HW236855   7.886   1.981   5.496
12171SOL     OW36856   8.021   2.732   4.753
12171SOL    HW136857   8.065   2.821   4.744
12171SOL    HW236858   7.958   2.732   4.830
12172SOL     OW36859   7.755   2.075   4.955
12172SOL    HW136860   7.732   2.112   5.045
12172SOL    HW236861   7.725   1.980   4.949
12173SOL     OW36862   7.485   3.172   5.006
12173SOL    HW136863   7.538   3.123   5.074
12173SOL    HW236864   7.507   3.270   5.011
12174SOL     OW36865   7.755   1.925   4.342
12174SOL    HW136866   7.744   2.019   4.375
12174SOL    HW236867   7.750   1.862   4.419
12175SOL     OW36868   7.798   2.760   5.528
12175SOL    HW136869   7.874   2.804   5.576
12175SOL    HW236870   7.833   2.713   5.446
12176SOL     OW36871   7.767   2.672   4.673
12176SOL    HW136872   7.860   2.708   4.678
12176SOL    HW236873   7.761   2.587   4.725
12177SOL     OW36874   7.787   2.371   4.730
12177SOL    HW136875   7.735   2.288   4.713
12177SOL    HW236876   7.864   2.376   4.666
12178SOL     OW36877   7.456   3.188   3.924
12178SOL    HW136878   7.363   3.209   3.893
12178SOL    HW236879   7.466   3.089   3.937
12179SOL     OW36880   7.536   3.663   4.651
12179SOL    HW136881   7.494   3.577   4.624
12179SOL    HW236882   7.630   3.666   4.617
12180SOL     OW36883   7.488   2.406   4.838
12180SOL    HW136884   7.573   2.373   4.797
12180SOL    HW236885   7.501   2.421   4.936
12181SOL     OW36886   7.637   2.382   5.446
12181SOL    HW136887   7.696   2.342   5.376
12181SOL    HW236888   7.579   2.453   5.405
12182SOL     OW36889   7.700   3.426   5.468
12182SOL    HW136890   7.670   3.483   5.544
12182SOL    HW236891   7.693   3.329   5.494
12183SOL     OW36892   7.921   2.362   3.915
12183SOL    HW136893   7.982   2.442   3.919
12183SOL    HW236894   7.826   2.393   3.922
12184SOL     OW36895   7.607   2.999   5.190
12184SOL    HW136896   7.629   2.938   5.266
12184SOL    HW236897   7.617   2.950   5.104
12185SOL     OW36898   7.531   3.120   4.746
12185SOL    HW136899   7.526   3.119   4.846
12185SOL    HW236900   7.448   3.079   4.708
12186SOL     OW36901   7.578   3.656   5.575
12186SOL    HW136902   7.537   3.582   5.628
12186SOL    HW236903   7.642   3.707   5.633
12187SOL     OW36904   7.711   2.188   4.444
12187SOL    HW136905   7.632   2.239   4.410
12187SOL    HW236906   7.702   2.173   4.542
12188SOL     OW36907   7.820   3.150   5.214
12188SOL    HW136908   7.807   3.243   5.180
12188SOL    HW236909   7.736   3.098   5.201
12189SOL     OW36910   8.038   3.349   4.215
12189SOL    HW136911   8.080   3.291   4.145
12189SOL    HW236912   7.994   3.428   4.171
12190SOL     OW36913   7.703   3.210   4.014
12190SOL    HW136914   7.607   3.211   3.987
12190SOL    HW236915   7.715   3.263   4.098
12191SOL     OW36916   7.553   2.875   5.450
12191SOL    HW136917   7.476   2.842   5.504
12191SOL    HW236918   7.638   2.845   5.492
12192SOL     OW36919   7.523   2.207   3.757
12192SOL    HW136920   7.431   2.179   3.728
12192SOL    HW236921   7.554   2.284   3.701
12193SOL     OW36922   7.520   2.028   4.042
12193SOL    HW136923   7.503   2.111   3.988
12193SOL    HW236924   7.610   1.991   4.020
12194SOL     OW36925   7.838   3.603   5.284
12194SOL    HW136926   7.747   3.644   5.282
12194SOL    HW236927   7.831   3.509   5.316
12195SOL     OW36928   7.669   3.176   5.568
12195SOL    HW136929   7.604   3.103   5.547
12195SOL    HW236930   7.673   3.190   5.666
12196SOL     OW36931   7.527   3.102   4.377
12196SOL    HW136932   7.526   3.055   4.465
12196SOL    HW236933   7.609   3.074   4.326
12197SOL     OW36934   8.120   3.253   5.348
12197SOL    HW136935   8.042   3.203   5.386
12197SOL    HW236936   8.117   3.348   5.379
12198SOL     OW36937   7.765   2.409   5.004
12198SOL    HW136938   7.803   2.350   5.076
12198SOL    HW236939   7.805   2.383   4.916
12199SOL     OW36940   7.487   2.939   4.024
12199SOL    HW136941   7.586   2.928   4.015
12199SOL    HW236942   7.447   2.853   4.056
12200SOL     OW36943   7.678   2.490   5.699
12200SOL    HW136944   7.585   2.488   5.736
12200SOL    HW236945   7.679   2.451   5.607
12201SOL     OW36946   7.673   2.137   6.582
12201SOL    HW136947   7.708   2.120   6.674
12201SOL    HW236948   7.585   2.092   6.570
12202SOL     OW36949   7.467   2.230   6.233
12202SOL    HW136950   7.385   2.273   6.272
12202SOL    HW236951   7.439   2.157   6.170
12203SOL     OW36952   7.679   3.575   6.069
12203SOL    HW136953   7.713   3.652   6.123
12203SOL    HW236954   7.723   3.575   5.979
12204SOL     OW36955   7.678   3.296   6.124
12204SOL    HW136956   7.652   3.392   6.124
12204SOL    HW236957   7.607   3.242   6.169
12205SOL     OW36958   7.570   2.505   6.149
12205SOL    HW136959   7.525   2.417   6.166
12205SOL    HW236960   7.569   2.559   6.233
12206SOL     OW36961   7.475   3.458   5.703
12206SOL    HW136962   7.456   3.362   5.724
12206SOL    HW236963   7.442   3.516   5.778
12207SOL     OW36964   8.046   2.591   5.856
12207SOL    HW136965   8.070   2.660   5.788
12207SOL    HW236966   7.968   2.624   5.910
12208SOL     OW36967   7.799   3.663   6.439
12208SOL    HW136968   7.849   3.577   6.445
12208SOL    HW236969   7.864   3.740   6.436
12209SOL     OW36970   7.769   2.805   5.828
12209SOL    HW136971   7.851   2.844   5.786
12209SOL    HW236972   7.742   2.723   5.779
12210SOL     OW36973   7.697   3.647   6.827
12210SOL    HW136974   7.754   3.582   6.877
12210SOL    HW236975   7.681   3.614   6.734
12211SOL     OW36976   7.830   2.562   6.066
12211SOL    HW136977   7.875   2.472   6.063
12211SOL    HW236978   7.736   2.551   6.099
12212SOL     OW36979   7.987   1.926   6.098
12212SOL    HW136980   7.906   1.927   6.156
12212SOL    HW236981   7.990   2.009   6.043
12213SOL     OW36982   7.745   1.897   5.757
12213SOL    HW136983   7.794   1.981   5.736
12213SOL    HW236984   7.807   1.832   5.802
12214SOL     OW36985   7.907   3.014   6.327
12214SOL    HW136986   7.836   2.987   6.392
12214SOL    HW236987   7.881   2.986   6.234
12215SOL     OW36988   7.815   2.962   6.087
12215SOL    HW136989   7.808   3.045   6.031
12215SOL    HW236990   7.819   2.882   6.027
12216SOL     OW36991   8.014   2.399   6.451
12216SOL    HW136992   8.026   2.465   6.377
12216SOL    HW236993   8.060   2.433   6.534
12217SOL     OW36994   7.755   1.925   6.204
12217SOL    HW136995   7.744   2.019   6.237
12217SOL    HW236996   7.750   1.862   6.281
12218SOL     OW36997   7.456   3.188   5.786
12218SOL    HW136998   7.363   3.209   5.755
12218SOL    HW236999   7.466   3.089   5.799
12219SOL     OW37000   7.536   3.663   6.513
12219SOL    HW137001   7.494   3.577   6.486
12219SOL    HW237002   7.630   3.666   6.479
12220SOL     OW37003   7.921   2.362   5.777
12220SOL    HW137004   7.982   2.442   5.781
12220SOL    HW237005   7.826   2.393   5.784
12221SOL     OW37006   7.711   2.188   6.306
12221SOL    HW137007   7.632   2.239   6.272
12221SOL    HW237008   7.702   2.173   6.404
12222SOL     OW37009   8.038   3.349   6.077
12222SOL    HW137010   8.080   3.291   6.007
12222SOL    HW237011   7.994   3.428   6.033
12223SOL     OW37012   7.703   3.210   5.876
12223SOL    HW137013   7.607   3.211   5.849
12223SOL    HW237014   7.715   3.263   5.960
12224SOL     OW37015   7.523   2.207   5.619
12224SOL    HW137016   7.431   2.179   5.590
12224SOL    HW237017   7.554   2.284   5.563
12225SOL     OW37018   7.520   2.028   5.904
12225SOL    HW137019   7.503   2.111   5.850
12225SOL    HW237020   7.610   1.991   5.882
12226SOL     OW37021   7.527   3.102   6.239
12226SOL    HW137022   7.526   3.055   6.327
12226SOL    HW237023   7.609   3.074   6.188
12227SOL     OW37024   7.487   2.939   5.886
12227SOL    HW137025   7.586   2.928   5.877
12227SOL    HW237026   7.447   2.853   5.918
12228SOL     OW37027   7.673   3.999   0.996
12228SOL    HW137028   7.708   3.982   1.088
12228SOL    HW237029   7.585   3.954   0.984
12229SOL     OW37030   7.467   4.092   0.647
12229SOL    HW137031   7.385   4.135   0.686
12229SOL    HW237032   7.439   4.019   0.584
12230SOL     OW37033   7.783   5.159   1.061
12230SOL    HW137034   7.705   5.128   1.008
12230SOL    HW237035   7.841   5.217   1.004
12231SOL     OW37036   7.886   4.116   1.499
12231SOL    HW137037   7.968   4.060   1.508
12231SOL    HW237038   7.805   4.058   1.503
12232SOL     OW37039   7.679   5.437   0.483
12232SOL    HW137040   7.713   5.514   0.537
12232SOL    HW237041   7.723   5.437   0.393
12233SOL     OW37042   7.678   5.158   0.538
12233SOL    HW137043   7.652   5.254   0.538
12233SOL    HW237044   7.607   5.104   0.583
12234SOL     OW37045   7.688   4.815   0.886
12234SOL    HW137046   7.702   4.731   0.938
12234SOL    HW237047   7.633   4.879   0.941
12235SOL     OW37048   7.570   4.367   0.563
12235SOL    HW137049   7.525   4.279   0.580
12235SOL    HW237050   7.569   4.421   0.647
12236SOL     OW37051   7.561   4.461   1.597
12236SOL    HW137052   7.649   4.448   1.642
12236SOL    HW237053   7.548   4.558   1.575
12237SOL     OW37054   7.645   4.700   1.264
12237SOL    HW137055   7.734   4.655   1.250
12237SOL    HW237056   7.572   4.635   1.245
12238SOL     OW37057   7.765   3.975   1.801
12238SOL    HW137058   7.836   4.046   1.807
12238SOL    HW237059   7.677   4.014   1.829
12239SOL     OW37060   8.046   4.453   0.270
12239SOL    HW137061   8.070   4.522   0.202
12239SOL    HW237062   7.968   4.486   0.324
12240SOL     OW37063   7.524   4.535   0.789
12240SOL    HW137064   7.623   4.523   0.798
12240SOL    HW237065   7.500   4.630   0.810
12241SOL     OW37066   7.578   5.545   1.571
12241SOL    HW137067   7.568   5.530   1.670
12241SOL    HW237068   7.492   5.581   1.535
12242SOL     OW37069   7.998   3.920   0.885
12242SOL    HW137070   7.993   3.915   0.985
12242SOL    HW237071   8.000   4.016   0.856
12243SOL     OW37072   7.799   5.525   0.853
12243SOL    HW137073   7.849   5.439   0.859
12243SOL    HW237074   7.864   5.602   0.850
12244SOL     OW37075   7.909   4.990   1.727
12244SOL    HW137076   7.859   4.991   1.641
12244SOL    HW237077   7.846   4.972   1.803
12245SOL     OW37078   7.650   4.009   1.498
12245SOL    HW137079   7.570   4.069   1.485
12245SOL    HW237080   7.640   3.960   1.584
12246SOL     OW37081   7.697   5.509   1.241
12246SOL    HW137082   7.754   5.444   1.291
12246SOL    HW237083   7.681   5.476   1.148
12247SOL     OW37084   7.830   4.424   0.480
12247SOL    HW137085   7.875   4.334   0.477
12247SOL    HW237086   7.736   4.413   0.513
12248SOL     OW37087   7.987   3.788   0.512
12248SOL    HW137088   7.906   3.789   0.570
12248SOL    HW237089   7.990   3.871   0.457
12249SOL     OW37090   7.907   4.876   0.741
12249SOL    HW137091   7.836   4.849   0.806
12249SOL    HW237092   7.881   4.848   0.648
12250SOL     OW37093   7.526   4.280   1.386
12250SOL    HW137094   7.618   4.279   1.345
12250SOL    HW237095   7.520   4.354   1.453
12251SOL     OW37096   8.009   3.946   1.147
12251SOL    HW137097   8.047   3.862   1.184
12251SOL    HW237098   7.921   3.965   1.191
12252SOL     OW37099   7.858   4.537   1.251
12252SOL    HW137100   7.944   4.549   1.301
12252SOL    HW237101   7.816   4.450   1.278
12253SOL     OW37102   7.512   5.288   1.331
12253SOL    HW137103   7.466   5.370   1.297
12253SOL    HW237104   7.610   5.307   1.340
12254SOL     OW37105   7.815   4.824   0.501
12254SOL    HW137106   7.808   4.907   0.445
12254SOL    HW237107   7.819   4.744   0.441
12255SOL     OW37108   8.014   4.261   0.865
12255SOL    HW137109   8.026   4.327   0.791
12255SOL    HW237110   8.060   4.295   0.948
12256SOL     OW37111   7.850   4.475   1.598
12256SOL    HW137112   7.918   4.530   1.551
12256SOL    HW237113   7.890   4.387   1.625
12257SOL     OW37114   7.952   3.774   1.740
12257SOL    HW137115   7.910   3.717   1.670
12257SOL    HW237116   7.886   3.843   1.772
12258SOL     OW37117   8.021   4.594   1.029
12258SOL    HW137118   8.065   4.683   1.020
12258SOL    HW237119   7.958   4.594   1.106
12259SOL     OW37120   7.755   3.937   1.231
12259SOL    HW137121   7.732   3.974   1.321
12259SOL    HW237122   7.725   3.842   1.225
12260SOL     OW37123   7.485   5.034   1.282
12260SOL    HW137124   7.538   4.985   1.350
12260SOL    HW237125   7.507   5.132   1.287
12261SOL     OW37126   7.755   3.787   0.618
12261SOL    HW137127   7.744   3.881   0.651
12261SOL    HW237128   7.750   3.724   0.695
12262SOL     OW37129   7.798   4.622   1.804
12262SOL    HW137130   7.874   4.666   1.852
12262SOL    HW237131   7.833   4.575   1.722
12263SOL     OW37132   7.767   4.534   0.949
12263SOL    HW137133   7.860   4.570   0.954
12263SOL    HW237134   7.761   4.449   1.001
12264SOL     OW37135   7.787   4.233   1.006
12264SOL    HW137136   7.735   4.150   0.989
12264SOL    HW237137   7.864   4.238   0.942
12265SOL     OW37138   7.536   5.525   0.927
12265SOL    HW137139   7.494   5.439   0.900
12265SOL    HW237140   7.630   5.528   0.893
12266SOL     OW37141   7.488   4.268   1.114
12266SOL    HW137142   7.573   4.235   1.073
12266SOL    HW237143   7.501   4.283   1.212
12267SOL     OW37144   7.637   4.244   1.722
12267SOL    HW137145   7.696   4.204   1.652
12267SOL    HW237146   7.579   4.315   1.681
12268SOL     OW37147   7.700   5.288   1.744
12268SOL    HW137148   7.670   5.345   1.820
12268SOL    HW237149   7.693   5.191   1.770
12269SOL     OW37150   7.607   4.861   1.466
12269SOL    HW137151   7.629   4.800   1.542
12269SOL    HW237152   7.617   4.812   1.380
12270SOL     OW37153   7.531   4.982   1.022
12270SOL    HW137154   7.526   4.981   1.122
12270SOL    HW237155   7.448   4.941   0.984
12271SOL     OW37156   7.578   5.518   1.851
12271SOL    HW137157   7.537   5.444   1.904
12271SOL    HW237158   7.642   5.569   1.909
12272SOL     OW37159   7.711   4.050   0.720
12272SOL    HW137160   7.632   4.101   0.686
12272SOL    HW237161   7.702   4.035   0.818
12273SOL     OW37162   7.820   5.012   1.490
12273SOL    HW137163   7.807   5.105   1.456
12273SOL    HW237164   7.736   4.960   1.477
12274SOL     OW37165   8.038   5.211   0.491
12274SOL    HW137166   8.080   5.153   0.421
12274SOL    HW237167   7.994   5.290   0.447
12275SOL     OW37168   7.553   4.737   1.726
12275SOL    HW137169   7.476   4.704   1.780
12275SOL    HW237170   7.638   4.707   1.768
12276SOL     OW37171   7.838   5.465   1.560
12276SOL    HW137172   7.747   5.506   1.558
12276SOL    HW237173   7.831   5.371   1.592
12277SOL     OW37174   7.669   5.038   1.844
12277SOL    HW137175   7.604   4.965   1.823
12277SOL    HW237176   7.673   5.052   1.942
12278SOL     OW37177   7.527   4.964   0.653
12278SOL    HW137178   7.526   4.917   0.741
12278SOL    HW237179   7.609   4.936   0.602
12279SOL     OW37180   8.120   5.115   1.624
12279SOL    HW137181   8.042   5.065   1.662
12279SOL    HW237182   8.117   5.210   1.655
12280SOL     OW37183   7.765   4.271   1.280
12280SOL    HW137184   7.803   4.212   1.352
12280SOL    HW237185   7.805   4.245   1.192
12281SOL     OW37186   7.487   4.801   0.300
12281SOL    HW137187   7.586   4.790   0.291
12281SOL    HW237188   7.447   4.715   0.332
12282SOL     OW37189   7.678   4.352   1.975
12282SOL    HW137190   7.585   4.350   2.012
12282SOL    HW237191   7.679   4.313   1.883
12283SOL     OW37192   7.673   3.999   2.858
12283SOL    HW137193   7.708   3.982   2.950
12283SOL    HW237194   7.585   3.954   2.846
12284SOL     OW37195   7.467   4.092   2.509
12284SOL    HW137196   7.385   4.135   2.548
12284SOL    HW237197   7.439   4.019   2.446
12285SOL     OW37198   7.783   5.159   2.923
12285SOL    HW137199   7.705   5.128   2.870
12285SOL    HW237200   7.841   5.217   2.866
12286SOL     OW37201   7.886   4.116   3.361
12286SOL    HW137202   7.968   4.060   3.370
12286SOL    HW237203   7.805   4.058   3.365
12287SOL     OW37204   7.679   5.437   2.345
12287SOL    HW137205   7.713   5.514   2.399
12287SOL    HW237206   7.723   5.437   2.255
12288SOL     OW37207   7.678   5.158   2.400
12288SOL    HW137208   7.652   5.254   2.400
12288SOL    HW237209   7.607   5.104   2.445
12289SOL     OW37210   7.688   4.815   2.748
12289SOL    HW137211   7.702   4.731   2.800
12289SOL    HW237212   7.633   4.879   2.803
12290SOL     OW37213   7.570   4.367   2.425
12290SOL    HW137214   7.525   4.279   2.442
12290SOL    HW237215   7.569   4.421   2.509
12291SOL     OW37216   7.475   5.320   1.979
12291SOL    HW137217   7.456   5.224   2.000
12291SOL    HW237218   7.442   5.378   2.054
12292SOL     OW37219   7.561   4.461   3.459
12292SOL    HW137220   7.649   4.448   3.504
12292SOL    HW237221   7.548   4.558   3.437
12293SOL     OW37222   7.645   4.700   3.126
12293SOL    HW137223   7.734   4.655   3.112
12293SOL    HW237224   7.572   4.635   3.107
12294SOL     OW37225   7.765   3.975   3.663
12294SOL    HW137226   7.836   4.046   3.669
12294SOL    HW237227   7.677   4.014   3.691
12295SOL     OW37228   8.046   4.453   2.132
12295SOL    HW137229   8.070   4.522   2.064
12295SOL    HW237230   7.968   4.486   2.186
12296SOL     OW37231   7.524   4.535   2.651
12296SOL    HW137232   7.623   4.523   2.660
12296SOL    HW237233   7.500   4.630   2.672
12297SOL     OW37234   7.578   5.545   3.433
12297SOL    HW137235   7.568   5.530   3.532
12297SOL    HW237236   7.492   5.581   3.397
12298SOL     OW37237   7.998   3.920   2.747
12298SOL    HW137238   7.993   3.915   2.847
12298SOL    HW237239   8.000   4.016   2.718
12299SOL     OW37240   7.799   5.525   2.715
12299SOL    HW137241   7.849   5.439   2.721
12299SOL    HW237242   7.864   5.602   2.712
12300SOL     OW37243   7.769   4.667   2.104
12300SOL    HW137244   7.851   4.706   2.062
12300SOL    HW237245   7.742   4.585   2.055
12301SOL     OW37246   7.909   4.990   3.589
12301SOL    HW137247   7.859   4.991   3.503
12301SOL    HW237248   7.846   4.972   3.665
12302SOL     OW37249   7.697   5.509   3.103
12302SOL    HW137250   7.754   5.444   3.153
12302SOL    HW237251   7.681   5.476   3.010
12303SOL     OW37252   7.830   4.424   2.342
12303SOL    HW137253   7.875   4.334   2.339
12303SOL    HW237254   7.736   4.413   2.375
12304SOL     OW37255   7.987   3.788   2.374
12304SOL    HW137256   7.906   3.789   2.432
12304SOL    HW237257   7.990   3.871   2.319
12305SOL     OW37258   7.745   3.759   2.033
12305SOL    HW137259   7.794   3.843   2.012
12305SOL    HW237260   7.807   3.694   2.078
12306SOL     OW37261   7.907   4.876   2.603
12306SOL    HW137262   7.836   4.849   2.668
12306SOL    HW237263   7.881   4.848   2.510
12307SOL     OW37264   7.526   4.280   3.248
12307SOL    HW137265   7.618   4.279   3.207
12307SOL    HW237266   7.520   4.354   3.315
12308SOL     OW37267   8.009   3.946   3.009
12308SOL    HW137268   8.047   3.862   3.046
12308SOL    HW237269   7.921   3.965   3.053
12309SOL     OW37270   7.858   4.537   3.113
12309SOL    HW137271   7.944   4.549   3.163
12309SOL    HW237272   7.816   4.450   3.140
12310SOL     OW37273   7.512   5.288   3.193
12310SOL    HW137274   7.466   5.370   3.159
12310SOL    HW237275   7.610   5.307   3.202
12311SOL     OW37276   7.815   4.824   2.363
12311SOL    HW137277   7.808   4.907   2.307
12311SOL    HW237278   7.819   4.744   2.303
12312SOL     OW37279   8.014   4.261   2.727
12312SOL    HW137280   8.026   4.327   2.653
12312SOL    HW237281   8.060   4.295   2.810
12313SOL     OW37282   7.802   5.234   3.191
12313SOL    HW137283   7.781   5.190   3.104
12313SOL    HW237284   7.899   5.260   3.194
12314SOL     OW37285   7.850   4.475   3.460
12314SOL    HW137286   7.918   4.530   3.413
12314SOL    HW237287   7.890   4.387   3.487
12315SOL     OW37288   7.952   3.774   3.602
12315SOL    HW137289   7.910   3.717   3.532
12315SOL    HW237290   7.886   3.843   3.634
12316SOL     OW37291   8.021   4.594   2.891
12316SOL    HW137292   8.065   4.683   2.882
12316SOL    HW237293   7.958   4.594   2.968
12317SOL     OW37294   7.755   3.937   3.093
12317SOL    HW137295   7.732   3.974   3.183
12317SOL    HW237296   7.725   3.842   3.087
12318SOL     OW37297   7.485   5.034   3.144
12318SOL    HW137298   7.538   4.985   3.212
12318SOL    HW237299   7.507   5.132   3.149
12319SOL     OW37300   7.755   3.787   2.480
12319SOL    HW137301   7.744   3.881   2.513
12319SOL    HW237302   7.750   3.724   2.557
12320SOL     OW37303   7.798   4.622   3.666
12320SOL    HW137304   7.874   4.666   3.714
12320SOL    HW237305   7.833   4.575   3.584
12321SOL     OW37306   7.767   4.534   2.811
12321SOL    HW137307   7.860   4.570   2.816
12321SOL    HW237308   7.761   4.449   2.863
12322SOL     OW37309   7.787   4.233   2.868
12322SOL    HW137310   7.735   4.150   2.851
12322SOL    HW237311   7.864   4.238   2.804
12323SOL     OW37312   7.456   5.050   2.062
12323SOL    HW137313   7.363   5.071   2.031
12323SOL    HW237314   7.466   4.951   2.075
12324SOL     OW37315   7.536   5.525   2.789
12324SOL    HW137316   7.494   5.439   2.762
12324SOL    HW237317   7.630   5.528   2.755
12325SOL     OW37318   7.488   4.268   2.976
12325SOL    HW137319   7.573   4.235   2.935
12325SOL    HW237320   7.501   4.283   3.074
12326SOL     OW37321   7.637   4.244   3.584
12326SOL    HW137322   7.696   4.204   3.514
12326SOL    HW237323   7.579   4.315   3.543
12327SOL     OW37324   7.700   5.288   3.606
12327SOL    HW137325   7.670   5.345   3.682
12327SOL    HW237326   7.693   5.191   3.632
12328SOL     OW37327   7.921   4.224   2.053
12328SOL    HW137328   7.982   4.304   2.057
12328SOL    HW237329   7.826   4.255   2.060
12329SOL     OW37330   7.607   4.861   3.328
12329SOL    HW137331   7.629   4.800   3.404
12329SOL    HW237332   7.617   4.812   3.242
12330SOL     OW37333   7.531   4.982   2.884
12330SOL    HW137334   7.526   4.981   2.984
12330SOL    HW237335   7.448   4.941   2.846
12331SOL     OW37336   7.578   5.518   3.713
12331SOL    HW137337   7.537   5.444   3.766
12331SOL    HW237338   7.642   5.569   3.771
12332SOL     OW37339   7.711   4.050   2.582
12332SOL    HW137340   7.632   4.101   2.548
12332SOL    HW237341   7.702   4.035   2.680
12333SOL     OW37342   7.820   5.012   3.352
12333SOL    HW137343   7.807   5.105   3.318
12333SOL    HW237344   7.736   4.960   3.339
12334SOL     OW37345   8.038   5.211   2.353
12334SOL    HW137346   8.080   5.153   2.283
12334SOL    HW237347   7.994   5.290   2.309
12335SOL     OW37348   7.703   5.072   2.152
12335SOL    HW137349   7.607   5.073   2.125
12335SOL    HW237350   7.715   5.125   2.236
12336SOL     OW37351   7.553   4.737   3.588
12336SOL    HW137352   7.476   4.704   3.642
12336SOL    HW237353   7.638   4.707   3.630
12337SOL     OW37354   7.523   4.069   1.895
12337SOL    HW137355   7.431   4.041   1.866
12337SOL    HW237356   7.554   4.146   1.839
12338SOL     OW37357   7.520   3.890   2.180
12338SOL    HW137358   7.503   3.973   2.126
12338SOL    HW237359   7.610   3.853   2.158
12339SOL     OW37360   7.838   5.465   3.422
12339SOL    HW137361   7.747   5.506   3.420
12339SOL    HW237362   7.831   5.371   3.454
12340SOL     OW37363   7.669   5.038   3.706
12340SOL    HW137364   7.604   4.965   3.685
12340SOL    HW237365   7.673   5.052   3.804
12341SOL     OW37366   7.527   4.964   2.515
12341SOL    HW137367   7.526   4.917   2.603
12341SOL    HW237368   7.609   4.936   2.464
12342SOL     OW37369   8.120   5.115   3.486
12342SOL    HW137370   8.042   5.065   3.524
12342SOL    HW237371   8.117   5.210   3.517
12343SOL     OW37372   7.765   4.271   3.142
12343SOL    HW137373   7.803   4.212   3.214
12343SOL    HW237374   7.805   4.245   3.054
12344SOL     OW37375   7.487   4.801   2.162
12344SOL    HW137376   7.586   4.790   2.153
12344SOL    HW237377   7.447   4.715   2.194
12345SOL     OW37378   7.678   4.352   3.837
12345SOL    HW137379   7.585   4.350   3.874
12345SOL    HW237380   7.679   4.313   3.745
12346SOL     OW37381   7.673   3.999   4.720
12346SOL    HW137382   7.708   3.982   4.812
12346SOL    HW237383   7.585   3.954   4.708
12347SOL     OW37384   7.467   4.092   4.371
12347SOL    HW137385   7.385   4.135   4.410
12347SOL    HW237386   7.439   4.019   4.308
12348SOL     OW37387   7.783   5.159   4.785
12348SOL    HW137388   7.705   5.128   4.732
12348SOL    HW237389   7.841   5.217   4.728
12349SOL     OW37390   7.886   4.116   5.223
12349SOL    HW137391   7.968   4.060   5.232
12349SOL    HW237392   7.805   4.058   5.227
12350SOL     OW37393   7.679   5.437   4.207
12350SOL    HW137394   7.713   5.514   4.261
12350SOL    HW237395   7.723   5.437   4.117
12351SOL     OW37396   7.678   5.158   4.262
12351SOL    HW137397   7.652   5.254   4.262
12351SOL    HW237398   7.607   5.104   4.307
12352SOL     OW37399   7.688   4.815   4.610
12352SOL    HW137400   7.702   4.731   4.662
12352SOL    HW237401   7.633   4.879   4.665
12353SOL     OW37402   7.570   4.367   4.287
12353SOL    HW137403   7.525   4.279   4.304
12353SOL    HW237404   7.569   4.421   4.371
12354SOL     OW37405   7.475   5.320   3.841
12354SOL    HW137406   7.456   5.224   3.862
12354SOL    HW237407   7.442   5.378   3.916
12355SOL     OW37408   7.561   4.461   5.321
12355SOL    HW137409   7.649   4.448   5.366
12355SOL    HW237410   7.548   4.558   5.299
12356SOL     OW37411   7.645   4.700   4.988
12356SOL    HW137412   7.734   4.655   4.974
12356SOL    HW237413   7.572   4.635   4.969
12357SOL     OW37414   7.765   3.975   5.525
12357SOL    HW137415   7.836   4.046   5.531
12357SOL    HW237416   7.677   4.014   5.553
12358SOL     OW37417   8.046   4.453   3.994
12358SOL    HW137418   8.070   4.522   3.926
12358SOL    HW237419   7.968   4.486   4.048
12359SOL     OW37420   7.524   4.535   4.513
12359SOL    HW137421   7.623   4.523   4.522
12359SOL    HW237422   7.500   4.630   4.534
12360SOL     OW37423   7.578   5.545   5.295
12360SOL    HW137424   7.568   5.530   5.394
12360SOL    HW237425   7.492   5.581   5.259
12361SOL     OW37426   7.998   3.920   4.609
12361SOL    HW137427   7.993   3.915   4.709
12361SOL    HW237428   8.000   4.016   4.580
12362SOL     OW37429   7.799   5.525   4.577
12362SOL    HW137430   7.849   5.439   4.583
12362SOL    HW237431   7.864   5.602   4.574
12363SOL     OW37432   7.769   4.667   3.966
12363SOL    HW137433   7.851   4.706   3.924
12363SOL    HW237434   7.742   4.585   3.917
12364SOL     OW37435   7.909   4.990   5.451
12364SOL    HW137436   7.859   4.991   5.365
12364SOL    HW237437   7.846   4.972   5.527
12365SOL     OW37438   7.650   4.009   5.222
12365SOL    HW137439   7.570   4.069   5.209
12365SOL    HW237440   7.640   3.960   5.308
12366SOL     OW37441   7.697   5.509   4.965
12366SOL    HW137442   7.754   5.444   5.015
12366SOL    HW237443   7.681   5.476   4.872
12367SOL     OW37444   7.830   4.424   4.204
12367SOL    HW137445   7.875   4.334   4.201
12367SOL    HW237446   7.736   4.413   4.237
12368SOL     OW37447   7.987   3.788   4.236
12368SOL    HW137448   7.906   3.789   4.294
12368SOL    HW237449   7.990   3.871   4.181
12369SOL     OW37450   7.745   3.759   3.895
12369SOL    HW137451   7.794   3.843   3.874
12369SOL    HW237452   7.807   3.694   3.940
12370SOL     OW37453   7.907   4.876   4.465
12370SOL    HW137454   7.836   4.849   4.530
12370SOL    HW237455   7.881   4.848   4.372
12371SOL     OW37456   7.526   4.280   5.110
12371SOL    HW137457   7.618   4.279   5.069
12371SOL    HW237458   7.520   4.354   5.177
12372SOL     OW37459   8.009   3.946   4.871
12372SOL    HW137460   8.047   3.862   4.908
12372SOL    HW237461   7.921   3.965   4.915
12373SOL     OW37462   7.858   4.537   4.975
12373SOL    HW137463   7.944   4.549   5.025
12373SOL    HW237464   7.816   4.450   5.002
12374SOL     OW37465   7.512   5.288   5.055
12374SOL    HW137466   7.466   5.370   5.021
12374SOL    HW237467   7.610   5.307   5.064
12375SOL     OW37468   7.815   4.824   4.225
12375SOL    HW137469   7.808   4.907   4.169
12375SOL    HW237470   7.819   4.744   4.165
12376SOL     OW37471   8.014   4.261   4.589
12376SOL    HW137472   8.026   4.327   4.515
12376SOL    HW237473   8.060   4.295   4.672
12377SOL     OW37474   7.802   5.234   5.053
12377SOL    HW137475   7.781   5.190   4.966
12377SOL    HW237476   7.899   5.260   5.056
12378SOL     OW37477   7.850   4.475   5.322
12378SOL    HW137478   7.918   4.530   5.275
12378SOL    HW237479   7.890   4.387   5.349
12379SOL     OW37480   7.952   3.774   5.464
12379SOL    HW137481   7.910   3.717   5.394
12379SOL    HW237482   7.886   3.843   5.496
12380SOL     OW37483   8.021   4.594   4.753
12380SOL    HW137484   8.065   4.683   4.744
12380SOL    HW237485   7.958   4.594   4.830
12381SOL     OW37486   7.755   3.937   4.955
12381SOL    HW137487   7.732   3.974   5.045
12381SOL    HW237488   7.725   3.842   4.949
12382SOL     OW37489   7.485   5.034   5.006
12382SOL    HW137490   7.538   4.985   5.074
12382SOL    HW237491   7.507   5.132   5.011
12383SOL     OW37492   7.755   3.787   4.342
12383SOL    HW137493   7.744   3.881   4.375
12383SOL    HW237494   7.750   3.724   4.419
12384SOL     OW37495   7.798   4.622   5.528
12384SOL    HW137496   7.874   4.666   5.576
12384SOL    HW237497   7.833   4.575   5.446
12385SOL     OW37498   7.767   4.534   4.673
12385SOL    HW137499   7.860   4.570   4.678
12385SOL    HW237500   7.761   4.449   4.725
12386SOL     OW37501   7.787   4.233   4.730
12386SOL    HW137502   7.735   4.150   4.713
12386SOL    HW237503   7.864   4.238   4.666
12387SOL     OW37504   7.456   5.050   3.924
12387SOL    HW137505   7.363   5.071   3.893
12387SOL    HW237506   7.466   4.951   3.937
12388SOL     OW37507   7.536   5.525   4.651
12388SOL    HW137508   7.494   5.439   4.624
12388SOL    HW237509   7.630   5.528   4.617
12389SOL     OW37510   7.488   4.268   4.838
12389SOL    HW137511   7.573   4.235   4.797
12389SOL    HW237512   7.501   4.283   4.936
12390SOL     OW37513   7.637   4.244   5.446
12390SOL    HW137514   7.696   4.204   5.376
12390SOL    HW237515   7.579   4.315   5.405
12391SOL     OW37516   7.700   5.288   5.468
12391SOL    HW137517   7.670   5.345   5.544
12391SOL    HW237518   7.693   5.191   5.494
12392SOL     OW37519   7.921   4.224   3.915
12392SOL    HW137520   7.982   4.304   3.919
12392SOL    HW237521   7.826   4.255   3.922
12393SOL     OW37522   7.607   4.861   5.190
12393SOL    HW137523   7.629   4.800   5.266
12393SOL    HW237524   7.617   4.812   5.104
12394SOL     OW37525   7.531   4.982   4.746
12394SOL    HW137526   7.526   4.981   4.846
12394SOL    HW237527   7.448   4.941   4.708
12395SOL     OW37528   7.578   5.518   5.575
12395SOL    HW137529   7.537   5.444   5.628
12395SOL    HW237530   7.642   5.569   5.633
12396SOL     OW37531   7.711   4.050   4.444
12396SOL    HW137532   7.632   4.101   4.410
12396SOL    HW237533   7.702   4.035   4.542
12397SOL     OW37534   7.820   5.012   5.214
12397SOL    HW137535   7.807   5.105   5.180
12397SOL    HW237536   7.736   4.960   5.201
12398SOL     OW37537   8.038   5.211   4.215
12398SOL    HW137538   8.080   5.153   4.145
12398SOL    HW237539   7.994   5.290   4.171
12399SOL     OW37540   7.703   5.072   4.014
12399SOL    HW137541   7.607   5.073   3.987
12399SOL    HW237542   7.715   5.125   4.098
12400SOL     OW37543   7.553   4.737   5.450
12400SOL    HW137544   7.476   4.704   5.504
12400SOL    HW237545   7.638   4.707   5.492
12401SOL     OW37546   7.523   4.069   3.757
12401SOL    HW137547   7.431   4.041   3.728
12401SOL    HW237548   7.554   4.146   3.701
12402SOL     OW37549   7.520   3.890   4.042
12402SOL    HW137550   7.503   3.973   3.988
12402SOL    HW237551   7.610   3.853   4.020
12403SOL     OW37552   7.838   5.465   5.284
12403SOL    HW137553   7.747   5.506   5.282
12403SOL    HW237554   7.831   5.371   5.316
12404SOL     OW37555   7.669   5.038   5.568
12404SOL    HW137556   7.604   4.965   5.547
12404SOL    HW237557   7.673   5.052   5.666
12405SOL     OW37558   7.527   4.964   4.377
12405SOL    HW137559   7.526   4.917   4.465
12405SOL    HW237560   7.609   4.936   4.326
12406SOL     OW37561   8.120   5.115   5.348
12406SOL    HW137562   8.042   5.065   5.386
12406SOL    HW237563   8.117   5.210   5.379
12407SOL     OW37564   7.765   4.271   5.004
12407SOL    HW137565   7.803   4.212   5.076
12407SOL    HW237566   7.805   4.245   4.916
12408SOL     OW37567   7.487   4.801   4.024
12408SOL    HW137568   7.586   4.790   4.015
12408SOL    HW237569   7.447   4.715   4.056
12409SOL     OW37570   7.678   4.352   5.699
12409SOL    HW137571   7.585   4.350   5.736
12409SOL    HW237572   7.679   4.313   5.607
12410SOL     OW37573   7.467   4.092   6.233
12410SOL    HW137574   7.385   4.135   6.272
12410SOL    HW237575   7.439   4.019   6.170
12411SOL     OW37576   7.679   5.437   6.069
12411SOL    HW137577   7.713   5.514   6.123
12411SOL    HW237578   7.723   5.437   5.979
12412SOL     OW37579   7.678   5.158   6.124
12412SOL    HW137580   7.652   5.254   6.124
12412SOL    HW237581   7.607   5.104   6.169
12413SOL     OW37582   7.570   4.367   6.149
12413SOL    HW137583   7.525   4.279   6.166
12413SOL    HW237584   7.569   4.421   6.233
12414SOL     OW37585   7.475   5.320   5.703
12414SOL    HW137586   7.456   5.224   5.724
12414SOL    HW237587   7.442   5.378   5.778
12415SOL     OW37588   8.046   4.453   5.856
12415SOL    HW137589   8.070   4.522   5.788
12415SOL    HW237590   7.968   4.486   5.910
12416SOL     OW37591   7.524   4.535   6.375
12416SOL    HW137592   7.623   4.523   6.384
12416SOL    HW237593   7.500   4.630   6.396
12417SOL     OW37594   7.799   5.525   6.439
12417SOL    HW137595   7.849   5.439   6.445
12417SOL    HW237596   7.864   5.602   6.436
12418SOL     OW37597   7.769   4.667   5.828
12418SOL    HW137598   7.851   4.706   5.786
12418SOL    HW237599   7.742   4.585   5.779
12419SOL     OW37600   7.830   4.424   6.066
12419SOL    HW137601   7.875   4.334   6.063
12419SOL    HW237602   7.736   4.413   6.099
12420SOL     OW37603   7.987   3.788   6.098
12420SOL    HW137604   7.906   3.789   6.156
12420SOL    HW237605   7.990   3.871   6.043
12421SOL     OW37606   7.745   3.759   5.757
12421SOL    HW137607   7.794   3.843   5.736
12421SOL    HW237608   7.807   3.694   5.802
12422SOL     OW37609   7.907   4.876   6.327
12422SOL    HW137610   7.836   4.849   6.392
12422SOL    HW237611   7.881   4.848   6.234
12423SOL     OW37612   8.009   3.946   6.733
12423SOL    HW137613   8.047   3.862   6.770
12423SOL    HW237614   7.921   3.965   6.777
12424SOL     OW37615   7.815   4.824   6.087
12424SOL    HW137616   7.808   4.907   6.031
12424SOL    HW237617   7.819   4.744   6.027
12425SOL     OW37618   8.014   4.261   6.451
12425SOL    HW137619   8.026   4.327   6.377
12425SOL    HW237620   8.060   4.295   6.534
12426SOL     OW37621   8.021   4.594   6.615
12426SOL    HW137622   8.065   4.683   6.606
12426SOL    HW237623   7.958   4.594   6.692
12427SOL     OW37624   7.755   3.787   6.204
12427SOL    HW137625   7.744   3.881   6.237
12427SOL    HW237626   7.750   3.724   6.281
12428SOL     OW37627   7.767   4.534   6.535
12428SOL    HW137628   7.860   4.570   6.540
12428SOL    HW237629   7.761   4.449   6.587
12429SOL     OW37630   7.787   4.233   6.592
12429SOL    HW137631   7.735   4.150   6.575
12429SOL    HW237632   7.864   4.238   6.528
12430SOL     OW37633   7.456   5.050   5.786
12430SOL    HW137634   7.363   5.071   5.755
12430SOL    HW237635   7.466   4.951   5.799
12431SOL     OW37636   7.536   5.525   6.513
12431SOL    HW137637   7.494   5.439   6.486
12431SOL    HW237638   7.630   5.528   6.479
12432SOL     OW37639   7.921   4.224   5.777
12432SOL    HW137640   7.982   4.304   5.781
12432SOL    HW237641   7.826   4.255   5.784
12433SOL     OW37642   7.531   4.982   6.608
12433SOL    HW137643   7.526   4.981   6.708
12433SOL    HW237644   7.448   4.941   6.570
12434SOL     OW37645   7.711   4.050   6.306
12434SOL    HW137646   7.632   4.101   6.272
12434SOL    HW237647   7.702   4.035   6.404
12435SOL     OW37648   8.038   5.211   6.077
12435SOL    HW137649   8.080   5.153   6.007
12435SOL    HW237650   7.994   5.290   6.033
12436SOL     OW37651   7.703   5.072   5.876
12436SOL    HW137652   7.607   5.073   5.849
12436SOL    HW237653   7.715   5.125   5.960
12437SOL     OW37654   7.523   4.069   5.619
12437SOL    HW137655   7.431   4.041   5.590
12437SOL    HW237656   7.554   4.146   5.563
12438SOL     OW37657   7.520   3.890   5.904
12438SOL    HW137658   7.503   3.973   5.850
12438SOL    HW237659   7.610   3.853   5.882
12439SOL     OW37660   7.527   4.964   6.239
12439SOL    HW137661   7.526   4.917   6.327
12439SOL    HW237662   7.609   4.936   6.188
12440SOL     OW37663   7.765   4.271   6.866
12440SOL    HW137664   7.803   4.212   6.938
12440SOL    HW237665   7.805   4.245   6.778
12441SOL     OW37666   7.487   4.801   5.886
12441SOL    HW137667   7.586   4.790   5.877
12441SOL    HW237668   7.447   4.715   5.918
12442SOL     OW37669   7.673   5.861   0.996
12442SOL    HW137670   7.708   5.844   1.088
12442SOL    HW237671   7.585   5.816   0.984
12443SOL     OW37672   7.467   5.954   0.647
12443SOL    HW137673   7.385   5.997   0.686
12443SOL    HW237674   7.439   5.881   0.584
12444SOL     OW37675   7.783   7.021   1.061
12444SOL    HW137676   7.705   6.990   1.008
12444SOL    HW237677   7.841   7.079   1.004
12445SOL     OW37678   7.886   5.978   1.499
12445SOL    HW137679   7.968   5.922   1.508
12445SOL    HW237680   7.805   5.920   1.503
12446SOL     OW37681   7.679   7.299   0.483
12446SOL    HW137682   7.713   7.376   0.537
12446SOL    HW237683   7.723   7.299   0.393
12447SOL     OW37684   7.678   7.020   0.538
12447SOL    HW137685   7.652   7.116   0.538
12447SOL    HW237686   7.607   6.966   0.583
12448SOL     OW37687   7.688   6.677   0.886
12448SOL    HW137688   7.702   6.593   0.938
12448SOL    HW237689   7.633   6.741   0.941
12449SOL     OW37690   7.570   6.229   0.563
12449SOL    HW137691   7.525   6.141   0.580
12449SOL    HW237692   7.569   6.283   0.647
12450SOL     OW37693   7.561   6.323   1.597
12450SOL    HW137694   7.649   6.310   1.642
12450SOL    HW237695   7.548   6.420   1.575
12451SOL     OW37696   7.645   6.562   1.264
12451SOL    HW137697   7.734   6.517   1.250
12451SOL    HW237698   7.572   6.497   1.245
12452SOL     OW37699   7.765   5.837   1.801
12452SOL    HW137700   7.836   5.908   1.807
12452SOL    HW237701   7.677   5.876   1.829
12453SOL     OW37702   8.046   6.315   0.270
12453SOL    HW137703   8.070   6.384   0.202
12453SOL    HW237704   7.968   6.348   0.324
12454SOL     OW37705   7.524   6.397   0.789
12454SOL    HW137706   7.623   6.385   0.798
12454SOL    HW237707   7.500   6.492   0.810
12455SOL     OW37708   7.578   7.407   1.571
12455SOL    HW137709   7.568   7.392   1.670
12455SOL    HW237710   7.492   7.443   1.535
12456SOL     OW37711   7.998   5.782   0.885
12456SOL    HW137712   7.993   5.777   0.985
12456SOL    HW237713   8.000   5.878   0.856
12457SOL     OW37714   7.799   7.387   0.853
12457SOL    HW137715   7.849   7.301   0.859
12457SOL    HW237716   7.864   7.464   0.850
12458SOL     OW37717   7.909   6.852   1.727
12458SOL    HW137718   7.859   6.853   1.641
12458SOL    HW237719   7.846   6.834   1.803
12459SOL     OW37720   7.650   5.871   1.498
12459SOL    HW137721   7.570   5.931   1.485
12459SOL    HW237722   7.640   5.822   1.584
12460SOL     OW37723   7.697   7.371   1.241
12460SOL    HW137724   7.754   7.306   1.291
12460SOL    HW237725   7.681   7.338   1.148
12461SOL     OW37726   7.830   6.286   0.480
12461SOL    HW137727   7.875   6.196   0.477
12461SOL    HW237728   7.736   6.275   0.513
12462SOL     OW37729   7.987   5.650   0.512
12462SOL    HW137730   7.906   5.651   0.570
12462SOL    HW237731   7.990   5.733   0.457
12463SOL     OW37732   7.907   6.738   0.741
12463SOL    HW137733   7.836   6.711   0.806
12463SOL    HW237734   7.881   6.710   0.648
12464SOL     OW37735   7.526   6.142   1.386
12464SOL    HW137736   7.618   6.141   1.345
12464SOL    HW237737   7.520   6.216   1.453
12465SOL     OW37738   8.009   5.808   1.147
12465SOL    HW137739   8.047   5.724   1.184
12465SOL    HW237740   7.921   5.827   1.191
12466SOL     OW37741   7.858   6.399   1.251
12466SOL    HW137742   7.944   6.411   1.301
12466SOL    HW237743   7.816   6.312   1.278
12467SOL     OW37744   7.512   7.150   1.331
12467SOL    HW137745   7.466   7.232   1.297
12467SOL    HW237746   7.610   7.169   1.340
12468SOL     OW37747   7.815   6.686   0.501
12468SOL    HW137748   7.808   6.769   0.445
12468SOL    HW237749   7.819   6.606   0.441
12469SOL     OW37750   8.014   6.123   0.865
12469SOL    HW137751   8.026   6.189   0.791
12469SOL    HW237752   8.060   6.157   0.948
12470SOL     OW37753   7.802   7.096   1.329
12470SOL    HW137754   7.781   7.052   1.242
12470SOL    HW237755   7.899   7.122   1.332
12471SOL     OW37756   7.850   6.337   1.598
12471SOL    HW137757   7.918   6.392   1.551
12471SOL    HW237758   7.890   6.249   1.625
12472SOL     OW37759   7.952   5.636   1.740
12472SOL    HW137760   7.910   5.579   1.670
12472SOL    HW237761   7.886   5.705   1.772
12473SOL     OW37762   8.021   6.456   1.029
12473SOL    HW137763   8.065   6.545   1.020
12473SOL    HW237764   7.958   6.456   1.106
12474SOL     OW37765   7.755   5.799   1.231
12474SOL    HW137766   7.732   5.836   1.321
12474SOL    HW237767   7.725   5.704   1.225
12475SOL     OW37768   7.485   6.896   1.282
12475SOL    HW137769   7.538   6.847   1.350
12475SOL    HW237770   7.507   6.994   1.287
12476SOL     OW37771   7.755   5.649   0.618
12476SOL    HW137772   7.744   5.743   0.651
12476SOL    HW237773   7.750   5.586   0.695
12477SOL     OW37774   7.798   6.484   1.804
12477SOL    HW137775   7.874   6.528   1.852
12477SOL    HW237776   7.833   6.437   1.722
12478SOL     OW37777   7.767   6.396   0.949
12478SOL    HW137778   7.860   6.432   0.954
12478SOL    HW237779   7.761   6.311   1.001
12479SOL     OW37780   7.787   6.095   1.006
12479SOL    HW137781   7.735   6.012   0.989
12479SOL    HW237782   7.864   6.100   0.942
12480SOL     OW37783   7.536   7.387   0.927
12480SOL    HW137784   7.494   7.301   0.900
12480SOL    HW237785   7.630   7.390   0.893
12481SOL     OW37786   7.488   6.130   1.114
12481SOL    HW137787   7.573   6.097   1.073
12481SOL    HW237788   7.501   6.145   1.212
12482SOL     OW37789   7.637   6.106   1.722
12482SOL    HW137790   7.696   6.066   1.652
12482SOL    HW237791   7.579   6.177   1.681
12483SOL     OW37792   7.700   7.150   1.744
12483SOL    HW137793   7.670   7.207   1.820
12483SOL    HW237794   7.693   7.053   1.770
12484SOL     OW37795   7.607   6.723   1.466
12484SOL    HW137796   7.629   6.662   1.542
12484SOL    HW237797   7.617   6.674   1.380
12485SOL     OW37798   7.531   6.844   1.022
12485SOL    HW137799   7.526   6.843   1.122
12485SOL    HW237800   7.448   6.803   0.984
12486SOL     OW37801   7.578   7.380   1.851
12486SOL    HW137802   7.537   7.306   1.904
12486SOL    HW237803   7.642   7.431   1.909
12487SOL     OW37804   7.711   5.912   0.720
12487SOL    HW137805   7.632   5.963   0.686
12487SOL    HW237806   7.702   5.897   0.818
12488SOL     OW37807   7.820   6.874   1.490
12488SOL    HW137808   7.807   6.967   1.456
12488SOL    HW237809   7.736   6.822   1.477
12489SOL     OW37810   8.038   7.073   0.491
12489SOL    HW137811   8.080   7.015   0.421
12489SOL    HW237812   7.994   7.152   0.447
12490SOL     OW37813   7.553   6.599   1.726
12490SOL    HW137814   7.476   6.566   1.780
12490SOL    HW237815   7.638   6.569   1.768
12491SOL     OW37816   7.838   7.327   1.560
12491SOL    HW137817   7.747   7.368   1.558
12491SOL    HW237818   7.831   7.233   1.592
12492SOL     OW37819   7.669   6.900   1.844
12492SOL    HW137820   7.604   6.827   1.823
12492SOL    HW237821   7.673   6.914   1.942
12493SOL     OW37822   7.527   6.826   0.653
12493SOL    HW137823   7.526   6.779   0.741
12493SOL    HW237824   7.609   6.798   0.602
12494SOL     OW37825   8.120   6.977   1.624
12494SOL    HW137826   8.042   6.927   1.662
12494SOL    HW237827   8.117   7.072   1.655
12495SOL     OW37828   7.765   6.133   1.280
12495SOL    HW137829   7.803   6.074   1.352
12495SOL    HW237830   7.805   6.107   1.192
12496SOL     OW37831   7.487   6.663   0.300
12496SOL    HW137832   7.586   6.652   0.291
12496SOL    HW237833   7.447   6.577   0.332
12497SOL     OW37834   7.678   6.214   1.975
12497SOL    HW137835   7.585   6.212   2.012
12497SOL    HW237836   7.679   6.175   1.883
12498SOL     OW37837   7.673   5.861   2.858
12498SOL    HW137838   7.708   5.844   2.950
12498SOL    HW237839   7.585   5.816   2.846
12499SOL     OW37840   7.467   5.954   2.509
12499SOL    HW137841   7.385   5.997   2.548
12499SOL    HW237842   7.439   5.881   2.446
12500SOL     OW37843   7.783   7.021   2.923
12500SOL    HW137844   7.705   6.990   2.870
12500SOL    HW237845   7.841   7.079   2.866
12501SOL     OW37846   7.886   5.978   3.361
12501SOL    HW137847   7.968   5.922   3.370
12501SOL    HW237848   7.805   5.920   3.365
12502SOL     OW37849   7.679   7.299   2.345
12502SOL    HW137850   7.713   7.376   2.399
12502SOL    HW237851   7.723   7.299   2.255
12503SOL     OW37852   7.678   7.020   2.400
12503SOL    HW137853   7.652   7.116   2.400
12503SOL    HW237854   7.607   6.966   2.445
12504SOL     OW37855   7.688   6.677   2.748
12504SOL    HW137856   7.702   6.593   2.800
12504SOL    HW237857   7.633   6.741   2.803
12505SOL     OW37858   7.570   6.229   2.425
12505SOL    HW137859   7.525   6.141   2.442
12505SOL    HW237860   7.569   6.283   2.509
12506SOL     OW37861   7.475   7.182   1.979
12506SOL    HW137862   7.456   7.086   2.000
12506SOL    HW237863   7.442   7.240   2.054
12507SOL     OW37864   7.561   6.323   3.459
12507SOL    HW137865   7.649   6.310   3.504
12507SOL    HW237866   7.548   6.420   3.437
12508SOL     OW37867   7.645   6.562   3.126
12508SOL    HW137868   7.734   6.517   3.112
12508SOL    HW237869   7.572   6.497   3.107
12509SOL     OW37870   7.765   5.837   3.663
12509SOL    HW137871   7.836   5.908   3.669
12509SOL    HW237872   7.677   5.876   3.691
12510SOL     OW37873   8.046   6.315   2.132
12510SOL    HW137874   8.070   6.384   2.064
12510SOL    HW237875   7.968   6.348   2.186
12511SOL     OW37876   7.524   6.397   2.651
12511SOL    HW137877   7.623   6.385   2.660
12511SOL    HW237878   7.500   6.492   2.672
12512SOL     OW37879   7.578   7.407   3.433
12512SOL    HW137880   7.568   7.392   3.532
12512SOL    HW237881   7.492   7.443   3.397
12513SOL     OW37882   7.998   5.782   2.747
12513SOL    HW137883   7.993   5.777   2.847
12513SOL    HW237884   8.000   5.878   2.718
12514SOL     OW37885   7.799   7.387   2.715
12514SOL    HW137886   7.849   7.301   2.721
12514SOL    HW237887   7.864   7.464   2.712
12515SOL     OW37888   7.769   6.529   2.104
12515SOL    HW137889   7.851   6.568   2.062
12515SOL    HW237890   7.742   6.447   2.055
12516SOL     OW37891   7.909   6.852   3.589
12516SOL    HW137892   7.859   6.853   3.503
12516SOL    HW237893   7.846   6.834   3.665
12517SOL     OW37894   7.650   5.871   3.360
12517SOL    HW137895   7.570   5.931   3.347
12517SOL    HW237896   7.640   5.822   3.446
12518SOL     OW37897   7.697   7.371   3.103
12518SOL    HW137898   7.754   7.306   3.153
12518SOL    HW237899   7.681   7.338   3.010
12519SOL     OW37900   7.830   6.286   2.342
12519SOL    HW137901   7.875   6.196   2.339
12519SOL    HW237902   7.736   6.275   2.375
12520SOL     OW37903   7.987   5.650   2.374
12520SOL    HW137904   7.906   5.651   2.432
12520SOL    HW237905   7.990   5.733   2.319
12521SOL     OW37906   7.745   5.621   2.033
12521SOL    HW137907   7.794   5.705   2.012
12521SOL    HW237908   7.807   5.556   2.078
12522SOL     OW37909   7.907   6.738   2.603
12522SOL    HW137910   7.836   6.711   2.668
12522SOL    HW237911   7.881   6.710   2.510
12523SOL     OW37912   7.526   6.142   3.248
12523SOL    HW137913   7.618   6.141   3.207
12523SOL    HW237914   7.520   6.216   3.315
12524SOL     OW37915   8.009   5.808   3.009
12524SOL    HW137916   8.047   5.724   3.046
12524SOL    HW237917   7.921   5.827   3.053
12525SOL     OW37918   7.858   6.399   3.113
12525SOL    HW137919   7.944   6.411   3.163
12525SOL    HW237920   7.816   6.312   3.140
12526SOL     OW37921   7.512   7.150   3.193
12526SOL    HW137922   7.466   7.232   3.159
12526SOL    HW237923   7.610   7.169   3.202
12527SOL     OW37924   7.815   6.686   2.363
12527SOL    HW137925   7.808   6.769   2.307
12527SOL    HW237926   7.819   6.606   2.303
12528SOL     OW37927   8.014   6.123   2.727
12528SOL    HW137928   8.026   6.189   2.653
12528SOL    HW237929   8.060   6.157   2.810
12529SOL     OW37930   7.802   7.096   3.191
12529SOL    HW137931   7.781   7.052   3.104
12529SOL    HW237932   7.899   7.122   3.194
12530SOL     OW37933   7.850   6.337   3.460
12530SOL    HW137934   7.918   6.392   3.413
12530SOL    HW237935   7.890   6.249   3.487
12531SOL     OW37936   7.952   5.636   3.602
12531SOL    HW137937   7.910   5.579   3.532
12531SOL    HW237938   7.886   5.705   3.634
12532SOL     OW37939   8.021   6.456   2.891
12532SOL    HW137940   8.065   6.545   2.882
12532SOL    HW237941   7.958   6.456   2.968
12533SOL     OW37942   7.755   5.799   3.093
12533SOL    HW137943   7.732   5.836   3.183
12533SOL    HW237944   7.725   5.704   3.087
12534SOL     OW37945   7.485   6.896   3.144
12534SOL    HW137946   7.538   6.847   3.212
12534SOL    HW237947   7.507   6.994   3.149
12535SOL     OW37948   7.755   5.649   2.480
12535SOL    HW137949   7.744   5.743   2.513
12535SOL    HW237950   7.750   5.586   2.557
12536SOL     OW37951   7.798   6.484   3.666
12536SOL    HW137952   7.874   6.528   3.714
12536SOL    HW237953   7.833   6.437   3.584
12537SOL     OW37954   7.767   6.396   2.811
12537SOL    HW137955   7.860   6.432   2.816
12537SOL    HW237956   7.761   6.311   2.863
12538SOL     OW37957   7.787   6.095   2.868
12538SOL    HW137958   7.735   6.012   2.851
12538SOL    HW237959   7.864   6.100   2.804
12539SOL     OW37960   7.456   6.912   2.062
12539SOL    HW137961   7.363   6.933   2.031
12539SOL    HW237962   7.466   6.813   2.075
12540SOL     OW37963   7.536   7.387   2.789
12540SOL    HW137964   7.494   7.301   2.762
12540SOL    HW237965   7.630   7.390   2.755
12541SOL     OW37966   7.488   6.130   2.976
12541SOL    HW137967   7.573   6.097   2.935
12541SOL    HW237968   7.501   6.145   3.074
12542SOL     OW37969   7.637   6.106   3.584
12542SOL    HW137970   7.696   6.066   3.514
12542SOL    HW237971   7.579   6.177   3.543
12543SOL     OW37972   7.700   7.150   3.606
12543SOL    HW137973   7.670   7.207   3.682
12543SOL    HW237974   7.693   7.053   3.632
12544SOL     OW37975   7.921   6.086   2.053
12544SOL    HW137976   7.982   6.166   2.057
12544SOL    HW237977   7.826   6.117   2.060
12545SOL     OW37978   7.607   6.723   3.328
12545SOL    HW137979   7.629   6.662   3.404
12545SOL    HW237980   7.617   6.674   3.242
12546SOL     OW37981   7.531   6.844   2.884
12546SOL    HW137982   7.526   6.843   2.984
12546SOL    HW237983   7.448   6.803   2.846
12547SOL     OW37984   7.711   5.912   2.582
12547SOL    HW137985   7.632   5.963   2.548
12547SOL    HW237986   7.702   5.897   2.680
12548SOL     OW37987   7.820   6.874   3.352
12548SOL    HW137988   7.807   6.967   3.318
12548SOL    HW237989   7.736   6.822   3.339
12549SOL     OW37990   8.038   7.073   2.353
12549SOL    HW137991   8.080   7.015   2.283
12549SOL    HW237992   7.994   7.152   2.309
12550SOL     OW37993   7.703   6.934   2.152
12550SOL    HW137994   7.607   6.935   2.125
12550SOL    HW237995   7.715   6.987   2.236
12551SOL     OW37996   7.553   6.599   3.588
12551SOL    HW137997   7.476   6.566   3.642
12551SOL    HW237998   7.638   6.569   3.630
12552SOL     OW37999   7.523   5.931   1.895
12552SOL    HW138000   7.431   5.903   1.866
12552SOL    HW238001   7.554   6.008   1.839
12553SOL     OW38002   7.520   5.752   2.180
12553SOL    HW138003   7.503   5.835   2.126
12553SOL    HW238004   7.610   5.715   2.158
12554SOL     OW38005   7.838   7.327   3.422
12554SOL    HW138006   7.747   7.368   3.420
12554SOL    HW238007   7.831   7.233   3.454
12555SOL     OW38008   7.669   6.900   3.706
12555SOL    HW138009   7.604   6.827   3.685
12555SOL    HW238010   7.673   6.914   3.804
12556SOL     OW38011   7.527   6.826   2.515
12556SOL    HW138012   7.526   6.779   2.603
12556SOL    HW238013   7.609   6.798   2.464
12557SOL     OW38014   8.120   6.977   3.486
12557SOL    HW138015   8.042   6.927   3.524
12557SOL    HW238016   8.117   7.072   3.517
12558SOL     OW38017   7.765   6.133   3.142
12558SOL    HW138018   7.803   6.074   3.214
12558SOL    HW238019   7.805   6.107   3.054
12559SOL     OW38020   7.487   6.663   2.162
12559SOL    HW138021   7.586   6.652   2.153
12559SOL    HW238022   7.447   6.577   2.194
12560SOL     OW38023   7.678   6.214   3.837
12560SOL    HW138024   7.585   6.212   3.874
12560SOL    HW238025   7.679   6.175   3.745
12561SOL     OW38026   7.673   5.861   4.720
12561SOL    HW138027   7.708   5.844   4.812
12561SOL    HW238028   7.585   5.816   4.708
12562SOL     OW38029   7.467   5.954   4.371
12562SOL    HW138030   7.385   5.997   4.410
12562SOL    HW238031   7.439   5.881   4.308
12563SOL     OW38032   7.783   7.021   4.785
12563SOL    HW138033   7.705   6.990   4.732
12563SOL    HW238034   7.841   7.079   4.728
12564SOL     OW38035   7.886   5.978   5.223
12564SOL    HW138036   7.968   5.922   5.232
12564SOL    HW238037   7.805   5.920   5.227
12565SOL     OW38038   7.679   7.299   4.207
12565SOL    HW138039   7.713   7.376   4.261
12565SOL    HW238040   7.723   7.299   4.117
12566SOL     OW38041   7.678   7.020   4.262
12566SOL    HW138042   7.652   7.116   4.262
12566SOL    HW238043   7.607   6.966   4.307
12567SOL     OW38044   7.688   6.677   4.610
12567SOL    HW138045   7.702   6.593   4.662
12567SOL    HW238046   7.633   6.741   4.665
12568SOL     OW38047   7.570   6.229   4.287
12568SOL    HW138048   7.525   6.141   4.304
12568SOL    HW238049   7.569   6.283   4.371
12569SOL     OW38050   7.475   7.182   3.841
12569SOL    HW138051   7.456   7.086   3.862
12569SOL    HW238052   7.442   7.240   3.916
12570SOL     OW38053   7.561   6.323   5.321
12570SOL    HW138054   7.649   6.310   5.366
12570SOL    HW238055   7.548   6.420   5.299
12571SOL     OW38056   7.645   6.562   4.988
12571SOL    HW138057   7.734   6.517   4.974
12571SOL    HW238058   7.572   6.497   4.969
12572SOL     OW38059   7.765   5.837   5.525
12572SOL    HW138060   7.836   5.908   5.531
12572SOL    HW238061   7.677   5.876   5.553
12573SOL     OW38062   8.046   6.315   3.994
12573SOL    HW138063   8.070   6.384   3.926
12573SOL    HW238064   7.968   6.348   4.048
12574SOL     OW38065   7.524   6.397   4.513
12574SOL    HW138066   7.623   6.385   4.522
12574SOL    HW238067   7.500   6.492   4.534
12575SOL     OW38068   7.578   7.407   5.295
12575SOL    HW138069   7.568   7.392   5.394
12575SOL    HW238070   7.492   7.443   5.259
12576SOL     OW38071   7.998   5.782   4.609
12576SOL    HW138072   7.993   5.777   4.709
12576SOL    HW238073   8.000   5.878   4.580
12577SOL     OW38074   7.799   7.387   4.577
12577SOL    HW138075   7.849   7.301   4.583
12577SOL    HW238076   7.864   7.464   4.574
12578SOL     OW38077   7.769   6.529   3.966
12578SOL    HW138078   7.851   6.568   3.924
12578SOL    HW238079   7.742   6.447   3.917
12579SOL     OW38080   7.909   6.852   5.451
12579SOL    HW138081   7.859   6.853   5.365
12579SOL    HW238082   7.846   6.834   5.527
12580SOL     OW38083   7.650   5.871   5.222
12580SOL    HW138084   7.570   5.931   5.209
12580SOL    HW238085   7.640   5.822   5.308
12581SOL     OW38086   7.697   7.371   4.965
12581SOL    HW138087   7.754   7.306   5.015
12581SOL    HW238088   7.681   7.338   4.872
12582SOL     OW38089   7.830   6.286   4.204
12582SOL    HW138090   7.875   6.196   4.201
12582SOL    HW238091   7.736   6.275   4.237
12583SOL     OW38092   7.987   5.650   4.236
12583SOL    HW138093   7.906   5.651   4.294
12583SOL    HW238094   7.990   5.733   4.181
12584SOL     OW38095   7.745   5.621   3.895
12584SOL    HW138096   7.794   5.705   3.874
12584SOL    HW238097   7.807   5.556   3.940
12585SOL     OW38098   7.907   6.738   4.465
12585SOL    HW138099   7.836   6.711   4.530
12585SOL    HW238100   7.881   6.710   4.372
12586SOL     OW38101   7.526   6.142   5.110
12586SOL    HW138102   7.618   6.141   5.069
12586SOL    HW238103   7.520   6.216   5.177
12587SOL     OW38104   8.009   5.808   4.871
12587SOL    HW138105   8.047   5.724   4.908
12587SOL    HW238106   7.921   5.827   4.915
12588SOL     OW38107   7.858   6.399   4.975
12588SOL    HW138108   7.944   6.411   5.025
12588SOL    HW238109   7.816   6.312   5.002
12589SOL     OW38110   7.512   7.150   5.055
12589SOL    HW138111   7.466   7.232   5.021
12589SOL    HW238112   7.610   7.169   5.064
12590SOL     OW38113   7.815   6.686   4.225
12590SOL    HW138114   7.808   6.769   4.169
12590SOL    HW238115   7.819   6.606   4.165
12591SOL     OW38116   8.014   6.123   4.589
12591SOL    HW138117   8.026   6.189   4.515
12591SOL    HW238118   8.060   6.157   4.672
12592SOL     OW38119   7.802   7.096   5.053
12592SOL    HW138120   7.781   7.052   4.966
12592SOL    HW238121   7.899   7.122   5.056
12593SOL     OW38122   7.850   6.337   5.322
12593SOL    HW138123   7.918   6.392   5.275
12593SOL    HW238124   7.890   6.249   5.349
12594SOL     OW38125   7.952   5.636   5.464
12594SOL    HW138126   7.910   5.579   5.394
12594SOL    HW238127   7.886   5.705   5.496
12595SOL     OW38128   8.021   6.456   4.753
12595SOL    HW138129   8.065   6.545   4.744
12595SOL    HW238130   7.958   6.456   4.830
12596SOL     OW38131   7.755   5.799   4.955
12596SOL    HW138132   7.732   5.836   5.045
12596SOL    HW238133   7.725   5.704   4.949
12597SOL     OW38134   7.485   6.896   5.006
12597SOL    HW138135   7.538   6.847   5.074
12597SOL    HW238136   7.507   6.994   5.011
12598SOL     OW38137   7.755   5.649   4.342
12598SOL    HW138138   7.744   5.743   4.375
12598SOL    HW238139   7.750   5.586   4.419
12599SOL     OW38140   7.798   6.484   5.528
12599SOL    HW138141   7.874   6.528   5.576
12599SOL    HW238142   7.833   6.437   5.446
12600SOL     OW38143   7.767   6.396   4.673
12600SOL    HW138144   7.860   6.432   4.678
12600SOL    HW238145   7.761   6.311   4.725
12601SOL     OW38146   7.787   6.095   4.730
12601SOL    HW138147   7.735   6.012   4.713
12601SOL    HW238148   7.864   6.100   4.666
12602SOL     OW38149   7.456   6.912   3.924
12602SOL    HW138150   7.363   6.933   3.893
12602SOL    HW238151   7.466   6.813   3.937
12603SOL     OW38152   7.536   7.387   4.651
12603SOL    HW138153   7.494   7.301   4.624
12603SOL    HW238154   7.630   7.390   4.617
12604SOL     OW38155   7.488   6.130   4.838
12604SOL    HW138156   7.573   6.097   4.797
12604SOL    HW238157   7.501   6.145   4.936
12605SOL     OW38158   7.637   6.106   5.446
12605SOL    HW138159   7.696   6.066   5.376
12605SOL    HW238160   7.579   6.177   5.405
12606SOL     OW38161   7.700   7.150   5.468
12606SOL    HW138162   7.670   7.207   5.544
12606SOL    HW238163   7.693   7.053   5.494
12607SOL     OW38164   7.921   6.086   3.915
12607SOL    HW138165   7.982   6.166   3.919
12607SOL    HW238166   7.826   6.117   3.922
12608SOL     OW38167   7.607   6.723   5.190
12608SOL    HW138168   7.629   6.662   5.266
12608SOL    HW238169   7.617   6.674   5.104
12609SOL     OW38170   7.531   6.844   4.746
12609SOL    HW138171   7.526   6.843   4.846
12609SOL    HW238172   7.448   6.803   4.708
12610SOL     OW38173   7.578   7.380   5.575
12610SOL    HW138174   7.537   7.306   5.628
12610SOL    HW238175   7.642   7.431   5.633
12611SOL     OW38176   7.711   5.912   4.444
12611SOL    HW138177   7.632   5.963   4.410
12611SOL    HW238178   7.702   5.897   4.542
12612SOL     OW38179   7.820   6.874   5.214
12612SOL    HW138180   7.807   6.967   5.180
12612SOL    HW238181   7.736   6.822   5.201
12613SOL     OW38182   8.038   7.073   4.215
12613SOL    HW138183   8.080   7.015   4.145
12613SOL    HW238184   7.994   7.152   4.171
12614SOL     OW38185   7.703   6.934   4.014
12614SOL    HW138186   7.607   6.935   3.987
12614SOL    HW238187   7.715   6.987   4.098
12615SOL     OW38188   7.553   6.599   5.450
12615SOL    HW138189   7.476   6.566   5.504
12615SOL    HW238190   7.638   6.569   5.492
12616SOL     OW38191   7.523   5.931   3.757
12616SOL    HW138192   7.431   5.903   3.728
12616SOL    HW238193   7.554   6.008   3.701
12617SOL     OW38194   7.520   5.752   4.042
12617SOL    HW138195   7.503   5.835   3.988
12617SOL    HW238196   7.610   5.715   4.020
12618SOL     OW38197   7.838   7.327   5.284
12618SOL    HW138198   7.747   7.368   5.282
12618SOL    HW238199   7.831   7.233   5.316
12619SOL     OW38200   7.669   6.900   5.568
12619SOL    HW138201   7.604   6.827   5.547
12619SOL    HW238202   7.673   6.914   5.666
12620SOL     OW38203   7.527   6.826   4.377
12620SOL    HW138204   7.526   6.779   4.465
12620SOL    HW238205   7.609   6.798   4.326
12621SOL     OW38206   8.120   6.977   5.348
12621SOL    HW138207   8.042   6.927   5.386
12621SOL    HW238208   8.117   7.072   5.379
12622SOL     OW38209   7.765   6.133   5.004
12622SOL    HW138210   7.803   6.074   5.076
12622SOL    HW238211   7.805   6.107   4.916
12623SOL     OW38212   7.487   6.663   4.024
12623SOL    HW138213   7.586   6.652   4.015
12623SOL    HW238214   7.447   6.577   4.056
12624SOL     OW38215   7.678   6.214   5.699
12624SOL    HW138216   7.585   6.212   5.736
12624SOL    HW238217   7.679   6.175   5.607
12625SOL     OW38218   7.467   5.954   6.233
12625SOL    HW138219   7.385   5.997   6.272
12625SOL    HW238220   7.439   5.881   6.170
12626SOL     OW38221   7.679   7.299   6.069
12626SOL    HW138222   7.713   7.376   6.123
12626SOL    HW238223   7.723   7.299   5.979
12627SOL     OW38224   7.678   7.020   6.124
12627SOL    HW138225   7.652   7.116   6.124
12627SOL    HW238226   7.607   6.966   6.169
12628SOL     OW38227   7.570   6.229   6.149
12628SOL    HW138228   7.525   6.141   6.166
12628SOL    HW238229   7.569   6.283   6.233
12629SOL     OW38230   7.475   7.182   5.703
12629SOL    HW138231   7.456   7.086   5.724
12629SOL    HW238232   7.442   7.240   5.778
12630SOL     OW38233   8.046   6.315   5.856
12630SOL    HW138234   8.070   6.384   5.788
12630SOL    HW238235   7.968   6.348   5.910
12631SOL     OW38236   7.524   6.397   6.375
12631SOL    HW138237   7.623   6.385   6.384
12631SOL    HW238238   7.500   6.492   6.396
12632SOL     OW38239   7.799   7.387   6.439
12632SOL    HW138240   7.849   7.301   6.445
12632SOL    HW238241   7.864   7.464   6.436
12633SOL     OW38242   7.769   6.529   5.828
12633SOL    HW138243   7.851   6.568   5.786
12633SOL    HW238244   7.742   6.447   5.779
12634SOL     OW38245   7.830   6.286   6.066
12634SOL    HW138246   7.875   6.196   6.063
12634SOL    HW238247   7.736   6.275   6.099
12635SOL     OW38248   7.987   5.650   6.098
12635SOL    HW138249   7.906   5.651   6.156
12635SOL    HW238250   7.990   5.733   6.043
12636SOL     OW38251   7.745   5.621   5.757
12636SOL    HW138252   7.794   5.705   5.736
12636SOL    HW238253   7.807   5.556   5.802
12637SOL     OW38254   7.907   6.738   6.327
12637SOL    HW138255   7.836   6.711   6.392
12637SOL    HW238256   7.881   6.710   6.234
12638SOL     OW38257   8.009   5.808   6.733
12638SOL    HW138258   8.047   5.724   6.770
12638SOL    HW238259   7.921   5.827   6.777
12639SOL     OW38260   7.815   6.686   6.087
12639SOL    HW138261   7.808   6.769   6.031
12639SOL    HW238262   7.819   6.606   6.027
12640SOL     OW38263   8.014   6.123   6.451
12640SOL    HW138264   8.026   6.189   6.377
12640SOL    HW238265   8.060   6.157   6.534
12641SOL     OW38266   8.021   6.456   6.615
12641SOL    HW138267   8.065   6.545   6.606
12641SOL    HW238268   7.958   6.456   6.692
12642SOL     OW38269   7.755   5.649   6.204
12642SOL    HW138270   7.744   5.743   6.237
12642SOL    HW238271   7.750   5.586   6.281
12643SOL     OW38272   7.767   6.396   6.535
12643SOL    HW138273   7.860   6.432   6.540
12643SOL    HW238274   7.761   6.311   6.587
12644SOL     OW38275   7.787   6.095   6.592
12644SOL    HW138276   7.735   6.012   6.575
12644SOL    HW238277   7.864   6.100   6.528
12645SOL     OW38278   7.456   6.912   5.786
12645SOL    HW138279   7.363   6.933   5.755
12645SOL    HW238280   7.466   6.813   5.799
12646SOL     OW38281   7.536   7.387   6.513
12646SOL    HW138282   7.494   7.301   6.486
12646SOL    HW238283   7.630   7.390   6.479
12647SOL     OW38284   7.921   6.086   5.777
12647SOL    HW138285   7.982   6.166   5.781
12647SOL    HW238286   7.826   6.117   5.784
12648SOL     OW38287   7.531   6.844   6.608
12648SOL    HW138288   7.526   6.843   6.708
12648SOL    HW238289   7.448   6.803   6.570
12649SOL     OW38290   7.711   5.912   6.306
12649SOL    HW138291   7.632   5.963   6.272
12649SOL    HW238292   7.702   5.897   6.404
12650SOL     OW38293   8.038   7.073   6.077
12650SOL    HW138294   8.080   7.015   6.007
12650SOL    HW238295   7.994   7.152   6.033
12651SOL     OW38296   7.703   6.934   5.876
12651SOL    HW138297   7.607   6.935   5.849
12651SOL    HW238298   7.715   6.987   5.960
12652SOL     OW38299   7.523   5.931   5.619
12652SOL    HW138300   7.431   5.903   5.590
12652SOL    HW238301   7.554   6.008   5.563
12653SOL     OW38302   7.520   5.752   5.904
12653SOL    HW138303   7.503   5.835   5.850
12653SOL    HW238304   7.610   5.715   5.882
12654SOL     OW38305   7.527   6.826   6.239
12654SOL    HW138306   7.526   6.779   6.327
12654SOL    HW238307   7.609   6.798   6.188
12655SOL     OW38308   7.765   6.133   6.866
12655SOL    HW138309   7.803   6.074   6.938
12655SOL    HW238310   7.805   6.107   6.778
12656SOL     OW38311   7.487   6.663   5.886
12656SOL    HW138312   7.586   6.652   5.877
12656SOL    HW238313   7.447   6.577   5.918
12657SOL     OW38314   7.765   7.699   1.801
12657SOL    HW138315   7.836   7.770   1.807
12657SOL    HW238316   7.677   7.738   1.829
12658SOL     OW38317   7.952   7.498   1.740
12658SOL    HW138318   7.910   7.441   1.670
12658SOL    HW238319   7.886   7.567   1.772
12659SOL     OW38320   7.755   7.511   0.618
12659SOL    HW138321   7.744   7.605   0.651
12659SOL    HW238322   7.750   7.448   0.695
12660SOL     OW38323   7.711   7.774   0.720
12660SOL    HW138324   7.632   7.825   0.686
12660SOL    HW238325   7.702   7.759   0.818
12661SOL     OW38326   7.765   7.699   3.663
12661SOL    HW138327   7.836   7.770   3.669
12661SOL    HW238328   7.677   7.738   3.691
12662SOL     OW38329   7.952   7.498   3.602
12662SOL    HW138330   7.910   7.441   3.532
12662SOL    HW238331   7.886   7.567   3.634
12663SOL     OW38332   7.755   7.511   2.480
12663SOL    HW138333   7.744   7.605   2.513
12663SOL    HW238334   7.750   7.448   2.557
12664SOL     OW38335   7.711   7.774   2.582
12664SOL    HW138336   7.632   7.825   2.548
12664SOL    HW238337   7.702   7.759   2.680
12665SOL     OW38338   7.523   7.793   1.895
12665SOL    HW138339   7.431   7.765   1.866
12665SOL    HW238340   7.554   7.870   1.839
12666SOL     OW38341   7.765   7.699   5.525
12666SOL    HW138342   7.836   7.770   5.531
12666SOL    HW238343   7.677   7.738   5.553
12667SOL     OW38344   7.952   7.498   5.464
12667SOL    HW138345   7.910   7.441   5.394
12667SOL    HW238346   7.886   7.567   5.496
12668SOL     OW38347   7.755   7.511   4.342
12668SOL    HW138348   7.744   7.605   4.375
12668SOL    HW238349   7.750   7.448   4.419
12669SOL     OW38350   7.711   7.774   4.444
12669SOL    HW138351   7.632   7.825   4.410
12669SOL    HW238352   7.702   7.759   4.542
12670SOL     OW38353   7.523   7.793   3.757
12670SOL    HW138354   7.431   7.765   3.728
12670SOL    HW238355   7.554   7.870   3.701
12671SOL     OW38356   7.755   7.511   6.204
12671SOL    HW138357   7.744   7.605   6.237
12671SOL    HW238358   7.750   7.448   6.281
12672SOL     OW38359   7.711   7.774   6.306
12672SOL    HW138360   7.632   7.825   6.272
12672SOL    HW238361   7.702   7.759   6.404
12673SOL     OW38362   7.523   7.793   5.619
12673SOL    HW138363   7.431   7.765   5.590
12673SOL    HW238364   7.554   7.870   5.563
12674NA      NA38365   0.464   1.743   0.323
12675NA      NA38366   1.576   3.524   0.307
12676NA      NA38367   1.705   3.349   2.966
12677NA      NA38368   1.160   3.931   1.477
12678NA      NA38369   1.458   4.459   2.590
12679NA      NA38370   0.566   4.261   2.727
12680NA      NA38371   1.394   4.193   5.398
12681NA      NA38372   1.227   5.294   4.517
12682NA      NA38373   0.807   6.191   3.327
12683NA      NA38374   0.812   7.172   2.549
12684NA      NA38375   1.014   7.684   0.971
12685NA      NA38376   2.523   3.652   0.953
12686NA      NA38377   2.712   4.522   1.823
12687NA      NA38378   2.435   4.594   2.891
12688NA      NA38379   2.476   7.570   3.841
12689NA      NA38380   5.413   0.922   0.612
12690NA      NA38381   4.747   0.766   0.966
12691NA      NA38382   4.152   0.424   4.244
12692NA      NA38383   5.311   2.641   1.670
12693NA      NA38384   5.327   2.309   2.599
12694NA      NA38385   5.174   4.944   3.495
12695NA      NA38386   5.413   4.646   4.336
12696NA      NA38387   4.738   5.822   4.695
12697NA      NA38388   7.173   0.779   5.394
12698NA      NA38389   6.258   3.253   1.624
12699NA      NA38390   7.345   3.609   3.016
12700NA      NA38391   5.849   2.188   6.306
12701NA      NA38392   6.452   4.178   0.642
12702NA      NA38393   5.958   5.012   3.352
12703NA      NA38394   7.200   5.016   3.151
12704NA      NA38395   6.192   6.550   5.709
12705NA      NA38396   6.521   5.822   6.066
12706NA      NA38397   7.637   0.520   1.722
12707NA      NA38398   7.650   4.009   3.360
12708NA      NA38399   7.578   7.380   3.713
12709CL      CL38400   1.458   0.735   0.728
12710CL      CL38401   0.372   1.288   1.490
12711CL      CL38402   0.594   0.745   0.652
12712CL      CL38403   0.770   1.330   2.163
12713CL      CL38404   0.620   1.786   5.163
12714CL      CL38405   1.641   2.970   2.294
12715CL      CL38406   0.197   2.838   3.126
12716CL      CL38407   1.369   2.812   5.384
12717CL      CL38408   0.672   5.340   0.154
12718CL      CL38409   1.227   5.294   6.379
12719CL      CL38410   1.632   6.963   0.081
12720CL      CL38411   1.013   5.691   5.494
12721CL      CL38412   1.014   7.684   4.695
12722CL      CL38413   2.092   1.434   0.538
12723CL      CL38414   1.934   0.166   0.318
12724CL      CL38415   1.992   1.794   3.713
12725CL      CL38416   2.547   2.874   0.665
12726CL      CL38417   2.083   3.176   3.706
12727CL      CL38418   2.059   4.700   1.264
12728CL      CL38419   2.234   5.012   5.214
12729CL      CL38420   2.885   6.352   0.966
12730CL      CL38421   3.222   6.448   2.907
12731CL      CL38422   1.967   6.599   3.588
12732CL      CL38423   3.723   7.155   6.437
12733CL      CL38424   5.478   1.223   1.588
12734CL      CL38425   5.566   1.767   4.083
12735CL      CL38426   4.763   2.960   0.696
12736CL      CL38427   4.274   3.920   0.885
12737CL      CL38428   3.883   4.861   5.190
12738CL      CL38429   5.581   4.557   5.963
12739CL      CL38430   4.059   7.021   2.923
12740CL      CL38431   6.946   0.862   1.045
12741CL      CL38432   5.811   2.137   0.996
12742CL      CL38433   7.168   2.501   6.058
12743CL      CL38434   6.354   4.868   1.023
12744CL      CL38435   5.745   4.861   1.466
12745CL      CL38436   7.427   5.761   0.963
12746CL      CL38437   6.594   7.042   4.201
12747CL      CL38438   7.830   0.700   0.480
12748CL      CL38439   7.802   5.234   1.329
   7.98884   7.53195   6.52286   0.00000   0.00000   2.66295   0.00000  -2.66295   3.76597
