Gnomes, ROck Monsters And Chili Sauce
  417
    1ASP      N    1   5.239   5.725   1.396
    1ASP     H1    2   5.285   5.781   1.327
    1ASP     H2    3   5.286   5.735   1.484
    1ASP     H3    4   5.240   5.629   1.368
    1ASP     CA    5   5.099   5.771   1.410
    1ASP     HA    6   5.108   5.863   1.448
    1ASP     CB    7   5.033   5.776   1.273
    1ASP    HB1    8   4.988   5.689   1.253
    1ASP    HB2    9   5.102   5.794   1.202
    1ASP     CG   10   4.932   5.889   1.276
    1ASP    OD1   11   4.980   6.001   1.301
    1ASP    OD2   12   4.811   5.857   1.269
    1ASP      C   13   5.015   5.695   1.514
    1ASP      O   14   4.928   5.753   1.578
    2SER      N   15   5.040   5.566   1.542
    2SER     HN   16   5.122   5.524   1.503
    2SER     CA   17   4.951   5.484   1.628
    2SER     HA   18   4.863   5.533   1.619
    2SER     CB   19   4.944   5.341   1.573
    2SER    HB1   20   4.874   5.288   1.621
    2SER    HB2   21   5.033   5.295   1.581
    2SER     OG   22   4.910   5.347   1.436
    2SER    HG1   23   4.905   5.254   1.399
    2SER      C   24   4.980   5.484   1.779
    2SER      O   25   4.912   5.413   1.853
    3HIS      N   26   5.077   5.561   1.829
    3HIS     HN   27   5.129   5.620   1.767
    3HIS     CA   28   5.110   5.562   1.973
    3HIS     HA   29   5.093   5.469   2.004
    3HIS     CB   30   5.259   5.595   1.992
    3HIS    HB1   31   5.272   5.693   1.982
    3HIS    HB2   32   5.312   5.547   1.923
    3HIS    ND1   33   5.308   5.426   2.181
    3HIS     CG   34   5.310   5.554   2.128
    3HIS    CE1   35   5.362   5.430   2.304
    3HIS    HE1   36   5.373   5.351   2.364
    3HIS    NE2   37   5.399   5.555   2.333
    3HIS    HE2   38   5.441   5.586   2.419
    3HIS    CD2   39   5.368   5.634   2.223
    3HIS    HD2   40   5.385   5.732   2.214
    3HIS      C   41   5.017   5.653   2.056
    3HIS      O   42   4.984   5.620   2.170
    4ALA      N   43   4.962   5.760   1.996
    4ALA     HN   44   4.985   5.777   1.900
    4ALA     CA   45   4.872   5.854   2.064
    4ALA     HA   46   4.915   5.874   2.152
    4ALA     CB   47   4.862   5.980   1.977
    4ALA    HB1   48   4.953   6.016   1.959
    4ALA    HB2   49   4.817   5.957   1.890
    4ALA    HB3   50   4.808   6.049   2.024
    4ALA      C   51   4.733   5.795   2.095
    4ALA      O   52   4.671   5.829   2.195
    5LYS      N   53   4.686   5.699   2.014
    5LYS     HN   54   4.744   5.669   1.938
    5LYS     CA   55   4.554   5.635   2.032
    5LYS     HA   56   4.491   5.711   2.047
    5LYS     CB   57   4.516   5.558   1.904
    5LYS    HB1   58   4.434   5.503   1.922
    5LYS    HB2   59   4.592   5.497   1.879
    5LYS     CG   60   4.487   5.653   1.787
    5LYS    HG1   61   4.571   5.705   1.767
    5LYS    HG2   62   4.415   5.716   1.815
    5LYS     CD   63   4.443   5.579   1.660
    5LYS    HD1   64   4.516   5.517   1.631
    5LYS    HD2   65   4.360   5.527   1.679
    5LYS     CE   66   4.416   5.682   1.549
    5LYS    HE1   67   4.497   5.739   1.536
    5LYS    HE2   68   4.339   5.741   1.576
    5LYS     NZ   69   4.382   5.620   1.419
    5LYS    HZ1   70   4.365   5.691   1.351
    5LYS    HZ2   71   4.458   5.562   1.389
    5LYS    HZ3   72   4.300   5.564   1.429
    5LYS      C   73   4.546   5.545   2.155
    5LYS      O   74   4.440   5.531   2.215
    6ARG      N   75   4.660   5.490   2.199
    6ARG     HN   76   4.745   5.509   2.150
    6ARG     CA   77   4.665   5.404   2.318
    6ARG     HA   78   4.585   5.344   2.315
    6ARG     CB   79   4.792   5.317   2.311
    6ARG    HB1   80   4.866   5.366   2.358
    6ARG    HB2   81   4.816   5.303   2.215
    6ARG     CG   82   4.775   5.179   2.378
    6ARG    HG1   83   4.688   5.139   2.349
    6ARG    HG2   84   4.775   5.190   2.477
    6ARG     CD   85   4.890   5.086   2.337
    6ARG    HD1   86   4.978   5.133   2.352
    6ARG    HD2   87   4.882   5.062   2.241
    6ARG     NE   88   4.892   4.961   2.416
    6ARG     HE   89   4.856   4.967   2.509
    6ARG     CZ   90   4.934   4.842   2.376
    6ARG    NH1   91   4.974   4.818   2.254
    6ARG   HH11   92   4.974   4.892   2.187
    6ARG   HH12   93   5.005   4.727   2.229
    6ARG    NH2   94   4.937   4.742   2.460
    6ARG   HH21   95   4.908   4.756   2.555
    6ARG   HH22   96   4.969   4.653   2.430
    6ARG      C   97   4.649   5.484   2.447
    6ARG      O   98   4.601   5.428   2.545
    7HIS      N   99   4.678   5.615   2.446
    7HIS     HN  100   4.704   5.656   2.358
    7HIS     CA  101   4.675   5.701   2.564
    7HIS     HA  102   4.704   5.641   2.638
    7HIS     CB  103   4.776   5.817   2.547
    7HIS    HB1  104   4.726   5.903   2.549
    7HIS    HB2  105   4.821   5.807   2.458
    7HIS    ND1  106   4.898   5.922   2.747
    7HIS     CG  107   4.882   5.822   2.654
    7HIS    CE1  108   5.012   5.898   2.815
    7HIS    HE1  109   5.051   5.958   2.885
    7HIS    NE2  110   5.064   5.781   2.776
    7HIS    HE2  111   5.143   5.734   2.817
    7HIS    CD2  112   4.988   5.736   2.668
    7HIS    HD2  113   5.007   5.656   2.612
    7HIS      C  114   4.535   5.749   2.606
    7HIS      O  115   4.508   5.766   2.725
    8HIS      N  116   4.444   5.765   2.510
    8HIS     HN  117   4.470   5.745   2.416
    8HIS     CA  118   4.307   5.809   2.538
    8HIS     HA  119   4.314   5.871   2.615
    8HIS     CB  120   4.252   5.882   2.415
    8HIS    HB1  121   4.152   5.885   2.420
    8HIS    HB2  122   4.280   5.833   2.332
    8HIS    ND1  123   4.257   6.130   2.479
    8HIS     CG  124   4.304   6.023   2.407
    8HIS    CE1  125   4.330   6.238   2.447
    8HIS    HE1  126   4.316   6.330   2.484
    8HIS    NE2  127   4.424   6.205   2.358
    8HIS    HE2  128   4.493   6.266   2.318
    8HIS    CD2  129   4.408   6.069   2.330
    8HIS    HD2  130   4.463   6.015   2.266
    8HIS      C  131   4.214   5.696   2.585
    8HIS      O  132   4.118   5.721   2.658
    9GLY      N  133   4.243   5.570   2.549
    9GLY     HN  134   4.324   5.554   2.493
    9GLY     CA  135   4.163   5.454   2.589
    9GLY    HA1  136   4.067   5.478   2.573
    9GLY    HA2  137   4.188   5.378   2.529
    9GLY      C  138   4.181   5.413   2.735
    9GLY      O  139   4.084   5.380   2.803
   10TYR      N  140   4.304   5.417   2.788
   10TYR     HN  141   4.380   5.453   2.733
   10TYR     CA  142   4.332   5.371   2.925
   10TYR     HA  143   4.269   5.294   2.937
   10TYR     CB  144   4.477   5.322   2.937
   10TYR    HB1  145   4.498   5.265   2.858
   10TYR    HB2  146   4.484   5.266   3.020
   10TYR     CG  147   4.581   5.431   2.946
   10TYR    CD1  148   4.673   5.450   2.841
   10TYR    HD1  149   4.669   5.391   2.760
   10TYR    CE1  150   4.771   5.550   2.852
   10TYR    HE1  151   4.840   5.560   2.780
   10TYR     CZ  152   4.771   5.637   2.962
   10TYR     OH  153   4.858   5.739   2.974
   10TYR     HH  154   4.840   5.788   3.060
   10TYR    CD2  155   4.593   5.508   3.063
   10TYR    HD2  156   4.535   5.487   3.142
   10TYR    CE2  157   4.685   5.612   3.070
   10TYR    HE2  158   4.690   5.669   3.152
   10TYR      C  159   4.295   5.475   3.032
   10TYR      O  160   4.255   5.437   3.142
   11LYS      N  161   4.306   5.606   3.002
   11LYS     HN  162   4.335   5.632   2.910
   11LYS     CA  163   4.275   5.713   3.100
   11LYS     HA  164   4.325   5.685   3.182
   11LYS     CB  165   4.326   5.849   3.050
   11LYS    HB1  166   4.280   5.922   3.101
   11LYS    HB2  167   4.305   5.858   2.952
   11LYS     CG  168   4.478   5.865   3.069
   11LYS    HG1  169   4.525   5.808   3.001
   11LYS    HG2  170   4.502   5.833   3.161
   11LYS     CD  171   4.524   6.010   3.054
   11LYS    HD1  172   4.519   6.036   2.957
   11LYS    HD2  173   4.465   6.070   3.108
   11LYS     CE  174   4.669   6.024   3.103
   11LYS    HE1  175   4.730   5.972   3.043
   11LYS    HE2  176   4.676   5.989   3.196
   11LYS     NZ  177   4.714   6.166   3.102
   11LYS    HZ1  178   4.809   6.171   3.135
   11LYS    HZ2  179   4.709   6.202   3.010
   11LYS    HZ3  180   4.656   6.219   3.163
   11LYS      C  181   4.127   5.722   3.134
   11LYS      O  182   4.093   5.759   3.247
   12ARG      N  183   4.040   5.683   3.040
   12ARG     HN  184   4.077   5.655   2.952
   12ARG     CA  185   3.894   5.679   3.058
   12ARG     HA  186   3.868   5.769   3.093
   12ARG     CB  187   3.828   5.652   2.922
   12ARG    HB1  188   3.766   5.574   2.932
   12ARG    HB2  189   3.899   5.630   2.855
   12ARG     CG  190   3.747   5.773   2.872
   12ARG    HG1  191   3.807   5.853   2.872
   12ARG    HG2  192   3.670   5.788   2.934
   12ARG     CD  193   3.693   5.751   2.730
   12ARG    HD1  194   3.768   5.755   2.664
   12ARG    HD2  195   3.626   5.821   2.708
   12ARG     NE  196   3.627   5.619   2.717
   12ARG     HE  197   3.676   5.542   2.759
   12ARG     CZ  198   3.514   5.589   2.657
   12ARG    NH1  199   3.442   5.678   2.593
   12ARG   HH11  200   3.473   5.773   2.589
   12ARG   HH12  201   3.357   5.651   2.549
   12ARG    NH2  202   3.469   5.467   2.661
   12ARG   HH21  203   3.520   5.396   2.709
   12ARG   HH22  204   3.382   5.444   2.615
   12ARG      C  205   3.851   5.577   3.163
   12ARG      O  206   3.771   5.609   3.250
   13LYS      N  207   3.911   5.457   3.162
   13LYS     HN  208   3.982   5.441   3.093
   13LYS     CA  209   3.879   5.350   3.257
   13LYS     HA  210   3.780   5.342   3.257
   13LYS     CB  211   3.944   5.219   3.207
   13LYS    HB1  212   4.043   5.224   3.221
   13LYS    HB2  213   3.924   5.208   3.110
   13LYS     CG  214   3.890   5.096   3.283
   13LYS    HG1  215   3.790   5.096   3.278
   13LYS    HG2  216   3.918   5.102   3.378
   13LYS     CD  217   3.942   4.965   3.223
   13LYS    HD1  218   3.918   4.960   3.126
   13LYS    HD2  219   4.042   4.961   3.233
   13LYS     CE  220   3.879   4.847   3.298
   13LYS    HE1  221   3.779   4.852   3.290
   13LYS    HE2  222   3.905   4.851   3.395
   13LYS     NZ  223   3.923   4.716   3.245
   13LYS    HZ1  224   3.880   4.642   3.297
   13LYS    HZ2  225   3.898   4.708   3.148
   13LYS    HZ3  226   4.023   4.708   3.253
   13LYS      C  227   3.919   5.383   3.401
   13LYS      O  228   3.857   5.335   3.495
   14PHE      N  229   4.022   5.467   3.420
   14PHE     HN  230   4.071   5.501   3.339
   14PHE     CA  231   4.067   5.509   3.553
   14PHE     HA  232   4.059   5.428   3.611
   14PHE     CB  233   4.214   5.553   3.546
   14PHE    HB1  234   4.220   5.636   3.491
   14PHE    HB2  235   4.267   5.480   3.503
   14PHE     CG  236   4.274   5.583   3.682
   14PHE    CD1  237   4.289   5.716   3.725
   14PHE    HD1  238   4.262   5.791   3.665
   14PHE    CE1  239   4.343   5.743   3.853
   14PHE    HE1  240   4.354   5.838   3.883
   14PHE     CZ  241   4.380   5.637   3.937
   14PHE     HZ  242   4.418   5.657   4.028
   14PHE    CD2  243   4.311   5.477   3.768
   14PHE    HD2  244   4.300   5.382   3.738
   14PHE    CE2  245   4.365   5.504   3.895
   14PHE    HE2  246   4.391   5.429   3.955
   14PHE      C  247   3.976   5.616   3.614
   14PHE      O  248   3.944   5.607   3.731
   15HIS      N  249   3.927   5.713   3.535
   15HIS     HN  250   3.953   5.714   3.439
   15HIS     CA  251   3.837   5.818   3.586
   15HIS     HA  252   3.876   5.845   3.674
   15HIS     CB  253   3.836   5.937   3.488
   15HIS    HB1  254   3.759   5.997   3.511
   15HIS    HB2  255   3.824   5.902   3.395
   15HIS    ND1  256   4.082   5.985   3.433
   15HIS    HD1  257   4.099   5.906   3.374
   15HIS     CG  258   3.963   6.017   3.494
   15HIS    CE1  259   4.172   6.078   3.467
   15HIS    HE1  260   4.268   6.079   3.438
   15HIS    NE2  261   4.116   6.171   3.546
   15HIS    CD2  262   3.983   6.133   3.564
   15HIS    HD2  263   3.915   6.181   3.619
   15HIS      C  264   3.695   5.767   3.613
   15HIS      O  265   3.628   5.816   3.704
   16GLU      N  266   3.650   5.665   3.541
   16GLU     HN  267   3.710   5.626   3.471
   16GLU     CA  268   3.517   5.605   3.559
   16GLU     HA  269   3.451   5.681   3.561
   16GLU     CB  270   3.491   5.513   3.439
   16GLU    HB1  271   3.543   5.428   3.454
   16GLU    HB2  272   3.525   5.558   3.357
   16GLU     CG  273   3.345   5.476   3.417
   16GLU    HG1  274   3.288   5.558   3.419
   16GLU    HG2  275   3.314   5.413   3.489
   16GLU     CD  276   3.331   5.407   3.281
   16GLU    OE1  277   3.341   5.283   3.276
   16GLU    OE2  278   3.322   5.480   3.179
   16GLU      C  279   3.501   5.533   3.695
   16GLU      O  280   3.391   5.523   3.748
   17LYS      N  281   3.611   5.490   3.757
   17LYS     HN  282   3.700   5.509   3.715
   17LYS     CA  283   3.609   5.415   3.884
   17LYS     HA  284   3.531   5.354   3.877
   17LYS     CB  285   3.740   5.336   3.897
   17LYS    HB1  286   3.815   5.399   3.920
   17LYS    HB2  287   3.760   5.291   3.810
   17LYS     CG  288   3.733   5.227   4.006
   17LYS    HG1  289   3.652   5.170   3.989
   17LYS    HG2  290   3.723   5.272   4.095
   17LYS     CD  291   3.856   5.137   4.009
   17LYS    HD1  292   3.866   5.090   3.922
   17LYS    HD2  293   3.938   5.192   4.026
   17LYS     CE  294   3.838   5.035   4.123
   17LYS    HE1  295   3.759   4.977   4.102
   17LYS    HE2  296   3.822   5.083   4.209
   17LYS     NZ  297   3.957   4.948   4.140
   17LYS    HZ1  298   3.940   4.883   4.215
   17LYS    HZ2  299   3.974   4.897   4.056
   17LYS    HZ3  300   4.036   5.004   4.162
   17LYS      C  301   3.579   5.503   4.008
   17LYS      O  302   3.551   5.449   4.114
   18HIS      N  303   3.584   5.636   3.997
   18HIS     HN  304   3.591   5.676   3.905
   18HIS     CA  305   3.578   5.726   4.113
   18HIS     HA  306   3.584   5.666   4.192
   18HIS     CB  307   3.699   5.821   4.109
   18HIS    HB1  308   3.686   5.894   4.176
   18HIS    HB2  309   3.707   5.860   4.017
   18HIS    ND1  310   3.878   5.727   4.268
   18HIS     CG  311   3.828   5.749   4.142
   18HIS    CE1  312   3.991   5.656   4.256
   18HIS    HE1  313   4.049   5.628   4.333
   18HIS    NE2  314   4.016   5.629   4.128
   18HIS    HE2  315   4.093   5.576   4.091
   18HIS    CD2  316   3.913   5.689   4.054
   18HIS    HD2  317   3.904   5.688   3.955
   18HIS      C  318   3.444   5.799   4.132
   18HIS      O  319   3.433   5.882   4.222
   19HIS      N  320   3.340   5.767   4.054
   19HIS     HN  321   3.350   5.690   3.990
   19HIS     CA  322   3.212   5.839   4.058
   19HIS     HA  323   3.231   5.916   4.119
   19HIS     CB  324   3.178   5.888   3.916
   19HIS    HB1  325   3.082   5.918   3.914
   19HIS    HB2  326   3.191   5.813   3.851
   19HIS    ND1  327   3.267   6.128   3.933
   19HIS     CG  328   3.265   6.004   3.874
   19HIS    CE1  329   3.358   6.203   3.869
   19HIS    HE1  330   3.380   6.298   3.892
   19HIS    NE2  331   3.415   6.133   3.770
   19HIS    HE2  332   3.486   6.165   3.707
   19HIS    CD2  333   3.357   6.006   3.773
   19HIS    HD2  334   3.378   5.930   3.711
   19HIS      C  335   3.095   5.766   4.127
   19HIS      O  336   2.986   5.822   4.132
   20SER      N  337   3.114   5.647   4.186
   20SER     HN  338   3.208   5.613   4.197
   20SER     CA  339   3.002   5.565   4.234
   20SER     HA  340   2.923   5.624   4.218
   20SER     CB  341   2.993   5.436   4.151
   20SER    HB1  342   2.989   5.457   4.054
   20SER    HB2  343   2.913   5.382   4.178
   20SER     OG  344   3.107   5.357   4.173
   20SER    HG1  345   3.101   5.273   4.119
   20SER      C  346   2.996   5.538   4.385
   20SER      O  347   2.923   5.448   4.426
   21HIS      N  348   3.067   5.612   4.471
   21HIS     HN  349   3.128   5.684   4.435
   21HIS     CA  350   3.058   5.590   4.617
   21HIS     HA  351   2.966   5.556   4.630
   21HIS     CB  352   3.158   5.483   4.662
   21HIS    HB1  353   3.246   5.526   4.685
   21HIS    HB2  354   3.172   5.417   4.587
   21HIS    ND1  355   3.001   5.322   4.785
   21HIS     CG  356   3.109   5.408   4.783
   21HIS    CE1  357   2.987   5.275   4.910
   21HIS    HE1  358   2.916   5.211   4.940
   21HIS    NE2  359   3.083   5.325   4.989
   21HIS    HE2  360   3.098   5.305   5.086
   21HIS    CD2  361   3.160   5.411   4.910
   21HIS    HD2  362   3.238   5.466   4.940
   21HIS      C  363   3.065   5.718   4.701
   21HIS      O  364   3.144   5.731   4.794
   22ARG      N  365   2.981   5.817   4.667
   22ARG     HN  366   2.940   5.816   4.576
   22ARG     CA  367   2.949   5.927   4.759
   22ARG     HA  368   2.956   5.892   4.852
   22ARG     CB  369   3.054   6.040   4.747
   22ARG    HB1  370   3.023   6.107   4.680
   22ARG    HB2  371   3.141   6.001   4.718
   22ARG     CG  372   3.074   6.110   4.882
   22ARG    HG1  373   3.097   6.041   4.952
   22ARG    HG2  374   2.989   6.156   4.908
   22ARG     CD  375   3.186   6.213   4.874
   22ARG    HD1  376   3.166   6.279   4.801
   22ARG    HD2  377   3.273   6.167   4.854
   22ARG     NE  378   3.201   6.287   5.001
   22ARG     HE  379   3.139   6.261   5.075
   22ARG     CZ  380   3.288   6.383   5.026
   22ARG    NH1  381   3.376   6.421   4.937
   22ARG   HH11  382   3.379   6.377   4.848
   22ARG   HH12  383   3.440   6.494   4.959
   22ARG    NH2  384   3.287   6.444   5.141
   22ARG   HH21  385   3.221   6.418   5.211
   22ARG   HH22  386   3.353   6.517   5.159
   22ARG      C  387   2.804   5.969   4.741
   22ARG      O  388   2.774   6.084   4.708
   23GLY      N  389   2.714   5.872   4.754
   23GLY     HN  390   2.746   5.777   4.750
   23GLY     CA  391   2.572   5.896   4.774
   23GLY    HA1  392   2.550   5.989   4.744
   23GLY    HA2  393   2.520   5.831   4.720
   23GLY      C  394   2.541   5.879   4.923
   23GLY      O  395   2.571   5.773   4.975
   24TYR      N  396   2.484   5.985   4.981
   24TYR     HN  397   2.498   6.072   4.934
   24TYR     CA  398   2.406   5.994   5.106
   24TYR     HA  399   2.412   6.091   5.126
   24TYR     CB  400   2.262   5.949   5.076
   24TYR    HB1  401   2.214   5.936   5.163
   24TYR    HB2  402   2.264   5.863   5.026
   24TYR     CG  403   2.187   6.053   4.994
   24TYR    CD1  404   2.117   6.155   5.060
   24TYR    HD1  405   2.114   6.157   5.160
   24TYR    CE1  406   2.050   6.254   4.986
   24TYR    HE1  407   1.999   6.326   5.034
   24TYR     CZ  408   2.055   6.252   4.845
   24TYR     OH  409   1.991   6.348   4.773
   24TYR     HH  410   2.005   6.331   4.676
   24TYR    CD2  411   2.193   6.051   4.853
   24TYR    HD2  412   2.244   5.979   4.806
   24TYR    CE2  413   2.128   6.151   4.779
   24TYR    HE2  414   2.132   6.150   4.679
   24TYR      C  415   2.463   5.936   5.236
   24TYR    OT1  416   2.587   5.880   5.229
   24TYR    OT2  417   2.386   5.947   5.347
   7.98884   7.53195   6.52286   0.00000   0.00000   2.66295   0.00000  -2.66295   3.76597
